<event>
12    6  0.9533401E-008  0.1732150E+04  0.7818608E-02  0.8743238E-01
          2   -1    0    0  501    0  0.00000000000E+00  0.00000000000E+00  0.82461125982E+03  0.82461125982E+03  0.00000000000E+00 0. -1.
         -1   -1    0    0    0  501 -0.00000000000E+00 -0.00000000000E+00 -0.90962336788E+03  0.90962336788E+03  0.00000000000E+00 0.  1.
         24    2    1    2    0    0 -0.86471266452E+02 -0.44216792277E+03 -0.46227177681E+03  0.65008286345E+03  0.76959611931E+02 0.  0.
        254    2    1    2    0    0  0.86471266452E+02  0.44216792277E+03  0.37725966875E+03  0.10841517643E+04  0.91108201520E+03 0.  0.
         23    2    4    4    0    0  0.60844920655E+02 -0.25932504275E+03  0.22500341215E+03  0.36051632687E+03  0.91618253047E+02 0.  0.
         23    2    4    4    0    0  0.25626345797E+02  0.70149296552E+03  0.15225625659E+03  0.72363543738E+03  0.87847528701E+02 0.  0.
          4    1    3    3  502    0 -0.80335611309E+01 -0.37534174655E+02 -0.13331075048E+02  0.40633359858E+02  0.00000000000E+00 0. -1.
         -1    1    3    3    0  502 -0.78437705322E+02 -0.40463374811E+03 -0.44894070177E+03  0.60944950359E+03  0.00000000000E+00 0.  1.
         11    1    5    5    0    0  0.67885182659E+02 -0.21861350363E+03  0.14641921274E+03  0.27173304520E+03  0.00000000000E+00 0. -1.
        -11    1    5    5    0    0 -0.70402620034E+01 -0.40711539118E+02  0.78584199410E+02  0.88783281666E+02  0.00000000000E+00 0.  1.
          3    1    6    6  503    0  0.41496891691E+01  0.34784746422E+03  0.11950973561E+03  0.36782829580E+03  0.00000000000E+00 0. -1.
         -3    1    6    6    0  503  0.21476656628E+02  0.35364550129E+03  0.32746520983E+02  0.35580714158E+03  0.00000000000E+00 0.  1.
<mgrwt>
<rscale>  0 0.17321497E+04</rscale>
<asrwt>0</asrwt>
<pdfrwt beam="1">  1        2 0.12686327E+00 0.17321497E+04</pdfrwt>
<pdfrwt beam="2">  1       -1 0.13994206E+00 0.17321497E+04</pdfrwt>
<totfact> 0.15038080E+01</totfact>
</mgrwt>
</event>
<event>
12    6  0.9533401E-008  0.1359094E+04  0.7818608E-02  0.8983973E-01
         -1   -1    0    0    0  501 -0.00000000000E+00  0.00000000000E+00  0.58380403121E+03  0.58380403121E+03  0.00000000000E+00 0.  1.
          2   -1    0    0  501    0  0.00000000000E+00 -0.00000000000E+00 -0.79099121622E+03  0.79099121622E+03  0.00000000000E+00 0. -1.
         24    2    1    2    0    0  0.27563154803E+03 -0.22753055682E+03  0.66917761869E+02  0.37205418631E+03  0.78761831729E+02 0.  0.
        254    2    1    2    0    0 -0.27563154803E+03  0.22753055682E+03 -0.27410494688E+03  0.10027410611E+04  0.89588682834E+03 0.  0.
         23    2    4    4    0    0 -0.23100788638E+03 -0.22574553643E+03 -0.40086481030E+03  0.52303157749E+03  0.92432375943E+02 0.  0.
         23    2    4    4    0    0 -0.44623661658E+02  0.45327609325E+03  0.12675986342E+03  0.47970948364E+03  0.81256617117E+02 0.  0.
          4    1    3    3  502    0  0.21643590572E+03 -0.18439136603E+03  0.84700139512E+02  0.29667960966E+03  0.00000000000E+00 0. -1.
         -3    1    3    3    0  502  0.59195642315E+02 -0.43139190781E+02 -0.17782377643E+02  0.75374576649E+02  0.00000000000E+00 0.  1.
         11    1    5    5    0    0 -0.14133737845E+03 -0.16687905785E+03 -0.20516575940E+03  0.29986307429E+03  0.00000000000E+00 0. -1.
        -11    1    5    5    0    0 -0.89670507929E+02 -0.58866478584E+02 -0.19569905090E+03  0.22316850319E+03  0.00000000000E+00 0.  1.
          4    1    6    6  503    0  0.95840755642E+01  0.25664477404E+03  0.49197601944E+02  0.26149340065E+03  0.00000000000E+00 0. -1.
         -4    1    6    6    0  503 -0.54207737222E+02  0.19663131921E+03  0.77562261476E+02  0.21821608299E+03  0.00000000000E+00 0.  1.
<mgrwt>
<rscale>  0 0.13590936E+04</rscale>
<asrwt>0</asrwt>
<pdfrwt beam="1">  1        2 0.12169096E+00 0.13590936E+04</pdfrwt>
<pdfrwt beam="2">  1       -1 0.89816004E-01 0.13590936E+04</pdfrwt>
<totfact> 0.47312119E+01</totfact>
</mgrwt>
</event>
<event>
12    6  0.9533401E-008  0.1687928E+04  0.7818608E-02  0.8768279E-01
         -1   -1    0    0    0  501 -0.00000000000E+00  0.00000000000E+00  0.19284289562E+03  0.19284289562E+03  0.00000000000E+00 0.  1.
          2   -1    0    0  501    0  0.00000000000E+00 -0.00000000000E+00 -0.36935539589E+04  0.36935539589E+04  0.00000000000E+00 0. -1.
         24    2    1    2    0    0 -0.12123357310E+03 -0.57826696743E+03 -0.10282699334E+04  0.11885389412E+04  0.78711461413E+02 0.  0.
        254    2    1    2    0    0  0.12123357310E+03  0.57826696743E+03 -0.24724411299E+04  0.26978579133E+04  0.90353855167E+03 0.  0.
         23    2    4    4    0    0  0.41151009649E+03  0.62621150127E+03 -0.15356942342E+04  0.17111344809E+04  0.90238721929E+02 0.  0.
         23    2    4    4    0    0 -0.29027652339E+03 -0.47944533844E+02 -0.93674689571E+03  0.98672343235E+03  0.97822527935E+02 0.  0.
          2    1    3    3  502    0 -0.54641085238E+02 -0.35741425497E+03 -0.56080189027E+03  0.66725509214E+03  0.00000000000E+00 0. -1.
         -1    1    3    3    0  502 -0.66592487859E+02 -0.22085271246E+03 -0.46746804308E+03  0.52128384911E+03  0.00000000000E+00 0.  1.
         11    1    5    5    0    0  0.37748004347E+03  0.51615026594E+03 -0.13099965598E+04  0.14577356643E+04  0.00000000000E+00 0. -1.
        -11    1    5    5    0    0  0.34030053018E+02  0.11006123534E+03 -0.22569767442E+03  0.25339881664E+03  0.00000000000E+00 0.  1.
          3    1    6    6  503    0 -0.29517946426E+03 -0.36526396325E+02 -0.89188081454E+03  0.94016832594E+03  0.00000000000E+00 0. -1.
         -3    1    6    6    0  503  0.49029408745E+01 -0.11418137519E+02 -0.44866081168E+02  0.46555106412E+02  0.00000000000E+00 0.  1.
<mgrwt>
<rscale>  0 0.16879285E+04</rscale>
<asrwt>0</asrwt>
<pdfrwt beam="1">  1        2 0.56823903E+00 0.16879285E+04</pdfrwt>
<pdfrwt beam="2">  1       -1 0.29668140E-01 0.16879285E+04</pdfrwt>
<totfact> 0.67443221E+00</totfact>
</mgrwt>
</event>
<event>
12    6  0.9533401E-008  0.1163793E+04  0.7818608E-02  0.9145152E-01
          2   -1    0    0  501    0  0.00000000000E+00  0.00000000000E+00  0.40681388823E+04  0.40681388823E+04  0.00000000000E+00 0. -1.
         -1   -1    0    0    0  501 -0.00000000000E+00 -0.00000000000E+00 -0.83233072874E+02  0.83233072874E+02  0.00000000000E+00 0.  1.
         24    2    1    2    0    0 -0.14740350579E+03  0.96679097153E+02  0.30821360140E+03  0.36346573617E+03  0.77698622489E+02 0.  0.
        254    2    1    2    0    0  0.14740350579E+03 -0.96679097153E+02  0.36766922080E+04  0.37879062190E+04  0.89392018102E+03 0.  0.
         23    2    4    4    0    0 -0.10747033496E+03 -0.42827990433E+03  0.13702282784E+04  0.14420990362E+04  0.84560900222E+02 0.  0.
         23    2    4    4    0    0  0.25487384076E+03  0.33160080717E+03  0.23064639296E+04  0.23458071828E+04  0.90087237386E+02 0.  0.
          2    1    3    3  502    0 -0.10614804577E+03  0.60353689594E+02  0.13638858992E+03  0.18306234710E+03  0.00000000000E+00 0. -1.
         -1    1    3    3    0  502 -0.41255460027E+02  0.36325407559E+02  0.17182501148E+03  0.18040338907E+03  0.00000000000E+00 0.  1.
         11    1    5    5    0    0 -0.16049284066E+02 -0.56621049044E+01  0.44773077566E+02  0.47898511728E+02  0.00000000000E+00 0. -1.
        -11    1    5    5    0    0 -0.91421050896E+02 -0.42261779942E+03  0.13254552008E+04  0.13942005244E+04  0.00000000000E+00 0.  1.
          3    1    6    6  503    0  0.71985359206E+02  0.54033829274E+02  0.35482847701E+03  0.36606665342E+03  0.00000000000E+00 0. -1.
         -3    1    6    6    0  503  0.18288848155E+03  0.27756697790E+03  0.19516354526E+04  0.19797405294E+04  0.00000000000E+00 0.  1.
<mgrwt>
<rscale>  0 0.11637933E+04</rscale>
<asrwt>0</asrwt>
<pdfrwt beam="1">  1        2 0.62586737E+00 0.11637933E+04</pdfrwt>
<pdfrwt beam="2">  1       -1 0.12805091E-01 0.11637933E+04</pdfrwt>
<totfact> 0.15073904E+01</totfact>
</mgrwt>
</event>
<event>
12    6  0.9533401E-008  0.1408692E+04  0.7818608E-02  0.8947551E-01
          2   -1    0    0  501    0  0.00000000000E+00  0.00000000000E+00  0.30502906089E+03  0.30502906089E+03  0.00000000000E+00 0. -1.
         -1   -1    0    0    0  501 -0.00000000000E+00 -0.00000000000E+00 -0.16264137094E+04  0.16264137094E+04  0.00000000000E+00 0.  1.
         24    2    1    2    0    0 -0.11964466069E+03  0.39072674948E+03 -0.38339906963E+03  0.56590193051E+03  0.79170138177E+02 0.  0.
        254    2    1    2    0    0  0.11964466069E+03 -0.39072674948E+03 -0.93798557893E+03  0.13655408398E+04  0.90437967766E+03 0.  0.
         23    2    4    4    0    0  0.34781278909E+01 -0.62305725552E+03 -0.35982811882E+03  0.72529716697E+03  0.91472751695E+02 0.  0.
         23    2    4    4    0    0  0.11616653280E+03  0.23233050604E+03 -0.57815746011E+03  0.64024367285E+03  0.90408985002E+02 0.  0.
          2    1    3    3  502    0 -0.61790537370E+01  0.11265533229E+03 -0.75314017486E+02  0.13565251869E+03  0.00000000000E+00 0. -1.
         -3    1    3    3    0  502 -0.11346560695E+03  0.27807141719E+03 -0.30808505214E+03  0.43024941182E+03  0.00000000000E+00 0.  1.
         11    1    5    5    0    0  0.35948941314E+02 -0.52180143995E+03 -0.30824517514E+03  0.60711132184E+03  0.00000000000E+00 0.  1.
        -11    1    5    5    0    0 -0.32470813423E+02 -0.10125581557E+03 -0.51582943683E+02  0.11818584513E+03  0.00000000000E+00 0. -1.
          1    1    6    6  503    0  0.29760824801E+02  0.11782894838E+03 -0.35241594648E+03  0.37278192969E+03  0.00000000000E+00 0. -1.
         -1    1    6    6    0  503  0.86405707994E+02  0.11450155766E+03 -0.22574151363E+03  0.26746174316E+03  0.00000000000E+00 0.  1.
<mgrwt>
<rscale>  0 0.14086922E+04</rscale>
<asrwt>0</asrwt>
<pdfrwt beam="1">  1        2 0.46927548E-01 0.14086922E+04</pdfrwt>
<pdfrwt beam="2">  1       -1 0.25021749E+00 0.14086922E+04</pdfrwt>
<totfact> 0.83511197E+00</totfact>
</mgrwt>
</event>
<event>
12    6  0.9533401E-008  0.2969498E+04  0.7818608E-02  0.8252495E-01
          2   -1    0    0  501    0  0.00000000000E+00  0.00000000000E+00  0.24483983101E+04  0.24483983101E+04  0.00000000000E+00 0. -1.
         -1   -1    0    0    0  501 -0.00000000000E+00 -0.00000000000E+00 -0.90037597286E+03  0.90037597286E+03  0.00000000000E+00 0.  1.
         24    2    1    2    0    0 -0.80203725683E+03  0.10466291196E+04  0.10270219805E+04  0.16732752195E+04  0.79871999310E+02 0.  0.
        254    2    1    2    0    0  0.80203725683E+03 -0.10466291196E+04  0.52100035671E+03  0.16754990635E+04  0.89283787139E+03 0.  0.
         23    2    4    4    0    0 -0.27385366701E+02  0.10544898479E+03 -0.43522563725E+02  0.14493025568E+03  0.85094763385E+02 0.  0.
         23    2    4    4    0    0  0.82942262353E+03 -0.11520781044E+04  0.56452292043E+03  0.15305688078E+04  0.93428585416E+02 0.  0.
          2    1    3    3  502    0 -0.38927141552E+03  0.44643694785E+03  0.47743513854E+03  0.76077755938E+03  0.00000000000E+00 0. -1.
         -1    1    3    3    0  502 -0.41276584131E+03  0.60019217178E+03  0.54958684200E+03  0.91249766011E+03  0.00000000000E+00 0.  1.
         11    1    5    5    0    0  0.26253288011E+02  0.32444256120E+02  0.52158201545E+01  0.42060309871E+02  0.00000000000E+00 0.  1.
        -11    1    5    5    0    0 -0.53638654712E+02  0.73004728669E+02 -0.48738383879E+02  0.10286994581E+03  0.00000000000E+00 0. -1.
          2    1    6    6  503    0  0.69039904855E+03 -0.89458291740E+03  0.45136199818E+03  0.12168225408E+04  0.00000000000E+00 0. -1.
         -2    1    6    6    0  503  0.13902357498E+03 -0.25749518701E+03  0.11316092225E+03  0.31374626701E+03  0.00000000000E+00 0.  1.
<mgrwt>
<rscale>  0 0.29694976E+04</rscale>
<asrwt>0</asrwt>
<pdfrwt beam="1">  1        2 0.37667666E+00 0.29694976E+04</pdfrwt>
<pdfrwt beam="2">  1       -1 0.13851938E+00 0.29694976E+04</pdfrwt>
<totfact> 0.15672778E+00</totfact>
</mgrwt>
</event>
<event>
12    6  0.9533401E-008  0.1696229E+04  0.7818608E-02  0.8763518E-01
         -1   -1    0    0    0  501 -0.00000000000E+00  0.00000000000E+00  0.32915850633E+03  0.32915850633E+03  0.00000000000E+00 0.  1.
          2   -1    0    0  501    0  0.00000000000E+00 -0.00000000000E+00 -0.21852649278E+04  0.21852649278E+04  0.00000000000E+00 0. -1.
         24    2    1    2    0    0  0.40924657192E+03 -0.11493785827E+03 -0.12714971877E+04  0.13430677647E+04  0.80202582988E+02 0.  0.
        254    2    1    2    0    0 -0.40924657192E+03  0.11493785827E+03 -0.58460923371E+03  0.11713556694E+04  0.92174436814E+03 0.  0.
         23    2    4    4    0    0  0.23910184083E+02 -0.20689372309E+03 -0.57948957309E+03  0.62335034509E+03  0.96854415698E+02 0.  0.
         23    2    4    4    0    0 -0.43315675600E+03  0.32183158136E+03 -0.51196606186E+01  0.54800532431E+03  0.95306256466E+02 0.  0.
          4    1    3    3  502    0  0.34483041622E+03 -0.76771753824E+02 -0.96731051601E+03  0.10298017054E+04  0.00000000000E+00 0. -1.
         -3    1    3    3    0  502  0.64416155698E+02 -0.38166104448E+02 -0.30418667171E+03  0.31326605927E+03  0.00000000000E+00 0.  1.
         11    1    5    5    0    0 -0.31766509097E+02 -0.11956710123E+03 -0.35974756288E+03  0.38042569813E+03  0.00000000000E+00 0. -1.
        -11    1    5    5    0    0  0.55676693179E+02 -0.87326621854E+02 -0.21974201021E+03  0.24292464696E+03  0.00000000000E+00 0.  1.
          2    1    6    6  503    0 -0.61053605888E+02  0.91494355940E+02  0.69478167871E+01  0.11021357502E+03  0.00000000000E+00 0. -1.
         -2    1    6    6    0  503 -0.37210315011E+03  0.23033722542E+03 -0.12067477406E+02  0.43779174929E+03  0.00000000000E+00 0.  1.
<mgrwt>
<rscale>  0 0.16962294E+04</rscale>
<asrwt>0</asrwt>
<pdfrwt beam="1">  1        2 0.33619459E+00 0.16962294E+04</pdfrwt>
<pdfrwt beam="2">  1       -1 0.50639772E-01 0.16962294E+04</pdfrwt>
<totfact> 0.22362465E+01</totfact>
</mgrwt>
</event>
<event>
12    6  0.9533401E-008  0.2271273E+04  0.7818608E-02  0.8489335E-01
          2   -1    0    0  501    0  0.00000000000E+00  0.00000000000E+00  0.15921156743E+04  0.15921156743E+04  0.00000000000E+00 0. -1.
         -1   -1    0    0    0  501 -0.00000000000E+00 -0.00000000000E+00 -0.81003538577E+03  0.81003538577E+03  0.00000000000E+00 0.  1.
         24    2    1    2    0    0 -0.17879969902E+02 -0.82237713559E+01  0.13382492739E+04  0.13407869735E+04  0.80070378108E+02 0.  0.
        254    2    1    2    0    0  0.17879969902E+02  0.82237713559E+01 -0.55616898535E+03  0.10613640866E+04  0.90376017854E+03 0.  0.
         23    2    4    4    0    0  0.42049297896E+03 -0.37999633364E+02 -0.99139652168E+02  0.44378759815E+03  0.94129932285E+02 0.  0.
         23    2    4    4    0    0 -0.40261300906E+03  0.46223404720E+02 -0.45702933318E+03  0.61757648844E+03  0.91055310020E+02 0.  0.
          4    1    3    3  502    0 -0.32049500771E+02  0.16598372231E+02  0.11310432135E+04  0.11316189408E+04  0.00000000000E+00 0. -1.
         -1    1    3    3    0  502  0.14169530869E+02 -0.24822143587E+02  0.20720606043E+03  0.20916803268E+03  0.00000000000E+00 0.  1.
         11    1    5    5    0    0  0.41512859009E+03 -0.49790706506E+02 -0.89334733700E+02  0.42754129088E+03  0.00000000000E+00 0. -1.
        -11    1    5    5    0    0  0.53643888722E+01  0.11791073142E+02 -0.98049184688E+01  0.16246307273E+02  0.00000000000E+00 0.  1.
          2    1    6    6  503    0 -0.59534134815E+02  0.40409940136E+02 -0.70842693140E+02  0.10097506445E+03  0.00000000000E+00 0. -1.
         -2    1    6    6    0  503 -0.34307887424E+03  0.58134645841E+01 -0.38618664004E+03  0.51660142399E+03  0.00000000000E+00 0.  1.
<mgrwt>
<rscale>  0 0.22712728E+04</rscale>
<asrwt>0</asrwt>
<pdfrwt beam="1">  1        2 0.24494087E+00 0.22712728E+04</pdfrwt>
<pdfrwt beam="2">  1       -1 0.12462083E+00 0.22712728E+04</pdfrwt>
<totfact> 0.65750918E+00</totfact>
</mgrwt>
</event>
<event>
12    6  0.9533401E-008  0.2106923E+04  0.7818608E-02  0.8558200E-01
          2   -1    0    0  501    0  0.00000000000E+00  0.00000000000E+00  0.15376864784E+04  0.15376864784E+04  0.00000000000E+00 0. -1.
         -1   -1    0    0    0  501 -0.00000000000E+00 -0.00000000000E+00 -0.72172111815E+03  0.72172111815E+03  0.00000000000E+00 0.  1.
         24    2    1    2    0    0 -0.56665615901E+03 -0.26577732822E+03  0.92396011763E+03  0.11181846078E+04  0.69983764866E+02 0.  0.
        254    2    1    2    0    0  0.56665615901E+03  0.26577732822E+03 -0.10799475734E+03  0.11412229888E+04  0.94815096470E+03 0.  0.
         23    2    4    4    0    0  0.58828241255E+03  0.22978259963E+03 -0.45196011752E+03  0.78206226873E+03  0.92071734680E+02 0.  0.
         23    2    4    4    0    0 -0.21626253546E+02  0.35994728587E+02  0.34396536018E+03  0.35916072009E+03  0.94450720079E+02 0.  0.
          4    1    3    3  502    0 -0.52624590806E+03 -0.22542937699E+03  0.83209705516E+03  0.10100191429E+04  0.00000000000E+00 0. -1.
         -3    1    3    3    0  502 -0.40410250943E+02 -0.40347951234E+02  0.91863062462E+02  0.10816546489E+03  0.00000000000E+00 0.  1.
         11    1    5    5    0    0  0.19703266015E+03  0.12316204734E+03 -0.15196144564E+03  0.27763832595E+03  0.00000000000E+00 0. -1.
        -11    1    5    5    0    0  0.39124975240E+03  0.10662055229E+03 -0.29999867187E+03  0.50442394278E+03  0.00000000000E+00 0.  1.
          3    1    6    6  503    0  0.19442578576E+02 -0.18679070552E+02  0.44862038301E+02  0.52340462540E+02  0.00000000000E+00 0. -1.
         -3    1    6    6    0  503 -0.41068832123E+02  0.54673799139E+02  0.29910332188E+03  0.30682025755E+03  0.00000000000E+00 0.  1.
<mgrwt>
<rscale>  0 0.21069227E+04</rscale>
<asrwt>0</asrwt>
<pdfrwt beam="1">  1        2 0.23656715E+00 0.21069227E+04</pdfrwt>
<pdfrwt beam="2">  1       -1 0.11103402E+00 0.21069227E+04</pdfrwt>
<totfact> 0.94668672E+00</totfact>
</mgrwt>
</event>
<event>
12    6  0.9533401E-008  0.1736629E+04  0.7818608E-02  0.8740745E-01
          2   -1    0    0  501    0  0.00000000000E+00  0.00000000000E+00  0.81155259645E+03  0.81155259645E+03  0.00000000000E+00 0. -1.
         -1   -1    0    0    0  501 -0.00000000000E+00 -0.00000000000E+00 -0.92904675267E+03  0.92904675267E+03  0.00000000000E+00 0.  1.
         24    2    1    2    0    0  0.55039857991E+03  0.29943103133E+03  0.38873377008E+02  0.63425646883E+03  0.90402375612E+02 0.  0.
        254    2    1    2    0    0 -0.55039857991E+03 -0.29943103133E+03 -0.15636753322E+03  0.11063428803E+04  0.89830185573E+03 0.  0.
         23    2    4    4    0    0 -0.28114046545E+02 -0.51205301993E+03 -0.11655998503E+03  0.53336812219E+03  0.88919226407E+02 0.  0.
         23    2    4    4    0    0 -0.52228453337E+03  0.21262198860E+03 -0.39807548189E+02  0.57297475810E+03  0.93414071166E+02 0.  0.
          2    1    3    3  502    0  0.34003386095E+03  0.17992928069E+03 -0.20118811769E+02  0.38523024184E+03  0.00000000000E+00 0. -1.
         -1    1    3    3    0  502  0.21036471896E+03  0.11950175064E+03  0.58992188777E+02  0.24902622699E+03  0.00000000000E+00 0.  1.
         11    1    5    5    0    0  0.84952345961E+01 -0.25240431834E+03 -0.17814785998E+02  0.25317479244E+03  0.00000000000E+00 0.  1.
        -11    1    5    5    0    0 -0.36609281141E+02 -0.25964870159E+03 -0.98745199037E+02  0.28019332975E+03  0.00000000000E+00 0. -1.
          4    1    6    6  503    0 -0.17552637716E+03  0.56025077738E+02 -0.54718959440E+02  0.19220427398E+03  0.00000000000E+00 0. -1.
         -4    1    6    6    0  503 -0.34675815621E+03  0.15659691086E+03  0.14911411251E+02  0.38077048411E+03  0.00000000000E+00 0.  1.
<mgrwt>
<rscale>  0 0.17366293E+04</rscale>
<asrwt>0</asrwt>
<pdfrwt beam="1">  1        2 0.12485425E+00 0.17366293E+04</pdfrwt>
<pdfrwt beam="2">  1       -1 0.14293027E+00 0.17366293E+04</pdfrwt>
<totfact> 0.14529013E+01</totfact>
</mgrwt>
</event>
<event>
12    6  0.9533401E-008  0.1741163E+04  0.7818608E-02  0.8738230E-01
          2   -1    0    0  501    0  0.00000000000E+00  0.00000000000E+00  0.13409011020E+04  0.13409011020E+04  0.00000000000E+00 0. -1.
         -1   -1    0    0    0  501 -0.00000000000E+00 -0.00000000000E+00 -0.56522614071E+03  0.56522614071E+03  0.00000000000E+00 0.  1.
         24    2    1    2    0    0 -0.79964291678E+02 -0.26187500729E+03  0.91123088395E+03  0.95496088731E+03  0.81460205211E+02 0.  0.
        254    2    1    2    0    0  0.79964291678E+02  0.26187500729E+03 -0.13555592264E+03  0.95116635542E+03  0.90076035666E+03 0.  0.
         23    2    4    4    0    0  0.21676073612E+03  0.55597264807E+03 -0.74496803191E+02  0.60863345539E+03  0.93776901217E+02 0.  0.
         23    2    4    4    0    0 -0.13679644444E+03 -0.29409764078E+03 -0.61059119446E+02  0.34253290003E+03  0.91618131443E+02 0.  0.
          4    1    3    3  502    0 -0.38329778699E+02 -0.18567691711E+03  0.50175110932E+03  0.53637604829E+03  0.00000000000E+00 0. -1.
         -3    1    3    3    0  502 -0.41634512979E+02 -0.76198090189E+02  0.40947977463E+03  0.41858483901E+03  0.00000000000E+00 0.  1.
         11    1    5    5    0    0  0.18369780673E+03  0.45851948006E+03 -0.25369653242E+02  0.49459945117E+03  0.00000000000E+00 0. -1.
        -11    1    5    5    0    0  0.33062929389E+02  0.97453168012E+02 -0.49127149949E+02  0.11403400422E+03  0.00000000000E+00 0.  1.
          4    1    6    6  503    0 -0.34334012025E+02 -0.16423661777E+03 -0.56533166601E+02  0.17705504772E+03  0.00000000000E+00 0. -1.
         -4    1    6    6    0  503 -0.10246243242E+03 -0.12986102301E+03 -0.45259528454E+01  0.16547785231E+03  0.00000000000E+00 0.  1.
<mgrwt>
<rscale>  0 0.17411632E+04</rscale>
<asrwt>0</asrwt>
<pdfrwt beam="1">  1        2 0.20629248E+00 0.17411632E+04</pdfrwt>
<pdfrwt beam="2">  1       -1 0.86957869E-01 0.17411632E+04</pdfrwt>
<totfact> 0.22045296E+01</totfact>
</mgrwt>
</event>
<event>
12    6  0.9533401E-008  0.1609040E+04  0.7818608E-02  0.8815014E-01
          2   -1    0    0  501    0  0.00000000000E+00  0.00000000000E+00  0.21551106444E+04  0.21551106444E+04  0.00000000000E+00 0. -1.
         -1   -1    0    0    0  501 -0.00000000000E+00 -0.00000000000E+00 -0.30033358030E+03  0.30033358030E+03  0.00000000000E+00 0.  1.
         24    2    1    2    0    0  0.32318552663E+03  0.36187006154E+03  0.25443105022E+03  0.55367494926E+03  0.80137157817E+02 0.  0.
        254    2    1    2    0    0 -0.32318552663E+03 -0.36187006154E+03  0.16003460139E+04  0.19017692754E+04  0.90566008347E+03 0.  0.
         23    2    4    4    0    0 -0.28496425727E+03  0.22734388977E+03  0.93498643575E+03  0.10076912582E+04  0.91390178262E+02 0.  0.
         23    2    4    4    0    0 -0.38221269353E+02 -0.58921395131E+03  0.66535957811E+03  0.89407801722E+03  0.89655935906E+02 0.  0.
          4    1    3    3  502    0  0.78524722497E+02  0.10232769927E+03  0.30551878563E+02  0.13255379045E+03  0.00000000000E+00 0. -1.
         -3    1    3    3    0  502  0.24466080413E+03  0.25954236228E+03  0.22387917166E+03  0.42112115881E+03  0.00000000000E+00 0.  1.
         11    1    5    5    0    0 -0.63871196786E+02  0.86082555667E+01  0.14438093018E+03  0.15811225393E+03  0.00000000000E+00 0. -1.
        -11    1    5    5    0    0 -0.22109306049E+03  0.21873563420E+03  0.79060550557E+03  0.84957900427E+03  0.00000000000E+00 0.  1.
          1    1    6    6  503    0 -0.34441437694E+02 -0.70248872958E+02  0.88262054514E+02  0.11794620405E+03  0.00000000000E+00 0. -1.
         -1    1    6    6    0  503 -0.37798316595E+01 -0.51896507835E+03  0.57709752359E+03  0.77613181317E+03  0.00000000000E+00 0.  1.
<mgrwt>
<rscale>  0 0.16090396E+04</rscale>
<asrwt>0</asrwt>
<pdfrwt beam="1">  1        2 0.33155547E+00 0.16090396E+04</pdfrwt>
<pdfrwt beam="2">  1       -1 0.46205168E-01 0.16090396E+04</pdfrwt>
<totfact> 0.27854702E+01</totfact>
</mgrwt>
</event>
<event>
12    6  0.9533401E-008  0.3084573E+04  0.7818608E-02  0.8219985E-01
         -1   -1    0    0    0  501 -0.00000000000E+00  0.00000000000E+00  0.13479032423E+04  0.13479032423E+04  0.00000000000E+00 0.  1.
          2   -1    0    0  501    0  0.00000000000E+00 -0.00000000000E+00 -0.17647016542E+04  0.17647016542E+04  0.00000000000E+00 0. -1.
         24    2    1    2    0    0 -0.94897371707E+03  0.10408952707E+04 -0.29173292044E+03  0.14406745939E+04  0.80131818481E+02 0.  0.
        254    2    1    2    0    0  0.94897371707E+03 -0.10408952707E+04 -0.12506549148E+03  0.16719303025E+04  0.89201764502E+03 0.  0.
         23    2    4    4    0    0  0.81823696151E+03 -0.10464593597E+04  0.16444277240E+03  0.13416729379E+04  0.91956131191E+02 0.  0.
         23    2    4    4    0    0  0.13073675556E+03  0.55640890049E+01 -0.28950826387E+03  0.33025736466E+03  0.90176680566E+02 0.  0.
          2    1    3    3  502    0 -0.28224439864E+03  0.31179454202E+03 -0.49867567207E+02  0.42351447586E+03  0.00000000000E+00 0. -1.
         -1    1    3    3    0  502 -0.66672931843E+03  0.72910072871E+03 -0.24186535324E+03  0.10171601181E+04  0.00000000000E+00 0.  1.
         11    1    5    5    0    0  0.60524404736E+03 -0.83610663731E+03  0.13064218938E+03  0.10404143634E+04  0.00000000000E+00 0. -1.
        -11    1    5    5    0    0  0.21299291416E+03 -0.21035272242E+03  0.33800583019E+02  0.30125857452E+03  0.00000000000E+00 0.  1.
          2    1    6    6  503    0  0.14125126215E+03  0.16023795284E+02 -0.27467520074E+03  0.30928166285E+03  0.00000000000E+00 0. -1.
         -2    1    6    6    0  503 -0.10514506590E+02 -0.10459706279E+02 -0.14833063130E+02  0.20975701802E+02  0.00000000000E+00 0.  1.
<mgrwt>
<rscale>  0 0.30845726E+04</rscale>
<asrwt>0</asrwt>
<pdfrwt beam="1">  1        2 0.27149256E+00 0.30845726E+04</pdfrwt>
<pdfrwt beam="2">  1       -1 0.20736973E+00 0.30845726E+04</pdfrwt>
<totfact> 0.11699922E+00</totfact>
</mgrwt>
</event>
<event>
12    6  0.9533401E-008  0.2337504E+04  0.7818608E-02  0.8463279E-01
          2   -1    0    0  501    0  0.00000000000E+00  0.00000000000E+00  0.17494491495E+04  0.17494491495E+04  0.00000000000E+00 0. -1.
         -1   -1    0    0    0  501 -0.00000000000E+00 -0.00000000000E+00 -0.78080619911E+03  0.78080619911E+03  0.00000000000E+00 0.  1.
         24    2    1    2    0    0  0.62201912682E+02  0.12173132028E+03  0.14768529776E+04  0.14855417272E+04  0.83975673087E+02 0.  0.
        254    2    1    2    0    0 -0.62201912682E+02 -0.12173132028E+03 -0.50821002716E+03  0.10447136214E+04  0.90247522225E+03 0.  0.
         23    2    4    4    0    0 -0.34264688813E+03 -0.28222627790E+03 -0.54294927668E+03  0.70730385620E+03  0.91794695202E+02 0.  0.
         23    2    4    4    0    0  0.28044497545E+03  0.16049495762E+03  0.34739249523E+02  0.33740976521E+03  0.90722205244E+02 0.  0.
          2    1    3    3  502    0  0.80524301065E+02  0.11470725076E+03  0.13354029512E+04  0.13427371145E+04  0.00000000000E+00 0. -1.
         -1    1    3    3    0  502 -0.18322388383E+02  0.70240695185E+01  0.14145002634E+03  0.14280461274E+03  0.00000000000E+00 0.  1.
         11    1    5    5    0    0 -0.48108607801E+02 -0.86408725641E+02 -0.10270442828E+03  0.14258017253E+03  0.00000000000E+00 0.  1.
        -11    1    5    5    0    0 -0.29453828033E+03 -0.19581755226E+03 -0.44024484840E+03  0.56472368367E+03  0.00000000000E+00 0. -1.
          2    1    6    6  503    0  0.20524478807E+03  0.77631157033E+02 -0.25813104083E+01  0.21945086634E+03  0.00000000000E+00 0. -1.
         -2    1    6    6    0  503  0.75200187380E+02  0.82863800587E+02  0.37320559931E+02  0.11795889887E+03  0.00000000000E+00 0.  1.
<mgrwt>
<rscale>  0 0.23375036E+04</rscale>
<asrwt>0</asrwt>
<pdfrwt beam="1">  1        2 0.26914602E+00 0.23375036E+04</pdfrwt>
<pdfrwt beam="2">  1       -1 0.12012403E+00 0.23375036E+04</pdfrwt>
<totfact> 0.58493924E+00</totfact>
</mgrwt>
</event>
<event>
12    6  0.9533401E-008  0.1585944E+04  0.7818608E-02  0.8829230E-01
          2   -1    0    0  501    0  0.00000000000E+00  0.00000000000E+00  0.16336764118E+04  0.16336764118E+04  0.00000000000E+00 0. -1.
         -1   -1    0    0    0  501 -0.00000000000E+00 -0.00000000000E+00 -0.38490131880E+03  0.38490131880E+03  0.00000000000E+00 0.  1.
         24    2    1    2    0    0  0.15975018164E+03  0.16097020328E+03  0.10322224518E+04  0.10599286164E+04  0.80832883173E+02 0.  0.
        254    2    1    2    0    0 -0.15975018164E+03 -0.16097020328E+03  0.21655264121E+03  0.95864911420E+03  0.90591475916E+03 0.  0.
         23    2    4    4    0    0 -0.16532749449E+03 -0.15351328523E+02  0.55164760386E+03  0.58332499046E+03  0.91564850912E+02 0.  0.
         23    2    4    4    0    0  0.55773128501E+01 -0.14561887476E+03 -0.33509496265E+03  0.37532412375E+03  0.85694811783E+02 0.  0.
          2    1    3    3  502    0  0.71184758199E+02  0.12416583895E+03  0.55444646932E+03  0.57262143926E+03  0.00000000000E+00 0. -1.
         -1    1    3    3    0  502  0.88565423444E+02  0.36804364336E+02  0.47777598244E+03  0.48730717711E+03  0.00000000000E+00 0.  1.
         11    1    5    5    0    0  0.18384291825E+00  0.12572192451E+02  0.94166983853E+01  0.15708851954E+02  0.00000000000E+00 0. -1.
        -11    1    5    5    0    0 -0.16551133741E+03 -0.27923520973E+02  0.54223090547E+03  0.56761613850E+03  0.00000000000E+00 0.  1.
          1    1    6    6  503    0 -0.25980783768E+02 -0.10021747479E+03 -0.27408676448E+03  0.29298822134E+03  0.00000000000E+00 0. -1.
         -1    1    6    6    0  503  0.31558096618E+02 -0.45401399973E+02 -0.61008198169E+02  0.82335902409E+02  0.00000000000E+00 0.  1.
<mgrwt>
<rscale>  0 0.15859435E+04</rscale>
<asrwt>0</asrwt>
<pdfrwt beam="1">  1        2 0.25133483E+00 0.15859435E+04</pdfrwt>
<pdfrwt beam="2">  1       -1 0.59215588E-01 0.15859435E+04</pdfrwt>
<totfact> 0.33760765E+01</totfact>
</mgrwt>
</event>
<event>
12    6  0.9533401E-008  0.1449915E+04  0.7818608E-02  0.8918460E-01
          2   -1    0    0  501    0  0.00000000000E+00  0.00000000000E+00  0.14563656684E+04  0.14563656684E+04  0.00000000000E+00 0. -1.
         -1   -1    0    0    0  501 -0.00000000000E+00 -0.00000000000E+00 -0.36087301755E+03  0.36087301755E+03  0.00000000000E+00 0.  1.
         24    2    1    2    0    0 -0.42163919797E+03 -0.12972347860E+03  0.30107107136E+03  0.54006244571E+03  0.80099070461E+02 0.  0.
        254    2    1    2    0    0  0.42163919797E+03  0.12972347860E+03  0.79442157954E+03  0.12771762403E+04  0.89747741396E+03 0.  0.
         23    2    4    4    0    0  0.99050957394E+02 -0.24227643398E+03 -0.63064153397E+02  0.28407633411E+03  0.90627333247E+02 0.  0.
         23    2    4    4    0    0  0.32258824057E+03  0.37199991259E+03  0.85748573293E+03  0.99309990619E+03  0.92295902188E+02 0.  0.
          4    1    3    3  502    0 -0.38361543613E+03 -0.93995367748E+02  0.27813305797E+03  0.48306721057E+03  0.00000000000E+00 0. -1.
         -3    1    3    3    0  502 -0.38023761837E+02 -0.35728110856E+02  0.22938013392E+02  0.56995235134E+02  0.00000000000E+00 0.  1.
         11    1    5    5    0    0  0.30005106808E+02 -0.83991484227E+01  0.33493375071E+01  0.31337999147E+02  0.00000000000E+00 0. -1.
        -11    1    5    5    0    0  0.69045850586E+02 -0.23387728556E+03 -0.66413490904E+02  0.25273833496E+03  0.00000000000E+00 0.  1.
          3    1    6    6  503    0  0.12639391350E+03  0.10445531245E+03  0.21924798291E+03  0.27378095566E+03  0.00000000000E+00 0. -1.
         -3    1    6    6    0  503  0.19619432707E+03  0.26754460013E+03  0.63823775002E+03  0.71931895052E+03  0.00000000000E+00 0.  1.
<mgrwt>
<rscale>  0 0.14499146E+04</rscale>
<asrwt>0</asrwt>
<pdfrwt beam="1">  1        2 0.22405625E+00 0.14499146E+04</pdfrwt>
<pdfrwt beam="2">  1       -1 0.55518927E-01 0.14499146E+04</pdfrwt>
<totfact> 0.48714596E+01</totfact>
</mgrwt>
</event>
<event>
12    6  0.9533401E-008  0.1925482E+04  0.7818608E-02  0.8642275E-01
          2   -1    0    0  501    0  0.00000000000E+00  0.00000000000E+00  0.14465508273E+04  0.14465508273E+04  0.00000000000E+00 0. -1.
         -1   -1    0    0    0  501 -0.00000000000E+00 -0.00000000000E+00 -0.64074500534E+03  0.64074500534E+03  0.00000000000E+00 0.  1.
         24    2    1    2    0    0  0.10220889537E+03 -0.66037872414E+03 -0.49414760248E+02  0.67442870316E+03  0.76586810347E+02 0.  0.
        254    2    1    2    0    0 -0.10220889537E+03  0.66037872414E+03  0.85522058224E+03  0.14128671295E+04  0.90456871701E+03 0.  0.
         23    2    4    4    0    0  0.23079909812E+03  0.24383924115E+03  0.79574082195E+03  0.86843240791E+03  0.90805243090E+02 0.  0.
         23    2    4    4    0    0 -0.33300799349E+03  0.41653948299E+03  0.59479760292E+02  0.54443472161E+03  0.92042705270E+02 0.  0.
          4    1    3    3  502    0 -0.47438270913E+01 -0.46167426318E+01  0.42047749984E+01  0.78420877824E+01  0.00000000000E+00 0. -1.
         -3    1    3    3    0  502  0.10695272246E+03 -0.65576198151E+03 -0.53619535246E+02  0.66658661538E+03  0.00000000000E+00 0.  1.
         11    1    5    5    0    0  0.22152380819E+03  0.19436600510E+03  0.63627302229E+03  0.70120917024E+03  0.00000000000E+00 0.  1.
        -11    1    5    5    0    0  0.92752899297E+01  0.49473236056E+02  0.15946779966E+03  0.16722323767E+03  0.00000000000E+00 0. -1.
          4    1    6    6  503    0 -0.61063254055E+02  0.58739576826E+02  0.42273404712E+02  0.94689490586E+02  0.00000000000E+00 0. -1.
         -4    1    6    6    0  503 -0.27194473943E+03  0.35779990617E+03  0.17206355580E+02  0.44974523103E+03  0.00000000000E+00 0.  1.
<mgrwt>
<rscale>  0 0.19254820E+04</rscale>
<asrwt>0</asrwt>
<pdfrwt beam="1">  1        2 0.22254628E+00 0.19254820E+04</pdfrwt>
<pdfrwt beam="2">  1       -1 0.98576155E-01 0.19254820E+04</pdfrwt>
<totfact> 0.14278074E+01</totfact>
</mgrwt>
</event>
<event>
12    6  0.9533401E-008  0.3661583E+04  0.7818608E-02  0.8076529E-01
          2   -1    0    0  501    0  0.00000000000E+00  0.00000000000E+00  0.17796859857E+04  0.17796859857E+04  0.00000000000E+00 0. -1.
         -1   -1    0    0    0  501 -0.00000000000E+00 -0.00000000000E+00 -0.18833642860E+04  0.18833642860E+04  0.00000000000E+00 0.  1.
         24    2    1    2    0    0 -0.11915792791E+04  0.98466365779E+03  0.71059652500E+03  0.17031809666E+04  0.80338572127E+02 0.  0.
        254    2    1    2    0    0  0.11915792791E+04 -0.98466365779E+03 -0.81427482538E+03  0.19598693051E+04  0.88804307578E+03 0.  0.
         23    2    4    4    0    0  0.51138020861E+03 -0.80911172716E+03 -0.12297142866E+03  0.96973777463E+03  0.95382778795E+02 0.  0.
         23    2    4    4    0    0  0.68019907051E+03 -0.17555193063E+03 -0.69130339672E+03  0.99013153047E+03  0.94714336045E+02 0.  0.
          4    1    3    3  502    0 -0.93279809476E+03  0.81012917585E+03  0.55516907189E+03  0.13544867166E+04  0.00000000000E+00 0. -1.
         -3    1    3    3    0  502 -0.25878118436E+03  0.17453448194E+03  0.15542745311E+03  0.34869424995E+03  0.00000000000E+00 0.  1.
         11    1    5    5    0    0  0.19413201094E+03 -0.35882886766E+03 -0.13836734885E+02  0.40821177001E+03  0.00000000000E+00 0. -1.
        -11    1    5    5    0    0  0.31724819767E+03 -0.45028285950E+03 -0.10913469378E+03  0.56152600463E+03  0.00000000000E+00 0.  1.
          3    1    6    6  503    0  0.60422322330E+03 -0.12497805420E+03 -0.61503512761E+03  0.87119080907E+03  0.00000000000E+00 0. -1.
         -3    1    6    6    0  503  0.75975847207E+02 -0.50573876426E+02 -0.76268269113E+02  0.11894072141E+03  0.00000000000E+00 0.  1.
<mgrwt>
<rscale>  0 0.36615827E+04</rscale>
<asrwt>0</asrwt>
<pdfrwt beam="1">  1        2 0.27379784E+00 0.36615827E+04</pdfrwt>
<pdfrwt beam="2">  1       -1 0.28974835E+00 0.36615827E+04</pdfrwt>
<totfact> 0.31450623E-01</totfact>
</mgrwt>
</event>
<event>
12    6  0.9533401E-008  0.1593932E+04  0.7818608E-02  0.8824285E-01
         -1   -1    0    0    0  501 -0.00000000000E+00  0.00000000000E+00  0.19701412431E+03  0.19701412431E+03  0.00000000000E+00 0.  1.
          2   -1    0    0  501    0  0.00000000000E+00 -0.00000000000E+00 -0.32239048253E+04  0.32239048253E+04  0.00000000000E+00 0. -1.
         24    2    1    2    0    0 -0.86054439486E+02 -0.32626286399E+03 -0.13857531624E+03  0.37689867265E+03  0.94850768057E+02 0.  0.
        254    2    1    2    0    0  0.86054439486E+02  0.32626286399E+03 -0.28883153848E+04  0.30440202770E+04  0.89991158551E+03 0.  0.
         23    2    4    4    0    0 -0.11727505561E+03  0.33053194675E+03 -0.37752964066E+03  0.52337182782E+03  0.91567647595E+02 0.  0.
         23    2    4    4    0    0  0.20332949510E+03 -0.42690827537E+01 -0.25107857441E+04  0.25206484491E+04  0.90897979917E+02 0.  0.
          4    1    3    3  502    0 -0.64517327915E+02 -0.15280568949E+03 -0.11190386319E+03  0.20008632871E+03  0.00000000000E+00 0. -1.
         -3    1    3    3    0  502 -0.21537111571E+02 -0.17345717451E+03 -0.26671453051E+02  0.17681234394E+03  0.00000000000E+00 0.  1.
         11    1    5    5    0    0 -0.66288286189E+02  0.26575211022E+03 -0.32751619494E+03  0.42694868417E+03  0.00000000000E+00 0. -1.
        -11    1    5    5    0    0 -0.50986769424E+02  0.64779836532E+02 -0.50013445724E+02  0.96423143646E+02  0.00000000000E+00 0.  1.
          2    1    6    6  503    0  0.14224999073E+03 -0.39112131415E+02 -0.19278915132E+04  0.19335279944E+04  0.00000000000E+00 0. -1.
         -2    1    6    6    0  503  0.61079504366E+02  0.34843048662E+02 -0.58289423091E+03  0.58712045470E+03  0.00000000000E+00 0.  1.
<mgrwt>
<rscale>  0 0.15939320E+04</rscale>
<asrwt>0</asrwt>
<pdfrwt beam="1">  1        2 0.49598535E+00 0.15939320E+04</pdfrwt>
<pdfrwt beam="2">  1       -1 0.30309866E-01 0.15939320E+04</pdfrwt>
<totfact> 0.13809255E+01</totfact>
</mgrwt>
</event>
<event>
12    6  0.9533401E-008  0.2086525E+04  0.7818608E-02  0.8567202E-01
         -1   -1    0    0    0  501 -0.00000000000E+00  0.00000000000E+00  0.74050899671E+03  0.74050899671E+03  0.00000000000E+00 0.  1.
          2   -1    0    0  501    0  0.00000000000E+00 -0.00000000000E+00 -0.14697955670E+04  0.14697955670E+04  0.00000000000E+00 0. -1.
         24    2    1    2    0    0  0.56085359425E+02 -0.23503940554E+03  0.56339611123E+03  0.61802079855E+03  0.78392854237E+02 0.  0.
        254    2    1    2    0    0 -0.56085359425E+02  0.23503940554E+03 -0.12926826815E+04  0.15922837651E+04  0.89774717151E+03 0.  0.
         23    2    4    4    0    0  0.67848089811E+02  0.11409147504E+03 -0.13714498499E+04  0.13809401405E+04  0.92199526653E+02 0.  0.
         23    2    4    4    0    0 -0.12393344924E+03  0.12094793050E+03  0.78767168462E+02  0.21134362463E+03  0.92054109705E+02 0.  0.
          4    1    3    3  502    0  0.35816496273E+02 -0.28654726656E+02  0.12196086757E+03  0.13030106671E+03  0.00000000000E+00 0. -1.
         -3    1    3    3    0  502  0.20268863152E+02 -0.20638467889E+03  0.44143524365E+03  0.48771973185E+03  0.00000000000E+00 0.  1.
         11    1    5    5    0    0  0.35581299272E+02  0.20150492540E+02 -0.15048476454E+03  0.15594144916E+03  0.00000000000E+00 0.  1.
        -11    1    5    5    0    0  0.32266790539E+02  0.93940982498E+02 -0.12209650854E+04  0.12249986913E+04  0.00000000000E+00 0. -1.
          4    1    6    6  503    0 -0.11090951299E+03  0.10807712028E+03  0.99198886656E+02  0.18390759396E+03  0.00000000000E+00 0. -1.
         -4    1    6    6    0  503 -0.13023936243E+02  0.12870810223E+02 -0.20431718195E+02  0.27436030679E+02  0.00000000000E+00 0.  1.
<mgrwt>
<rscale>  0 0.20865252E+04</rscale>
<asrwt>0</asrwt>
<pdfrwt beam="1">  1        2 0.22612239E+00 0.20865252E+04</pdfrwt>
<pdfrwt beam="2">  1       -1 0.11392446E+00 0.20865252E+04</pdfrwt>
<totfact> 0.97442275E+00</totfact>
</mgrwt>
</event>
<event>
12    6  0.9533401E-008  0.2015241E+04  0.7818608E-02  0.8599528E-01
          2   -1    0    0  501    0  0.00000000000E+00  0.00000000000E+00  0.96744161896E+03  0.96744161896E+03  0.00000000000E+00 0. -1.
         -1   -1    0    0    0  501 -0.00000000000E+00 -0.00000000000E+00 -0.10494678418E+04  0.10494678418E+04  0.00000000000E+00 0.  1.
         24    2    1    2    0    0 -0.57715387594E+03 -0.55191358724E+03 -0.11029716817E+03  0.81018651597E+03  0.80755935153E+02 0.  0.
        254    2    1    2    0    0  0.57715387594E+03  0.55191358724E+03  0.28270945378E+02  0.12067229447E+04  0.90424875710E+03 0.  0.
         23    2    4    4    0    0 -0.16127794192E+03 -0.10379439375E+03  0.27581268348E+02  0.21496350013E+03  0.93084527726E+02 0.  0.
         23    2    4    4    0    0  0.73843181786E+03  0.65570798100E+03  0.68967702978E+00  0.99175944461E+03  0.91388261524E+02 0.  0.
          2    1    3    3  502    0 -0.22882057676E+03 -0.19011733854E+03 -0.74517205974E+02  0.30668595134E+03  0.00000000000E+00 0. -1.
         -1    1    3    3    0  502 -0.34833329918E+03 -0.36179624870E+03 -0.35779962201E+02  0.50350056463E+03  0.00000000000E+00 0.  1.
         11    1    5    5    0    0 -0.21088884097E+02 -0.28727344561E+00 -0.25222501775E+02  0.32878536377E+02  0.00000000000E+00 0. -1.
        -11    1    5    5    0    0 -0.14018905782E+03 -0.10350712031E+03  0.52803770123E+02  0.18208496376E+03  0.00000000000E+00 0.  1.
          1    1    6    6  503    0  0.25353564696E+03  0.26459385202E+03  0.33074824682E+02  0.36794588574E+03  0.00000000000E+00 0. -1.
         -1    1    6    6    0  503  0.48489617090E+03  0.39111412898E+03 -0.32385147652E+02  0.62381355887E+03  0.00000000000E+00 0.  1.
<mgrwt>
<rscale>  0 0.20152408E+04</rscale>
<asrwt>0</asrwt>
<pdfrwt beam="1">  1        2 0.14883717E+00 0.20152408E+04</pdfrwt>
<pdfrwt beam="2">  1       -1 0.16145659E+00 0.20152408E+04</pdfrwt>
<totfact> 0.79754501E+00</totfact>
</mgrwt>
</event>
<event>
12    6  0.9533401E-008  0.1245003E+04  0.7818608E-02  0.9074353E-01
         -1   -1    0    0    0  501 -0.00000000000E+00  0.00000000000E+00  0.75308505095E+03  0.75308505095E+03  0.00000000000E+00 0.  1.
          2   -1    0    0  501    0  0.00000000000E+00 -0.00000000000E+00 -0.51456071487E+03  0.51456071487E+03  0.00000000000E+00 0. -1.
         24    2    1    2    0    0  0.13453314788E+03 -0.39226659306E+02 -0.20230062790E+03  0.25870844134E+03  0.79791070259E+02 0.  0.
        254    2    1    2    0    0 -0.13453314788E+03  0.39226659306E+02  0.44082496398E+03  0.10089373245E+04  0.89665488187E+03 0.  0.
         23    2    4    4    0    0  0.11356073921E+03 -0.12181522285E+03  0.62195396282E+03  0.65017803155E+03  0.90386673959E+02 0.  0.
         23    2    4    4    0    0 -0.24809388709E+03  0.16104188215E+03 -0.18112899884E+03  0.35875929293E+03  0.91735769620E+02 0.  0.
          4    1    3    3  502    0  0.14087792731E+03 -0.22176493348E+02 -0.17280302767E+03  0.22405194405E+03  0.00000000000E+00 0. -1.
         -3    1    3    3    0  502 -0.63447794293E+01 -0.17050165957E+02 -0.29497600226E+02  0.34656497288E+02  0.00000000000E+00 0.  1.
         11    1    5    5    0    0  0.22225477928E+01 -0.46512975469E+02  0.87940421127E+02  0.99508362833E+02  0.00000000000E+00 0.  1.
        -11    1    5    5    0    0  0.11133819142E+03 -0.75302247378E+02  0.53401354170E+03  0.55066966871E+03  0.00000000000E+00 0. -1.
          1    1    6    6  503    0 -0.23274724352E+03  0.11441759128E+03 -0.14002396478E+03  0.29473611124E+03  0.00000000000E+00 0. -1.
         -1    1    6    6    0  503 -0.15346643572E+02  0.46624290876E+02 -0.41105034062E+02  0.64023181692E+02  0.00000000000E+00 0.  1.
<mgrwt>
<rscale>  0 0.12450028E+04</rscale>
<asrwt>0</asrwt>
<pdfrwt beam="1">  1        2 0.79163186E-01 0.12450028E+04</pdfrwt>
<pdfrwt beam="2">  1       -1 0.11585924E+00 0.12450028E+04</pdfrwt>
<totfact> 0.45186256E+01</totfact>
</mgrwt>
</event>
<event>
12    6  0.9533401E-008  0.1666454E+04  0.7818608E-02  0.8780732E-01
         -1   -1    0    0    0  501 -0.00000000000E+00  0.00000000000E+00  0.23644593494E+03  0.23644593494E+03  0.00000000000E+00 0.  1.
          2   -1    0    0  501    0  0.00000000000E+00 -0.00000000000E+00 -0.29362612138E+04  0.29362612138E+04  0.00000000000E+00 0. -1.
         24    2    1    2    0    0  0.50903525496E+03 -0.10034531683E+02 -0.14984894929E+04  0.15846209049E+04  0.79593149567E+02 0.  0.
        254    2    1    2    0    0 -0.50903525496E+03  0.10034531683E+02 -0.12013257859E+04  0.15880862438E+04  0.90532684212E+03 0.  0.
         23    2    4    4    0    0 -0.74828586742E+03  0.71210639147E+02 -0.74998087679E+03  0.10658889533E+04  0.92979840866E+02 0.  0.
         23    2    4    4    0    0  0.23925061246E+03 -0.61176107463E+02 -0.45134490916E+03  0.52219729042E+03  0.89411472488E+02 0.  0.
          2    1    3    3  502    0  0.40251274474E+03 -0.39191345923E+02 -0.11487669215E+04  0.12178743413E+04  0.00000000000E+00 0. -1.
         -1    1    3    3    0  502  0.10652251022E+03  0.29156814240E+02 -0.34972257143E+03  0.36674656368E+03  0.00000000000E+00 0.  1.
         11    1    5    5    0    0 -0.12120945142E+03  0.71224831219E+01 -0.76840135208E+02  0.14369017801E+03  0.00000000000E+00 0. -1.
        -11    1    5    5    0    0 -0.62707641601E+03  0.64088156025E+02 -0.67314074158E+03  0.92219877534E+03  0.00000000000E+00 0.  1.
          2    1    6    6  503    0  0.19960574590E+03 -0.59147463172E+02 -0.42850108061E+03  0.47639694823E+03  0.00000000000E+00 0.  1.
         -2    1    6    6    0  503  0.39644866564E+02 -0.20286442919E+01 -0.22843828550E+02  0.45800342197E+02  0.00000000000E+00 0. -1.
<mgrwt>
<rscale>  0 0.16664538E+04</rscale>
<asrwt>0</asrwt>
<pdfrwt beam="1">  1        2 0.45173252E+00 0.16664538E+04</pdfrwt>
<pdfrwt beam="2">  1       -1 0.36376295E-01 0.16664538E+04</pdfrwt>
<totfact> 0.15075012E+01</totfact>
</mgrwt>
</event>
<event>
12    6  0.9533401E-008  0.1976687E+04  0.7818608E-02  0.8617599E-01
         -1   -1    0    0    0  501 -0.00000000000E+00  0.00000000000E+00  0.23626561612E+04  0.23626561612E+04  0.00000000000E+00 0.  1.
          2   -1    0    0  501    0  0.00000000000E+00 -0.00000000000E+00 -0.41344256079E+03  0.41344256079E+03  0.00000000000E+00 0. -1.
         24    2    1    2    0    0 -0.32045438627E+03  0.38947018884E+03 -0.65924997587E+02  0.51472390127E+03  0.78845085778E+02 0.  0.
        254    2    1    2    0    0  0.32045438627E+03 -0.38947018884E+03  0.20151385980E+04  0.22613748207E+04  0.89367469974E+03 0.  0.
         23    2    4    4    0    0  0.53585464677E+03 -0.42986854990E+03  0.18406696672E+04  0.19668168160E+04  0.91522627245E+02 0.  0.
         23    2    4    4    0    0 -0.21540026050E+03  0.40398361052E+02  0.17446893079E+03  0.29455800471E+03  0.91080791215E+02 0.  0.
          2    1    3    3  502    0 -0.29046190787E+03  0.30839577174E+03 -0.47126790385E+02  0.42625931817E+03  0.00000000000E+00 0. -1.
         -1    1    3    3    0  502 -0.29992478398E+02  0.81074417104E+02 -0.18798207202E+02  0.88464583101E+02  0.00000000000E+00 0.  1.
         11    1    5    5    0    0  0.22139450757E+03 -0.13947155850E+03  0.60686501476E+03  0.66087289985E+03  0.00000000000E+00 0. -1.
        -11    1    5    5    0    0  0.31446013921E+03 -0.29039699140E+03  0.12338046524E+04  0.13059439161E+04  0.00000000000E+00 0.  1.
          3    1    6    6  503    0 -0.21420850941E+02 -0.55487679094E+01  0.61649557715E+02  0.65500455318E+02  0.00000000000E+00 0. -1.
         -3    1    6    6    0  503 -0.19397940956E+03  0.45947128961E+02  0.11281937308E+03  0.22905754939E+03  0.00000000000E+00 0.  1.
<mgrwt>
<rscale>  0 0.19766867E+04</rscale>
<asrwt>0</asrwt>
<pdfrwt beam="1">  1        2 0.63606549E-01 0.19766867E+04</pdfrwt>
<pdfrwt beam="2">  1       -1 0.36348556E+00 0.19766867E+04</pdfrwt>
<totfact> 0.10314518E+00</totfact>
</mgrwt>
</event>
<event>
12    6  0.1198879E-007  0.1874716E+04  0.7818608E-02  0.8667545E-01
          2   -1    0    0  501    0  0.00000000000E+00  0.00000000000E+00  0.12383627978E+04  0.12383627978E+04  0.00000000000E+00 0. -1.
         -1   -1    0    0    0  501 -0.00000000000E+00 -0.00000000000E+00 -0.70951740887E+03  0.70951740887E+03  0.00000000000E+00 0.  1.
         24    2    1    2    0    0 -0.19631118493E+03  0.60435344510E+03 -0.13178009343E+03  0.65395153365E+03  0.80656353797E+02 0.  0.
        254    2    1    2    0    0  0.19631118493E+03 -0.60435344510E+03  0.66062548239E+03  0.12939286730E+04  0.91326021211E+03 0.  0.
         23    2    4    4    0    0  0.23285493887E+03 -0.38524309655E+03 -0.12236897782E+03  0.47480716762E+03  0.88509963836E+02 0.  0.
         23    2    4    4    0    0 -0.36543753938E+02 -0.21911034855E+03  0.78299446021E+03  0.81912150543E+03  0.92384658567E+02 0.  0.
          2    1    3    3  502    0  0.17391052721E+01  0.14697810137E+02 -0.14970914565E+02  0.21051802604E+02  0.00000000000E+00 0. -1.
         -1    1    3    3    0  502 -0.19805029020E+03  0.58965563496E+03 -0.11680917886E+03  0.63289973105E+03  0.00000000000E+00 0.  1.
         11    1    5    5    0    0  0.15484733947E+02 -0.64927496447E+02 -0.43717362816E+02  0.79790755053E+02  0.00000000000E+00 0. -1.
        -11    1    5    5    0    0  0.21737020492E+03 -0.32031560010E+03 -0.78651615005E+02  0.39501641257E+03  0.00000000000E+00 0.  1.
          4    1    6    6  503    0  0.27970853742E+02 -0.45497623154E+02  0.13509328747E+03  0.14526733525E+03  0.00000000000E+00 0. -1.
         -4    1    6    6    0  503 -0.64514607680E+02 -0.17361272540E+03  0.64790117274E+03  0.67385417017E+03  0.00000000000E+00 0.  1.
<mgrwt>
<rscale>  0 0.18747159E+04</rscale>
<asrwt>0</asrwt>
<pdfrwt beam="1">  1        2 0.19051735E+00 0.18747159E+04</pdfrwt>
<pdfrwt beam="2">  1       -1 0.10915652E+00 0.18747159E+04</pdfrwt>
<totfact> 0.14944897E+01</totfact>
</mgrwt>
</event>
<event>
12    6  0.9533401E-008  0.1446540E+04  0.7818608E-02  0.8920803E-01
          2   -1    0    0  501    0  0.00000000000E+00  0.00000000000E+00  0.16189552463E+04  0.16189552463E+04  0.00000000000E+00 0. -1.
         -1   -1    0    0    0  501 -0.00000000000E+00 -0.00000000000E+00 -0.32312156196E+03  0.32312156196E+03  0.00000000000E+00 0.  1.
         24    2    1    2    0    0  0.13478158816E+03 -0.16955832091E+03  0.91353248005E+03  0.94248027627E+03  0.82531075092E+02 0.  0.
        254    2    1    2    0    0 -0.13478158816E+03  0.16955832091E+03  0.38230120428E+03  0.99959653197E+03  0.89784348037E+03 0.  0.
         23    2    4    4    0    0 -0.50116139938E+03  0.17043845462E+02  0.15615580667E+03  0.53371271850E+03  0.94928336308E+02 0.  0.
         23    2    4    4    0    0  0.36637981122E+03  0.15251447545E+03  0.22614539760E+03  0.46588381347E+03  0.91712351971E+02 0.  0.
          4    1    3    3  502    0  0.11516883209E+03 -0.12658144789E+03  0.55323563724E+03  0.57909964008E+03  0.00000000000E+00 0. -1.
         -3    1    3    3    0  502  0.19612756071E+02 -0.42976873018E+02  0.36029684281E+03  0.36338063618E+03  0.00000000000E+00 0.  1.
         11    1    5    5    0    0 -0.91098949556E+02  0.55751151443E+01 -0.85303623225E+01  0.91667156607E+02  0.00000000000E+00 0.  1.
        -11    1    5    5    0    0 -0.41006244983E+03  0.11468730317E+02  0.16468616900E+03  0.44204556190E+03  0.00000000000E+00 0. -1.
          3    1    6    6  503    0  0.31765334078E+03  0.96471388955E+02  0.17134623234E+03  0.37359055814E+03  0.00000000000E+00 0. -1.
         -3    1    6    6    0  503  0.48726470442E+02  0.56043086493E+02  0.54799165268E+02  0.92293255330E+02  0.00000000000E+00 0.  1.
<mgrwt>
<rscale>  0 0.14465398E+04</rscale>
<asrwt>0</asrwt>
<pdfrwt beam="1">  1        2 0.24907003E+00 0.14465398E+04</pdfrwt>
<pdfrwt beam="2">  1       -1 0.49711011E-01 0.14465398E+04</pdfrwt>
<totfact> 0.48809331E+01</totfact>
</mgrwt>
</event>
<event>
12    6  0.9533401E-008  0.1523324E+04  0.7818608E-02  0.8869089E-01
         -1   -1    0    0    0  501 -0.00000000000E+00  0.00000000000E+00  0.47305472331E+03  0.47305472331E+03  0.00000000000E+00 0.  1.
          2   -1    0    0  501    0  0.00000000000E+00 -0.00000000000E+00 -0.12263472756E+04  0.12263472756E+04  0.00000000000E+00 0. -1.
         24    2    1    2    0    0  0.14898086362E+03  0.44620136571E+03 -0.40288069672E+03  0.62469660308E+03  0.81498672507E+02 0.  0.
        254    2    1    2    0    0 -0.14898086362E+03 -0.44620136571E+03 -0.35041185554E+03  0.10747053958E+04  0.90050667003E+03 0.  0.
         23    2    4    4    0    0 -0.38440967687E+03 -0.34930901564E+03  0.11355122468E+03  0.53768464890E+03  0.80145573549E+02 0.  0.
         23    2    4    4    0    0  0.23542881325E+03 -0.96892350072E+02 -0.46396308022E+03  0.53702074690E+03  0.91184917534E+02 0.  0.
          4    1    3    3  502    0  0.11772077074E+03  0.36408126289E+03 -0.28234667733E+03  0.47553442783E+03  0.00000000000E+00 0. -1.
         -3    1    3    3    0  502  0.31260092878E+02  0.82120102815E+02 -0.12053401939E+03  0.14916217525E+03  0.00000000000E+00 0.  1.
         11    1    5    5    0    0 -0.36087037448E+03 -0.32797255435E+03  0.12584749488E+03  0.50361792616E+03  0.00000000000E+00 0.  1.
        -11    1    5    5    0    0 -0.23539302394E+02 -0.21336461289E+02 -0.12296270200E+02  0.34066722742E+02  0.00000000000E+00 0. -1.
          4    1    6    6  503    0  0.12472180230E+03 -0.41890031416E+01 -0.18965154970E+03  0.22702595891E+03  0.00000000000E+00 0. -1.
         -4    1    6    6    0  503  0.11070701095E+03 -0.92703346930E+02 -0.27431153052E+03  0.30999478799E+03  0.00000000000E+00 0.  1.
<mgrwt>
<rscale>  0 0.15233245E+04</rscale>
<asrwt>0</asrwt>
<pdfrwt beam="1">  1        2 0.18866881E+00 0.15233245E+04</pdfrwt>
<pdfrwt beam="2">  1       -1 0.72777651E-01 0.15233245E+04</pdfrwt>
<totfact> 0.38246995E+01</totfact>
</mgrwt>
</event>
<event>
12    6  0.9533401E-008  0.1749288E+04  0.7818608E-02  0.8733742E-01
          2   -1    0    0  501    0  0.00000000000E+00  0.00000000000E+00  0.18144190250E+04  0.18144190250E+04  0.00000000000E+00 0. -1.
         -1   -1    0    0    0  501 -0.00000000000E+00 -0.00000000000E+00 -0.42162362825E+03  0.42162362825E+03  0.00000000000E+00 0.  1.
         24    2    1    2    0    0  0.35526475954E+03 -0.40904240753E+03  0.76996150108E+02  0.55319863059E+03  0.81065265254E+02 0.  0.
        254    2    1    2    0    0 -0.35526475954E+03  0.40904240753E+03  0.13157992466E+04  0.16828440226E+04  0.89839167773E+03 0.  0.
         23    2    4    4    0    0 -0.28886520989E+03  0.41963822142E+03  0.14309220999E+04  0.15216234260E+04  0.90887007901E+02 0.  0.
         23    2    4    4    0    0 -0.66399549644E+02 -0.10595813885E+02 -0.11512285326E+03  0.16122059667E+03  0.90651188534E+02 0.  0.
          4    1    3    3  502    0  0.94763365002E+02 -0.12514852713E+03 -0.13035971096E+02  0.15751884247E+03  0.00000000000E+00 0. -1.
         -3    1    3    3    0  502  0.26050139454E+03 -0.28389388040E+03  0.90032121205E+02  0.39567978813E+03  0.00000000000E+00 0.  1.
         11    1    5    5    0    0 -0.14369193605E+03  0.20348144850E+03  0.83340797282E+03  0.86983959529E+03  0.00000000000E+00 0.  1.
        -11    1    5    5    0    0 -0.14517327384E+03  0.21615677292E+03  0.59751412705E+03  0.65178383068E+03  0.00000000000E+00 0. -1.
          4    1    6    6  503    0 -0.39143859924E+02  0.38230805166E+02 -0.41010591088E+02  0.68379125578E+02  0.00000000000E+00 0.  1.
         -4    1    6    6    0  503 -0.27255689721E+02 -0.48826619052E+02 -0.74112262168E+02  0.92841471088E+02  0.00000000000E+00 0. -1.
<mgrwt>
<rscale>  0 0.17492878E+04</rscale>
<asrwt>0</asrwt>
<pdfrwt beam="1">  1        2 0.27914139E+00 0.17492878E+04</pdfrwt>
<pdfrwt beam="2">  1       -1 0.64865174E-01 0.17492878E+04</pdfrwt>
<totfact> 0.22038562E+01</totfact>
</mgrwt>
</event>
<event>
12    6  0.9533401E-008  0.2067976E+04  0.7818608E-02  0.8575483E-01
         -1   -1    0    0    0  501 -0.00000000000E+00  0.00000000000E+00  0.75797631259E+03  0.75797631259E+03  0.00000000000E+00 0.  1.
          2   -1    0    0  501    0  0.00000000000E+00 -0.00000000000E+00 -0.14105071982E+04  0.14105071982E+04  0.00000000000E+00 0. -1.
         24    2    1    2    0    0 -0.61876044785E+03  0.37936566172E+03 -0.69352539456E+03  0.10069277741E+04  0.78379029566E+02 0.  0.
        254    2    1    2    0    0  0.61876044785E+03 -0.37936566172E+03  0.40994508973E+02  0.11615557366E+04  0.90595164466E+03 0.  0.
         23    2    4    4    0    0  0.48782921199E+03 -0.62436471190E+03  0.20863657291E+03  0.82430890335E+03  0.90262478643E+02 0.  0.
         23    2    4    4    0    0  0.13093123586E+03  0.24499905018E+03 -0.16764206393E+03  0.33724683330E+03  0.92000227489E+02 0.  0.
          4    1    3    3  502    0 -0.52667104948E+03  0.29455187445E+03 -0.55012709413E+03  0.81656782988E+03  0.00000000000E+00 0. -1.
         -3    1    3    3    0  502 -0.92089398363E+02  0.84813787267E+02 -0.14339830043E+03  0.19035994423E+03  0.00000000000E+00 0.  1.
         11    1    5    5    0    0  0.31081905750E+03 -0.46447643138E+03  0.14167442032E+03  0.57655744136E+03  0.00000000000E+00 0.  1.
        -11    1    5    5    0    0  0.17701015449E+03 -0.15988828052E+03  0.66962152588E+02  0.24775146199E+03  0.00000000000E+00 0. -1.
          3    1    6    6  503    0  0.52092960833E+02  0.74220282302E+02 -0.10558113114E+03  0.13917507725E+03  0.00000000000E+00 0. -1.
         -3    1    6    6    0  503  0.78838275024E+02  0.17077876788E+03 -0.62060932791E+02  0.19807175605E+03  0.00000000000E+00 0.  1.
<mgrwt>
<rscale>  0 0.20679759E+04</rscale>
<asrwt>0</asrwt>
<pdfrwt beam="1">  1        2 0.21700110E+00 0.20679759E+04</pdfrwt>
<pdfrwt beam="2">  1       -1 0.11661174E+00 0.20679759E+04</pdfrwt>
<totfact> 0.99746508E+00</totfact>
</mgrwt>
</event>
<event>
12    6  0.9533401E-008  0.1525558E+04  0.7818608E-02  0.8867633E-01
         -1   -1    0    0    0  501 -0.00000000000E+00  0.00000000000E+00  0.53422809330E+03  0.53422809330E+03  0.00000000000E+00 0.  1.
          2   -1    0    0  501    0  0.00000000000E+00 -0.00000000000E+00 -0.10891069197E+04  0.10891069197E+04  0.00000000000E+00 0. -1.
         24    2    1    2    0    0  0.37654010299E+03  0.24168613302E+03 -0.40171435047E+03  0.60658304825E+03  0.79836952613E+02 0.  0.
        254    2    1    2    0    0 -0.37654010299E+03 -0.24168613302E+03 -0.15316447598E+03  0.10167519648E+04  0.90007253328E+03 0.  0.
         23    2    4    4    0    0  0.60900066449E+02 -0.45141225948E+01  0.31097859248E+03  0.32989580353E+03  0.91620744431E+02 0.  0.
         23    2    4    4    0    0 -0.43744016944E+03 -0.23717201043E+03 -0.46414306846E+03  0.68685616126E+03  0.93477986155E+02 0.  0.
          4    1    3    3  502    0  0.29009206161E+03  0.15157662464E+03 -0.31726886339E+03  0.45583813906E+03  0.00000000000E+00 0. -1.
         -3    1    3    3    0  502  0.86448041379E+02  0.90109508386E+02 -0.84445487077E+02  0.15074490919E+03  0.00000000000E+00 0.  1.
         11    1    5    5    0    0  0.53517793922E+02 -0.18221709465E+02  0.30908400617E+03  0.31421188365E+03  0.00000000000E+00 0. -1.
        -11    1    5    5    0    0  0.73822725269E+01  0.13707586870E+02  0.18945863172E+01  0.15683919879E+02  0.00000000000E+00 0.  1.
          4    1    6    6  503    0 -0.19050409848E+03 -0.55888898220E+02 -0.15755296622E+03  0.25345279175E+03  0.00000000000E+00 0. -1.
         -4    1    6    6    0  503 -0.24693607096E+03 -0.18128311221E+03 -0.30659010224E+03  0.43340336951E+03  0.00000000000E+00 0.  1.
<mgrwt>
<rscale>  0 0.15255576E+04</rscale>
<asrwt>0</asrwt>
<pdfrwt beam="1">  1        2 0.16755491E+00 0.15255576E+04</pdfrwt>
<pdfrwt beam="2">  1       -1 0.82188937E-01 0.15255576E+04</pdfrwt>
<totfact> 0.35839730E+01</totfact>
</mgrwt>
</event>
<event>
12    6  0.9533401E-008  0.1352219E+04  0.7818608E-02  0.8989150E-01
          2   -1    0    0  501    0  0.00000000000E+00  0.00000000000E+00  0.20067974243E+04  0.20067974243E+04  0.00000000000E+00 0. -1.
         -1   -1    0    0    0  501 -0.00000000000E+00 -0.00000000000E+00 -0.22778800888E+03  0.22778800888E+03  0.00000000000E+00 0.  1.
         24    2    1    2    0    0  0.33680287777E+02 -0.16529724482E+02 -0.10073081466E+03  0.14377956441E+03  0.95489646255E+02 0.  0.
        254    2    1    2    0    0 -0.33680287777E+02  0.16529724482E+02  0.18797402301E+04  0.20908058688E+04  0.91467931796E+03 0.  0.
         23    2    4    4    0    0 -0.35105150721E+03 -0.12506152214E+03  0.34854341995E+03  0.51802613029E+03  0.89392455147E+02 0.  0.
         23    2    4    4    0    0  0.31737121943E+03  0.14159124663E+03  0.15311968102E+04  0.15727797385E+04  0.91103580312E+02 0.  0.
          4    1    3    3  502    0 -0.30055305844E+02 -0.21571267390E+02 -0.49804601863E+02  0.62041432551E+02  0.00000000000E+00 0. -1.
         -3    1    3    3    0  502  0.63735593621E+02  0.50415429076E+01 -0.50926212801E+02  0.81738131856E+02  0.00000000000E+00 0.  1.
         11    1    5    5    0    0 -0.16194455887E+03 -0.28142365236E+02  0.19939352589E+03  0.25841016047E+03  0.00000000000E+00 0. -1.
        -11    1    5    5    0    0 -0.18910694834E+03 -0.96919156908E+02  0.14914989406E+03  0.25961596981E+03  0.00000000000E+00 0.  1.
          1    1    6    6  503    0  0.17170146019E+03  0.87977305136E+02  0.65043874877E+03  0.67844820256E+03  0.00000000000E+00 0. -1.
         -1    1    6    6    0  503  0.14566975925E+03  0.53613941491E+02  0.88075806139E+03  0.89433153594E+03  0.00000000000E+00 0.  1.
<mgrwt>
<rscale>  0 0.13522195E+04</rscale>
<asrwt>0</asrwt>
<pdfrwt beam="1">  1        2 0.30873805E+00 0.13522195E+04</pdfrwt>
<pdfrwt beam="2">  1       -1 0.35044310E-01 0.13522195E+04</pdfrwt>
<totfact> 0.57090793E+01</totfact>
</mgrwt>
</event>
<event>
12    6  0.9533401E-008  0.2043663E+04  0.7818608E-02  0.8586474E-01
         -1   -1    0    0    0  501 -0.00000000000E+00  0.00000000000E+00  0.47313207703E+03  0.47313207703E+03  0.00000000000E+00 0.  1.
          2   -1    0    0  501    0  0.00000000000E+00 -0.00000000000E+00 -0.22068674521E+04  0.22068674521E+04  0.00000000000E+00 0. -1.
         24    2    1    2    0    0 -0.27881033416E+03  0.37713950453E+03  0.18641507543E+03  0.51002595899E+03  0.73528839114E+02 0.  0.
        254    2    1    2    0    0  0.27881033416E+03 -0.37713950453E+03 -0.19201504505E+04  0.21699735702E+04  0.89545414974E+03 0.  0.
         23    2    4    4    0    0  0.40300619749E+03  0.15400651427E+03 -0.10506134348E+04  0.11392286654E+04  0.89002027681E+02 0.  0.
         23    2    4    4    0    0 -0.12419586333E+03 -0.53114601880E+03 -0.86953701570E+03  0.10307449048E+04  0.93806883176E+02 0.  0.
          2    1    3    3  502    0 -0.14592823132E+02  0.46261077742E+02  0.30625442297E+01  0.48604701192E+02  0.00000000000E+00 0. -1.
         -1    1    3    3    0  502 -0.26421751103E+03  0.33087842679E+03  0.18335253120E+03  0.46142125779E+03  0.00000000000E+00 0.  1.
         11    1    5    5    0    0 -0.45299194829E+01  0.12011029326E+01 -0.18776093765E+02  0.19352119157E+02  0.00000000000E+00 0.  1.
        -11    1    5    5    0    0  0.40753611697E+03  0.15280541134E+03 -0.10318373410E+04  0.11198765462E+04  0.00000000000E+00 0. -1.
          2    1    6    6  503    0 -0.11296274682E+03 -0.39595280575E+03 -0.58329525930E+03  0.71398358949E+03  0.00000000000E+00 0. -1.
         -2    1    6    6    0  503 -0.11233116504E+02 -0.13519321306E+03 -0.28624175640E+03  0.31676131530E+03  0.00000000000E+00 0.  1.
<mgrwt>
<rscale>  0 0.20436632E+04</rscale>
<asrwt>0</asrwt>
<pdfrwt beam="1">  1        2 0.33951806E+00 0.20436632E+04</pdfrwt>
<pdfrwt beam="2">  1       -1 0.72789552E-01 0.20436632E+04</pdfrwt>
<totfact> 0.10264884E+01</totfact>
</mgrwt>
</event>
<event>
12    6  0.9533401E-008  0.2517597E+04  0.7818608E-02  0.8396743E-01
         -1   -1    0    0    0  501 -0.00000000000E+00  0.00000000000E+00  0.65967160229E+03  0.65967160229E+03  0.00000000000E+00 0.  1.
          2   -1    0    0  501    0  0.00000000000E+00 -0.00000000000E+00 -0.24020638109E+04  0.24020638109E+04  0.00000000000E+00 0. -1.
         24    2    1    2    0    0  0.48966473629E+03  0.93108830009E+03 -0.42597685277E+03  0.11378194774E+04  0.80497873160E+02 0.  0.
        254    2    1    2    0    0 -0.48966473629E+03 -0.93108830009E+03 -0.13164153558E+04  0.19239159357E+04  0.92833515621E+03 0.  0.
         23    2    4    4    0    0 -0.13354880408E+03 -0.43915963671E+03  0.34997631967E+01  0.46813726692E+03  0.91890057913E+02 0.  0.
         23    2    4    4    0    0 -0.35611593222E+03 -0.49192866337E+03 -0.13199151190E+04  0.14557786688E+04  0.91122138930E+02 0.  0.
          4    1    3    3  502    0  0.21022683140E+03  0.34922790123E+03 -0.19890063715E+03  0.45356026182E+03  0.00000000000E+00 0. -1.
         -3    1    3    3    0  502  0.27943790490E+03  0.58186039885E+03 -0.22707621562E+03  0.68425921561E+03  0.00000000000E+00 0.  1.
         11    1    5    5    0    0  0.69170107602E+01  0.65833521338E-02  0.13587699792E+01  0.70492082572E+01  0.00000000000E+00 0.  1.
        -11    1    5    5    0    0 -0.14046581484E+03 -0.43916622007E+03  0.21409932175E+01  0.46108805866E+03  0.00000000000E+00 0. -1.
          1    1    6    6  503    0 -0.35836255285E+03 -0.47642239179E+03 -0.13019028298E+04  0.14319053715E+04  0.00000000000E+00 0. -1.
         -1    1    6    6    0  503  0.22466206299E+01 -0.15506271578E+02 -0.18012289160E+02  0.23873297286E+02  0.00000000000E+00 0.  1.
<mgrwt>
<rscale>  0 0.25175967E+04</rscale>
<asrwt>0</asrwt>
<pdfrwt beam="1">  1        2 0.36954827E+00 0.25175967E+04</pdfrwt>
<pdfrwt beam="2">  1       -1 0.10148794E+00 0.25175967E+04</pdfrwt>
<totfact> 0.36991961E+00</totfact>
</mgrwt>
</event>
<event>
12    6  0.9533401E-008  0.1729710E+04  0.7818608E-02  0.8744599E-01
          2   -1    0    0  501    0  0.00000000000E+00  0.00000000000E+00  0.11803941980E+04  0.11803941980E+04  0.00000000000E+00 0. -1.
         -1   -1    0    0    0  501 -0.00000000000E+00 -0.00000000000E+00 -0.63366452703E+03  0.63366452703E+03  0.00000000000E+00 0.  1.
         24    2    1    2    0    0 -0.33578434705E+03 -0.52392035438E+03  0.17888841305E+03  0.65241125984E+03  0.79973259177E+02 0.  0.
        254    2    1    2    0    0  0.33578434705E+03  0.52392035438E+03  0.36784125796E+03  0.11616474652E+04  0.90932611145E+03 0.  0.
         23    2    4    4    0    0 -0.25328164527E+02 -0.14271118808E+03  0.35889009001E+03  0.39825063136E+03  0.93773501317E+02 0.  0.
         23    2    4    4    0    0  0.36111251158E+03  0.66663154246E+03  0.89511679444E+01  0.76339683387E+03  0.88852367060E+02 0.  0.
          2    1    3    3  502    0 -0.23886828829E+03 -0.35265149829E+03  0.84835804239E+02  0.43430202863E+03  0.00000000000E+00 0. -1.
         -1    1    3    3    0  502 -0.96916058764E+02 -0.17126885610E+03  0.94052608807E+02  0.21810923121E+03  0.00000000000E+00 0.  1.
         11    1    5    5    0    0 -0.37890597651E+02 -0.10662800024E+02  0.68597105709E+02  0.79088277300E+02  0.00000000000E+00 0.  1.
        -11    1    5    5    0    0  0.12562433124E+02 -0.13204838805E+03  0.29029298430E+03  0.31916235406E+03  0.00000000000E+00 0. -1.
          1    1    6    6  503    0  0.12345098514E+03  0.29047366191E+03 -0.28349127939E+02  0.31688920312E+03  0.00000000000E+00 0. -1.
         -1    1    6    6    0  503  0.23766152644E+03  0.37615788055E+03  0.37300295883E+02  0.44650763075E+03  0.00000000000E+00 0.  1.
<mgrwt>
<rscale>  0 0.17297097E+04</rscale>
<asrwt>0</asrwt>
<pdfrwt beam="1">  1        2 0.18159911E+00 0.17297097E+04</pdfrwt>
<pdfrwt beam="2">  1       -1 0.97486850E-01 0.17297097E+04</pdfrwt>
<totfact> 0.21282018E+01</totfact>
</mgrwt>
</event>
<event>
12    6  0.9533401E-008  0.2733309E+04  0.7818608E-02  0.8324278E-01
          2   -1    0    0  501    0  0.00000000000E+00  0.00000000000E+00  0.10914075563E+04  0.10914075563E+04  0.00000000000E+00 0. -1.
         -1   -1    0    0    0  501 -0.00000000000E+00 -0.00000000000E+00 -0.17113169655E+04  0.17113169655E+04  0.00000000000E+00 0.  1.
         24    2    1    2    0    0  0.12140753090E+04 -0.85704360985E+02 -0.30053620502E+03  0.12569479646E+04  0.90950985331E+02 0.  0.
        254    2    1    2    0    0 -0.12140753090E+04  0.85704360985E+02 -0.31937320425E+03  0.15457765572E+04  0.89783173690E+03 0.  0.
         23    2    4    4    0    0 -0.12711692503E+04  0.65727297771E+02 -0.76841036536E+02  0.12783360394E+04  0.89705875779E+02 0.  0.
         23    2    4    4    0    0  0.57093941285E+02  0.19977063214E+02 -0.24253216771E+03  0.26744051781E+03  0.95098774997E+02 0.  0.
          4    1    3    3  502    0  0.52138985444E+03 -0.50279944230E+02 -0.17368183729E+03  0.55185218466E+03  0.00000000000E+00 0. -1.
         -3    1    3    3    0  502  0.69268545458E+03 -0.35424416755E+02 -0.12685436772E+03  0.70509577995E+03  0.00000000000E+00 0.  1.
         11    1    5    5    0    0 -0.25075673707E+03  0.42310620613E+02  0.52852412599E+01  0.25435617464E+03  0.00000000000E+00 0.  1.
        -11    1    5    5    0    0 -0.10204125132E+04  0.23416677158E+02 -0.82126277796E+02  0.10239798648E+04  0.00000000000E+00 0. -1.
          3    1    6    6  503    0  0.79767487921E+02  0.31320524148E+02 -0.16594438046E+03  0.18676553421E+03  0.00000000000E+00 0. -1.
         -3    1    6    6    0  503 -0.22673546636E+02 -0.11343460934E+02 -0.76587787252E+02  0.80674983602E+02  0.00000000000E+00 0.  1.
<mgrwt>
<rscale>  0 0.27333088E+04</rscale>
<asrwt>0</asrwt>
<pdfrwt beam="1">  1        2 0.16790886E+00 0.27333088E+04</pdfrwt>
<pdfrwt beam="2">  1       -1 0.26327953E+00 0.27333088E+04</pdfrwt>
<totfact> 0.12562629E+00</totfact>
</mgrwt>
</event>
<event>
12    6  0.9533401E-008  0.1254186E+04  0.7818608E-02  0.9066706E-01
          2   -1    0    0  501    0  0.00000000000E+00  0.00000000000E+00  0.17460285631E+04  0.17460285631E+04  0.00000000000E+00 0. -1.
         -1   -1    0    0    0  501 -0.00000000000E+00 -0.00000000000E+00 -0.22522296588E+03  0.22522296588E+03  0.00000000000E+00 0.  1.
         24    2    1    2    0    0  0.18622011387E+03  0.13691052777E+03  0.14916271630E+03  0.28657053296E+03  0.80316442929E+02 0.  0.
        254    2    1    2    0    0 -0.18622011387E+03 -0.13691052777E+03  0.13716428809E+04  0.16846809960E+04  0.95043329178E+03 0.  0.
         23    2    4    4    0    0  0.14649877768E+02 -0.42085719233E+03  0.23040106754E+03  0.48828607830E+03  0.89460869011E+02 0.  0.
         23    2    4    4    0    0 -0.20086999164E+03  0.28394666456E+03  0.11412418134E+04  0.11963949177E+04  0.89182176804E+02 0.  0.
          4    1    3    3  502    0  0.85081473170E+02  0.15380614673E+02  0.57045972330E+02  0.10358408827E+03  0.00000000000E+00 0. -1.
         -3    1    3    3    0  502  0.10113864070E+03  0.12152991310E+03  0.92116743967E+02  0.18298644469E+03  0.00000000000E+00 0.  1.
         11    1    5    5    0    0  0.71654129270E+00  0.93906717610E+00  0.13930620648E+02  0.13980610510E+02  0.00000000000E+00 0.  1.
        -11    1    5    5    0    0  0.13933336476E+02 -0.42179625951E+03  0.21647044689E+03  0.47430546779E+03  0.00000000000E+00 0. -1.
          1    1    6    6  503    0 -0.10018439739E+03  0.14652158184E+03  0.72985400692E+03  0.75112739188E+03  0.00000000000E+00 0. -1.
         -1    1    6    6    0  503 -0.10068559425E+03  0.13742508272E+03  0.41138780649E+03  0.44526752585E+03  0.00000000000E+00 0.  1.
<mgrwt>
<rscale>  0 0.12541862E+04</rscale>
<asrwt>0</asrwt>
<pdfrwt beam="1">  1        2 0.26861977E+00 0.12541862E+04</pdfrwt>
<pdfrwt beam="2">  1       -1 0.34649688E-01 0.12541862E+04</pdfrwt>
<totfact> 0.81825201E+01</totfact>
</mgrwt>
</event>
<event>
12    6  0.9533401E-008  0.2656852E+04  0.7818608E-02  0.8349142E-01
          2   -1    0    0  501    0  0.00000000000E+00  0.00000000000E+00  0.20705656602E+04  0.20705656602E+04  0.00000000000E+00 0. -1.
         -1   -1    0    0    0  501 -0.00000000000E+00 -0.00000000000E+00 -0.85228676028E+03  0.85228676028E+03  0.00000000000E+00 0.  1.
         24    2    1    2    0    0 -0.10893843071E+03  0.11520675582E+04  0.69450085770E+03  0.13519218158E+04  0.78955141093E+02 0.  0.
        254    2    1    2    0    0  0.10893843071E+03 -0.11520675582E+04  0.52377804223E+03  0.15709306047E+04  0.92431179102E+03 0.  0.
         23    2    4    4    0    0 -0.37397170793E+03 -0.73213649424E+03  0.21768940286E+03  0.85552973936E+03  0.93079397768E+02 0.  0.
         23    2    4    4    0    0  0.48291013864E+03 -0.41993106394E+03  0.30608863937E+03  0.71540086535E+03  0.92541031612E+02 0.  0.
          4    1    3    3  502    0 -0.78428322850E+02  0.10600286930E+04  0.63514217572E+03  0.12382315677E+04  0.00000000000E+00 0. -1.
         -3    1    3    3    0  502 -0.30510107855E+02  0.92038865194E+02  0.59358681981E+02  0.11369024810E+03  0.00000000000E+00 0.  1.
         11    1    5    5    0    0 -0.21360084256E+03 -0.33053005343E+03  0.79012460201E+02  0.40139557176E+03  0.00000000000E+00 0. -1.
        -11    1    5    5    0    0 -0.16037086538E+03 -0.40160644081E+03  0.13867694266E+03  0.45413416761E+03  0.00000000000E+00 0.  1.
          3    1    6    6  503    0  0.40679417648E+03 -0.38361267304E+03  0.24100239683E+03  0.60886972352E+03  0.00000000000E+00 0. -1.
         -3    1    6    6    0  503  0.76115962155E+02 -0.36318390896E+02  0.65086242537E+02  0.10653114183E+03  0.00000000000E+00 0.  1.
<mgrwt>
<rscale>  0 0.26568520E+04</rscale>
<asrwt>0</asrwt>
<pdfrwt beam="1">  1        2 0.31854856E+00 0.26568520E+04</pdfrwt>
<pdfrwt beam="2">  1       -1 0.13112104E+00 0.26568520E+04</pdfrwt>
<totfact> 0.30328598E+00</totfact>
</mgrwt>
</event>
<event>
12    6  0.9533401E-008  0.2036623E+04  0.7818608E-02  0.8589687E-01
          2   -1    0    0  501    0  0.00000000000E+00  0.00000000000E+00  0.13678617514E+04  0.13678617514E+04  0.00000000000E+00 0. -1.
         -1   -1    0    0    0  501 -0.00000000000E+00 -0.00000000000E+00 -0.75808672030E+03  0.75808672030E+03  0.00000000000E+00 0.  1.
         24    2    1    2    0    0  0.20046453875E+03  0.66504287995E+03 -0.19785991273E+03  0.72656425285E+03  0.79240172809E+02 0.  0.
        254    2    1    2    0    0 -0.20046453875E+03 -0.66504287995E+03  0.80763494385E+03  0.13993842189E+04  0.90748770020E+03 0.  0.
         23    2    4    4    0    0  0.21394475489E+03 -0.67606803669E+03  0.55703848160E+03  0.90660767387E+03  0.93836325425E+02 0.  0.
         23    2    4    4    0    0 -0.41440929364E+03  0.11025156741E+02  0.25059646225E+03  0.49277654499E+03  0.90407519974E+02 0.  0.
          4    1    3    3  502    0  0.68192556809E+02  0.25582897327E+03 -0.11469239312E+03  0.28853601752E+03  0.00000000000E+00 0. -1.
         -3    1    3    3    0  502  0.13227198194E+03  0.40921390668E+03 -0.83167519614E+02  0.43802823533E+03  0.00000000000E+00 0.  1.
         11    1    5    5    0    0  0.13357901708E+03 -0.43532390828E+03  0.29949380700E+03  0.54501999904E+03  0.00000000000E+00 0. -1.
        -11    1    5    5    0    0  0.80365737806E+02 -0.24074412841E+03  0.25754467460E+03  0.36158767484E+03  0.00000000000E+00 0.  1.
          3    1    6    6  503    0 -0.36122123393E+03  0.40021900266E+02  0.22104247804E+03  0.42537314142E+03  0.00000000000E+00 0. -1.
         -3    1    6    6    0  503 -0.53188059706E+02 -0.28996743525E+02  0.29553984209E+02  0.67403403571E+02  0.00000000000E+00 0.  1.
<mgrwt>
<rscale>  0 0.20366225E+04</rscale>
<asrwt>0</asrwt>
<pdfrwt beam="1">  1        2 0.21044027E+00 0.20366225E+04</pdfrwt>
<pdfrwt beam="2">  1       -1 0.11662873E+00 0.20366225E+04</pdfrwt>
<totfact> 0.10577615E+01</totfact>
</mgrwt>
</event>
<event>
12    6  0.9533401E-008  0.1179160E+04  0.7818608E-02  0.9131296E-01
         -1   -1    0    0    0  501 -0.00000000000E+00  0.00000000000E+00  0.13595691290E+03  0.13595691290E+03  0.00000000000E+00 0.  1.
          2   -1    0    0  501    0  0.00000000000E+00 -0.00000000000E+00 -0.25567267634E+04  0.25567267634E+04  0.00000000000E+00 0. -1.
         24    2    1    2    0    0  0.13621879020E+03 -0.10611980919E+03 -0.87684427281E+03  0.89716780639E+03  0.78976080955E+02 0.  0.
        254    2    1    2    0    0 -0.13621879020E+03  0.10611980919E+03 -0.15439255777E+04  0.17955158699E+04  0.90019668791E+03 0.  0.
         23    2    4    4    0    0 -0.25004175057E+03 -0.19165383745E+03 -0.13914160833E+04  0.14301040922E+04  0.99533548361E+02 0.  0.
         23    2    4    4    0    0  0.11382296037E+03  0.29777364664E+03 -0.15250949431E+03  0.36541177763E+03  0.92961338373E+02 0.  0.
          4    1    3    3  502    0  0.10878438537E+03 -0.67767042581E+02 -0.45533005874E+03  0.47302418221E+03  0.00000000000E+00 0. -1.
         -3    1    3    3    0  502  0.27434404830E+02 -0.38352766610E+02 -0.42151421406E+03  0.42414362418E+03  0.00000000000E+00 0.  1.
         11    1    5    5    0    0 -0.11878622506E+03 -0.13935732024E+03 -0.91661138022E+03  0.93472298160E+03  0.00000000000E+00 0. -1.
        -11    1    5    5    0    0 -0.13125552551E+03 -0.52296517207E+02 -0.47480470312E+03  0.49538111065E+03  0.00000000000E+00 0.  1.
          2    1    6    6  503    0  0.84792343635E+02  0.28075080241E+03 -0.11499711134E+03  0.31501601580E+03  0.00000000000E+00 0. -1.
         -2    1    6    6    0  503  0.29030616734E+02  0.17022844226E+02 -0.37512382975E+02  0.50395761825E+02  0.00000000000E+00 0.  1.
<mgrwt>
<rscale>  0 0.11791602E+04</rscale>
<asrwt>0</asrwt>
<pdfrwt beam="1">  1        2 0.39334252E+00 0.11791602E+04</pdfrwt>
<pdfrwt beam="2">  1       -1 0.20916451E-01 0.11791602E+04</pdfrwt>
<totfact> 0.69410306E+01</totfact>
</mgrwt>
</event>
<event>
12    6  0.9533401E-008  0.1710927E+04  0.7818608E-02  0.8755157E-01
         -1   -1    0    0    0  501 -0.00000000000E+00  0.00000000000E+00  0.38058442289E+03  0.38058442289E+03  0.00000000000E+00 0.  1.
          2   -1    0    0  501    0  0.00000000000E+00 -0.00000000000E+00 -0.19228779335E+04  0.19228779335E+04  0.00000000000E+00 0. -1.
         24    2    1    2    0    0  0.21399435366E+03  0.57357270501E+03 -0.62057951839E+03  0.87534982898E+03  0.79618798791E+02 0.  0.
        254    2    1    2    0    0 -0.21399435366E+03 -0.57357270501E+03 -0.92171399220E+03  0.14281125274E+04  0.90286736352E+03 0.  0.
         23    2    4    4    0    0 -0.19175505293E+02 -0.36737861708E+03  0.76020144968E+02  0.38683392326E+03  0.92339988384E+02 0.  0.
         23    2    4    4    0    0 -0.19481884837E+03 -0.20619408793E+03 -0.99773413716E+03  0.10412786041E+04  0.91199437193E+02 0.  0.
          4    1    3    3  502    0  0.96556667962E+02  0.22627929895E+03 -0.30309947927E+03  0.39037777293E+03  0.00000000000E+00 0. -1.
         -3    1    3    3    0  502  0.11743768570E+03  0.34729340606E+03 -0.31748003912E+03  0.48497205606E+03  0.00000000000E+00 0.  1.
         11    1    5    5    0    0 -0.47012298851E+02 -0.29412975212E+03  0.79849988951E+02  0.30838042750E+03  0.00000000000E+00 0. -1.
        -11    1    5    5    0    0  0.27836793557E+02 -0.73248864960E+02 -0.38298439830E+01  0.78453495769E+02  0.00000000000E+00 0.  1.
          4    1    6    6  503    0 -0.44447465611E+02 -0.11017298013E+03 -0.36296317841E+03  0.38191089489E+03  0.00000000000E+00 0. -1.
         -4    1    6    6    0  503 -0.15037138276E+03 -0.96021107800E+02 -0.63477095875E+03  0.65936770922E+03  0.00000000000E+00 0.  1.
<mgrwt>
<rscale>  0 0.17109265E+04</rscale>
<asrwt>0</asrwt>
<pdfrwt beam="1">  1        2 0.29582738E+00 0.17109265E+04</pdfrwt>
<pdfrwt beam="2">  1       -1 0.58551448E-01 0.17109265E+04</pdfrwt>
<totfact> 0.23605865E+01</totfact>
</mgrwt>
</event>
<event>
12    6  0.9533401E-008  0.1639442E+04  0.7818608E-02  0.8796677E-01
          2   -1    0    0  501    0  0.00000000000E+00  0.00000000000E+00  0.24126942932E+04  0.24126942932E+04  0.00000000000E+00 0. -1.
         -1   -1    0    0    0  501 -0.00000000000E+00 -0.00000000000E+00 -0.27850312422E+03  0.27850312422E+03  0.00000000000E+00 0.  1.
         24    2    1    2    0    0  0.22927038940E+03 -0.48759979821E+03  0.46522896435E+03  0.71655563770E+03  0.81826144798E+02 0.  0.
        254    2    1    2    0    0 -0.22927038940E+03  0.48759979821E+03  0.16689622046E+04  0.19746417797E+04  0.90744522868E+03 0.  0.
         23    2    4    4    0    0 -0.96963567044E+02 -0.25915556452E+03  0.46623937872E+03  0.54995168174E+03  0.92217970218E+02 0.  0.
         23    2    4    4    0    0 -0.13230682236E+03  0.74675536273E+03  0.12027228259E+04  0.14246900980E+04  0.89727433270E+02 0.  0.
          4    1    3    3  502    0 -0.65789684829E+01 -0.20049211737E+02  0.22136396202E+02  0.30582245738E+02  0.00000000000E+00 0. -1.
         -3    1    3    3    0  502  0.23584935788E+03 -0.46755058647E+03  0.44309256815E+03  0.68597339196E+03  0.00000000000E+00 0.  1.
         11    1    5    5    0    0 -0.38358849700E+02 -0.13193527165E+03  0.31582630943E+03  0.34441918498E+03  0.00000000000E+00 0.  1.
        -11    1    5    5    0    0 -0.58604717344E+02 -0.12722029287E+03  0.15041306929E+03  0.20553249676E+03  0.00000000000E+00 0. -1.
          1    1    6    6  503    0 -0.54513116046E+02  0.15418927561E+03  0.30784501236E+03  0.34858939193E+03  0.00000000000E+00 0. -1.
         -1    1    6    6    0  503 -0.77793706313E+02  0.59256608712E+03  0.89487781355E+03  0.10761007060E+04  0.00000000000E+00 0.  1.
<mgrwt>
<rscale>  0 0.16394425E+04</rscale>
<asrwt>0</asrwt>
<pdfrwt beam="1">  1        2 0.37118372E+00 0.16394425E+04</pdfrwt>
<pdfrwt beam="2">  1       -1 0.42846636E-01 0.16394425E+04</pdfrwt>
<totfact> 0.22872105E+01</totfact>
</mgrwt>
</event>
<event>
12    6  0.9533401E-008  0.1894272E+04  0.7818608E-02  0.8657713E-01
          2   -1    0    0  501    0  0.00000000000E+00  0.00000000000E+00  0.28741151382E+04  0.28741151382E+04  0.00000000000E+00 0. -1.
         -1   -1    0    0    0  501 -0.00000000000E+00 -0.00000000000E+00 -0.31211924893E+03  0.31211924893E+03  0.00000000000E+00 0.  1.
         24    2    1    2    0    0 -0.27609744715E+03  0.53506907639E+03  0.29618550374E+03  0.67571118773E+03  0.79567831203E+02 0.  0.
        254    2    1    2    0    0  0.27609744715E+03 -0.53506907639E+03  0.22658103856E+04  0.25105231994E+04  0.89794282375E+03 0.  0.
         23    2    4    4    0    0  0.40006550305E+03 -0.50812214354E+03  0.22617248394E+04  0.23544206759E+04  0.98269782966E+02 0.  0.
         23    2    4    4    0    0 -0.12396805590E+03 -0.26946932853E+02  0.40855461482E+01  0.15610252356E+03  0.90868531964E+02 0.  0.
          4    1    3    3  502    0 -0.12166194365E+03  0.19206726811E+03  0.14869237361E+03  0.27166318481E+03  0.00000000000E+00 0. -1.
         -3    1    3    3    0  502 -0.15443550349E+03  0.34300180829E+03  0.14749313013E+03  0.40404800292E+03  0.00000000000E+00 0.  1.
         11    1    5    5    0    0  0.48844602581E+02 -0.20845374277E+02  0.16313421420E+03  0.17156076671E+03  0.00000000000E+00 0.  1.
        -11    1    5    5    0    0  0.35122090047E+03 -0.48727676926E+03  0.20985906252E+04  0.21828599092E+04  0.00000000000E+00 0. -1.
          1    1    6    6  503    0 -0.12501871320E+03  0.16952648832E+00  0.16786085710E+02  0.12614071532E+03  0.00000000000E+00 0. -1.
         -1    1    6    6    0  503  0.10506572937E+01 -0.27116459341E+02 -0.12700539562E+02  0.29961808242E+02  0.00000000000E+00 0.  1.
<mgrwt>
<rscale>  0 0.18942721E+04</rscale>
<asrwt>0</asrwt>
<pdfrwt beam="1">  1        2 0.44217154E+00 0.18942721E+04</pdfrwt>
<pdfrwt beam="2">  1       -1 0.48018348E-01 0.18942721E+04</pdfrwt>
<totfact> 0.96582542E+00</totfact>
</mgrwt>
</event>
<event>
12    6  0.9533401E-008  0.1440293E+04  0.7818608E-02  0.8925158E-01
         -1   -1    0    0    0  501 -0.00000000000E+00  0.00000000000E+00  0.11075640914E+04  0.11075640914E+04  0.00000000000E+00 0.  1.
          2   -1    0    0  501    0  0.00000000000E+00 -0.00000000000E+00 -0.46824453000E+03  0.46824453000E+03  0.00000000000E+00 0. -1.
         24    2    1    2    0    0 -0.91953818453E+02  0.22956961202E+03  0.58601208291E+03  0.64092118288E+03  0.78816811982E+02 0.  0.
        254    2    1    2    0    0  0.91953818453E+02 -0.22956961202E+03  0.53307478477E+02  0.93488743851E+03  0.90000840214E+03 0.  0.
         23    2    4    4    0    0 -0.42371440244E+02  0.31789844216E+03 -0.90280692109E+02  0.34596080633E+03  0.93185394123E+02 0.  0.
         23    2    4    4    0    0  0.13432525870E+03 -0.54746805418E+03  0.14358817059E+03  0.58892663218E+03  0.91937314953E+02 0.  0.
          2    1    3    3  502    0  0.50544315012E+01  0.55030111009E+02  0.18281945013E+03  0.19098903566E+03  0.00000000000E+00 0. -1.
         -1    1    3    3    0  502 -0.97008249954E+02  0.17453950102E+03  0.40319263278E+03  0.44993214722E+03  0.00000000000E+00 0.  1.
         11    1    5    5    0    0  0.13315066123E+02  0.37845239485E+02  0.13226053787E+02  0.42243125315E+02  0.00000000000E+00 0. -1.
        -11    1    5    5    0    0 -0.55686506368E+02  0.28005320267E+03 -0.10350674590E+03  0.30371768102E+03  0.00000000000E+00 0.  1.
          2    1    6    6  503    0 -0.70895325658E+01 -0.12053004300E+03  0.42112226990E+02  0.12787178110E+03  0.00000000000E+00 0. -1.
         -2    1    6    6    0  503  0.14141479126E+03 -0.42693801118E+03  0.10147594360E+03  0.46105485108E+03  0.00000000000E+00 0.  1.
<mgrwt>
<rscale>  0 0.14402928E+04</rscale>
<asrwt>0</asrwt>
<pdfrwt beam="1">  1        2 0.72037620E-01 0.14402928E+04</pdfrwt>
<pdfrwt beam="2">  1       -1 0.17039448E+00 0.14402928E+04</pdfrwt>
<totfact> 0.18022624E+01</totfact>
</mgrwt>
</event>
<event>
12    6  0.9533401E-008  0.1359012E+04  0.7818608E-02  0.8984034E-01
          2   -1    0    0  501    0  0.00000000000E+00  0.00000000000E+00  0.19373831186E+04  0.19373831186E+04  0.00000000000E+00 0. -1.
         -1   -1    0    0    0  501 -0.00000000000E+00 -0.00000000000E+00 -0.23832567893E+03  0.23832567893E+03  0.00000000000E+00 0.  1.
         24    2    1    2    0    0  0.19210679318E+03  0.28497236662E+03  0.22902745783E+03  0.42034838571E+03  0.78261863039E+02 0.  0.
        254    2    1    2    0    0 -0.19210679318E+03 -0.28497236662E+03  0.14700299819E+04  0.17553604119E+04  0.89564935001E+03 0.  0.
         23    2    4    4    0    0  0.13728474148E+03  0.25592326438E+03  0.33399379323E+03  0.45187353957E+03  0.91071534297E+02 0.  0.
         23    2    4    4    0    0 -0.32939153466E+03 -0.54089563100E+03  0.11360361886E+04  0.13034868723E+04  0.86214485744E+02 0.  0.
          4    1    3    3  502    0  0.44719239436E+02  0.23345943438E+02  0.19017921027E+02  0.53912195012E+02  0.00000000000E+00 0. -1.
         -3    1    3    3    0  502  0.14738755374E+03  0.26162642318E+03  0.21000953681E+03  0.36643619070E+03  0.00000000000E+00 0.  1.
         11    1    5    5    0    0  0.83050908230E+01  0.89866233721E+02  0.69052568628E+02  0.11363613743E+03  0.00000000000E+00 0.  1.
        -11    1    5    5    0    0  0.12897965066E+03  0.16605703066E+03  0.26494122460E+03  0.33823740214E+03  0.00000000000E+00 0. -1.
          2    1    6    6  503    0 -0.78875265660E+01 -0.36271204637E+02  0.38698593939E+02  0.53622705396E+02  0.00000000000E+00 0.  1.
         -2    1    6    6    0  503 -0.32150400809E+03 -0.50462442637E+03  0.10973375947E+04  0.12498641669E+04  0.00000000000E+00 0. -1.
<mgrwt>
<rscale>  0 0.13590116E+04</rscale>
<asrwt>0</asrwt>
<pdfrwt beam="1">  1        2 0.29805893E+00 0.13590116E+04</pdfrwt>
<pdfrwt beam="2">  1       -1 0.36665490E-01 0.13590116E+04</pdfrwt>
<totfact> 0.57473406E+01</totfact>
</mgrwt>
</event>
<event>
12    6  0.9533401E-008  0.1831165E+04  0.7818608E-02  0.8689900E-01
         -1   -1    0    0    0  501 -0.00000000000E+00  0.00000000000E+00  0.34723863175E+03  0.34723863175E+03  0.00000000000E+00 0.  1.
          2   -1    0    0  501    0  0.00000000000E+00 -0.00000000000E+00 -0.24141641060E+04  0.24141641060E+04  0.00000000000E+00 0. -1.
         24    2    1    2    0    0 -0.10311176055E+03 -0.29959044711E+03  0.14784771504E+03  0.35842558555E+03  0.78889051029E+02 0.  0.
        254    2    1    2    0    0  0.10311176055E+03  0.29959044711E+03 -0.22147731893E+04  0.24029771522E+04  0.87675107234E+03 0.  0.
         23    2    4    4    0    0  0.20260025894E+02 -0.18892215851E+03 -0.10779348277E+03  0.23653502962E+03  0.90704656357E+02 0.  0.
         23    2    4    4    0    0  0.82851734660E+02  0.48851260562E+03 -0.21069797066E+04  0.21664421226E+04  0.92730852477E+02 0.  0.
          4    1    3    3  502    0 -0.85573425520E+01  0.15752042796E+01 -0.21149018283E+01  0.89544508385E+01  0.00000000000E+00 0. -1.
         -3    1    3    3    0  502 -0.94554418002E+02 -0.30116565139E+03  0.14996261687E+03  0.34947113471E+03  0.00000000000E+00 0.  1.
         11    1    5    5    0    0  0.26965970884E+02 -0.51855797833E+02 -0.75635455030E+02  0.95587182259E+02  0.00000000000E+00 0. -1.
        -11    1    5    5    0    0 -0.67059449899E+01 -0.13706636068E+03 -0.32158027735E+02  0.14094784736E+03  0.00000000000E+00 0.  1.
          3    1    6    6  503    0  0.59569736548E+02  0.30415131264E+03 -0.11184259995E+04  0.11605745520E+04  0.00000000000E+00 0. -1.
         -3    1    6    6    0  503  0.23281998111E+02  0.18436129298E+03 -0.98855370709E+03  0.10058675706E+04  0.00000000000E+00 0.  1.
<mgrwt>
<rscale>  0 0.18311647E+04</rscale>
<asrwt>0</asrwt>
<pdfrwt beam="1">  1        2 0.37140987E+00 0.18311647E+04</pdfrwt>
<pdfrwt beam="2">  1       -1 0.53421327E-01 0.18311647E+04</pdfrwt>
<totfact> 0.14800602E+01</totfact>
</mgrwt>
</event>
<event>
12    6  0.9533401E-008  0.2025062E+04  0.7818608E-02  0.8594992E-01
          2   -1    0    0  501    0  0.00000000000E+00  0.00000000000E+00  0.21853785277E+04  0.21853785277E+04  0.00000000000E+00 0. -1.
         -1   -1    0    0    0  501 -0.00000000000E+00 -0.00000000000E+00 -0.46912669144E+03  0.46912669144E+03  0.00000000000E+00 0.  1.
         24    2    1    2    0    0  0.32069165024E+03  0.12399021048E+03  0.16526062280E+04  0.16898772523E+04  0.79756353190E+02 0.  0.
        254    2    1    2    0    0 -0.32069165024E+03 -0.12399021048E+03  0.63645608226E+02  0.96462796691E+03  0.89902149266E+03 0.  0.
         23    2    4    4    0    0 -0.10404490580E+03  0.37985684506E+03  0.67011526251E+01  0.40568760375E+03  0.97061636246E+02 0.  0.
         23    2    4    4    0    0 -0.21664674444E+03 -0.50384705554E+03  0.56944455601E+02  0.55894036315E+03  0.91509514721E+02 0.  0.
          4    1    3    3  502    0  0.26934668964E+03  0.13369107786E+03  0.14097930116E+04  0.14415052130E+04  0.00000000000E+00 0. -1.
         -1    1    3    3    0  502  0.51344960606E+02 -0.97008673750E+01  0.24281321642E+03  0.24837203923E+03  0.00000000000E+00 0.  1.
         11    1    5    5    0    0 -0.51035457599E+00  0.10805305317E+03 -0.30965435416E+02  0.11240365186E+03  0.00000000000E+00 0. -1.
        -11    1    5    5    0    0 -0.10353455123E+03  0.27180379189E+03  0.37666588041E+02  0.29328395190E+03  0.00000000000E+00 0.  1.
          4    1    6    6  503    0 -0.11461321106E+03 -0.16885104636E+03  0.42489531217E+02  0.20845197114E+03  0.00000000000E+00 0. -1.
         -4    1    6    6    0  503 -0.10203353338E+03 -0.33499600918E+03  0.14454924384E+02  0.35048839202E+03  0.00000000000E+00 0.  1.
<mgrwt>
<rscale>  0 0.20250624E+04</rscale>
<asrwt>0</asrwt>
<pdfrwt beam="1">  1        2 0.33621207E+00 0.20250624E+04</pdfrwt>
<pdfrwt beam="2">  1       -1 0.72173339E-01 0.20250624E+04</pdfrwt>
<totfact> 0.10759308E+01</totfact>
</mgrwt>
</event>
<event>
12    6  0.9533401E-008  0.1375855E+04  0.7818608E-02  0.8971484E-01
          2   -1    0    0  501    0  0.00000000000E+00  0.00000000000E+00  0.63297080853E+03  0.63297080853E+03  0.00000000000E+00 0. -1.
         -1   -1    0    0    0  501 -0.00000000000E+00 -0.00000000000E+00 -0.74765592630E+03  0.74765592630E+03  0.00000000000E+00 0.  1.
         24    2    1    2    0    0  0.16816324824E+03 -0.27557441658E+03 -0.25164341887E+03  0.41684682507E+03  0.78846231245E+02 0.  0.
        254    2    1    2    0    0 -0.16816324824E+03  0.27557441658E+03  0.13695830111E+03  0.96377990976E+03  0.89771599133E+03 0.  0.
         23    2    4    4    0    0  0.30007016721E+02  0.57260911081E+03  0.30939053881E+02  0.58067518204E+03  0.86283411772E+02 0.  0.
         23    2    4    4    0    0 -0.19817026496E+03 -0.29703469424E+03  0.10601924722E+03  0.38310472772E+03  0.89599598907E+02 0.  0.
          2    1    3    3  502    0  0.32194064032E+02 -0.36879929972E+02 -0.78856672103E+01  0.49585993395E+02  0.00000000000E+00 0. -1.
         -1    1    3    3    0  502  0.13596918421E+03 -0.23869448660E+03 -0.24375775166E+03  0.36726083167E+03  0.00000000000E+00 0.  1.
         11    1    5    5    0    0  0.60572353380E+02  0.37008309259E+03  0.22509572029E+02  0.37568229430E+03  0.00000000000E+00 0. -1.
        -11    1    5    5    0    0 -0.30565336659E+02  0.20252601822E+03  0.84294818512E+01  0.20499288774E+03  0.00000000000E+00 0.  1.
          1    1    6    6  503    0 -0.14846554168E+03 -0.16947837687E+03  0.98785700063E+02  0.24601534877E+03  0.00000000000E+00 0. -1.
         -1    1    6    6    0  503 -0.49704723280E+02 -0.12755631737E+03  0.72335471612E+01  0.13708937895E+03  0.00000000000E+00 0.  1.
<mgrwt>
<rscale>  0 0.13758552E+04</rscale>
<asrwt>0</asrwt>
<pdfrwt beam="1">  1        2 0.97380125E-01 0.13758552E+04</pdfrwt>
<pdfrwt beam="2">  1       -1 0.11502399E+00 0.13758552E+04</pdfrwt>
<totfact> 0.35523298E+01</totfact>
</mgrwt>
</event>
<event>
12    6  0.9533401E-008  0.1308096E+04  0.7818608E-02  0.9023169E-01
         -1   -1    0    0    0  501 -0.00000000000E+00  0.00000000000E+00  0.21577765444E+03  0.21577765444E+03  0.00000000000E+00 0.  1.
          2   -1    0    0  501    0  0.00000000000E+00 -0.00000000000E+00 -0.19824982420E+04  0.19824982420E+04  0.00000000000E+00 0. -1.
         24    2    1    2    0    0 -0.12585723459E+03 -0.24846668123E+03 -0.77811665095E+03  0.83040665380E+03  0.80832870904E+02 0.  0.
        254    2    1    2    0    0  0.12585723459E+03  0.24846668123E+03 -0.98860393662E+03  0.13678692426E+04  0.90341174792E+03 0.  0.
         23    2    4    4    0    0 -0.14766703215E+03  0.51384382922E+03 -0.68398394101E+03  0.87284559427E+03  0.90467489581E+02 0.  0.
         23    2    4    4    0    0  0.27352426673E+03 -0.26537714800E+03 -0.30461999561E+03  0.49502364837E+03  0.83752704714E+02 0.  0.
          2    1    3    3  502    0 -0.98004939156E+02 -0.15632121530E+03 -0.40455652147E+03  0.44464285614E+03  0.00000000000E+00 0. -1.
         -1    1    3    3    0  502 -0.27852295432E+02 -0.92145465925E+02 -0.37356012947E+03  0.38576379766E+03  0.00000000000E+00 0.  1.
         11    1    5    5    0    0 -0.15743315638E+03  0.43252848158E+03 -0.58495875583E+03  0.74434053506E+03  0.00000000000E+00 0. -1.
        -11    1    5    5    0    0  0.97661242321E+01  0.81315347640E+02 -0.99025185176E+02  0.12850505921E+03  0.00000000000E+00 0.  1.
          1    1    6    6  503    0  0.18509669564E+03 -0.12654083306E+03 -0.15497213877E+03  0.27256142970E+03  0.00000000000E+00 0. -1.
         -1    1    6    6    0  503  0.88427571092E+02 -0.13883631494E+03 -0.14964785685E+03  0.22246221866E+03  0.00000000000E+00 0.  1.
<mgrwt>
<rscale>  0 0.13080961E+04</rscale>
<asrwt>0</asrwt>
<pdfrwt beam="1">  1        2 0.30499973E+00 0.13080961E+04</pdfrwt>
<pdfrwt beam="2">  1       -1 0.33196562E-01 0.13080961E+04</pdfrwt>
<totfact> 0.65090397E+01</totfact>
</mgrwt>
</event>
<event>
12    6  0.9533401E-008  0.1338200E+04  0.7818608E-02  0.8999809E-01
          2   -1    0    0  501    0  0.00000000000E+00  0.00000000000E+00  0.31657853491E+04  0.31657853491E+04  0.00000000000E+00 0. -1.
         -1   -1    0    0    0  501 -0.00000000000E+00 -0.00000000000E+00 -0.14141676069E+03  0.14141676069E+03  0.00000000000E+00 0.  1.
         24    2    1    2    0    0 -0.32374281724E+03  0.10683708828E+03  0.56603874302E+03  0.66533251042E+03  0.77742624502E+02 0.  0.
        254    2    1    2    0    0  0.32374281724E+03 -0.10683708828E+03  0.24583298454E+04  0.26418695994E+04  0.90546439813E+03 0.  0.
         23    2    4    4    0    0  0.14180377580E+03  0.36104330064E+03  0.15442702389E+04  0.15949151144E+04  0.92320505473E+02 0.  0.
         23    2    4    4    0    0  0.18193904144E+03 -0.46788038891E+03  0.91405960655E+03  0.10469544850E+04  0.92708447437E+02 0.  0.
          4    1    3    3  502    0 -0.65980931906E+01  0.10109745406E+02  0.38866483501E+01  0.12682579443E+02  0.00000000000E+00 0. -1.
         -3    1    3    3    0  502 -0.31714472405E+03  0.96727342869E+02  0.56215209467E+03  0.65264993097E+03  0.00000000000E+00 0.  1.
         11    1    5    5    0    0  0.65763630490E+02  0.11634644255E+03  0.69891450518E+03  0.71157770858E+03  0.00000000000E+00 0. -1.
        -11    1    5    5    0    0  0.76040145310E+02  0.24469685808E+03  0.84535573368E+03  0.88333740582E+03  0.00000000000E+00 0.  1.
          3    1    6    6  503    0  0.11654582650E+03 -0.17648947611E+03  0.35965350236E+03  0.41723147846E+03  0.00000000000E+00 0. -1.
         -3    1    6    6    0  503  0.65393214944E+02 -0.29139091280E+03  0.55440610419E+03  0.62972300656E+03  0.00000000000E+00 0.  1.
<mgrwt>
<rscale>  0 0.13382004E+04</rscale>
<asrwt>0</asrwt>
<pdfrwt beam="1">  1        2 0.48704385E+00 0.13382004E+04</pdfrwt>
<pdfrwt beam="2">  1       -1 0.21756427E-01 0.13382004E+04</pdfrwt>
<totfact> 0.27333036E+01</totfact>
</mgrwt>
</event>
<event>
12    6  0.9533401E-008  0.1602018E+04  0.7818608E-02  0.8819309E-01
         -1   -1    0    0    0  501 -0.00000000000E+00  0.00000000000E+00  0.82650164875E+03  0.82650164875E+03  0.00000000000E+00 0.  1.
          2   -1    0    0  501    0  0.00000000000E+00 -0.00000000000E+00 -0.77630282825E+03  0.77630282825E+03  0.00000000000E+00 0. -1.
         24    2    1    2    0    0 -0.11405070829E+03  0.54688486832E+02 -0.51636917913E+03  0.53792079605E+03  0.81995481713E+02 0.  0.
        254    2    1    2    0    0  0.11405070829E+03 -0.54688486832E+02  0.56656799963E+03  0.10648836809E+04  0.89273711757E+03 0.  0.
         23    2    4    4    0    0  0.26797944324E+03  0.34122914725E+03  0.40841994203E+03  0.60268653282E+03  0.90409594976E+02 0.  0.
         23    2    4    4    0    0 -0.15392873495E+03 -0.39591763408E+03  0.15814805759E+03  0.46219714813E+03  0.90391189832E+02 0.  0.
          2    1    3    3  502    0 -0.48597740513E+02  0.19942148469E+02 -0.37153189294E+03  0.37522710075E+03  0.00000000000E+00 0. -1.
         -1    1    3    3    0  502 -0.65452967776E+02  0.34746338363E+02 -0.14483728619E+03  0.16269369530E+03  0.00000000000E+00 0.  1.
         11    1    5    5    0    0  0.14467517433E+03  0.13578144830E+03  0.23116980035E+03  0.30464238767E+03  0.00000000000E+00 0.  1.
        -11    1    5    5    0    0  0.12330426891E+03  0.20544769895E+03  0.17725014168E+03  0.29804414515E+03  0.00000000000E+00 0. -1.
          3    1    6    6  503    0 -0.51603076443E+02 -0.24011302242E+03  0.11333277682E+03  0.27048375060E+03  0.00000000000E+00 0. -1.
         -3    1    6    6    0  503 -0.10232565851E+03 -0.15580461166E+03  0.44815280773E+02  0.19171339753E+03  0.00000000000E+00 0.  1.
<mgrwt>
<rscale>  0 0.16020182E+04</rscale>
<asrwt>0</asrwt>
<pdfrwt beam="1">  1        2 0.11943120E+00 0.16020182E+04</pdfrwt>
<pdfrwt beam="2">  1       -1 0.12715410E+00 0.16020182E+04</pdfrwt>
<totfact> 0.21046674E+01</totfact>
</mgrwt>
</event>
<event>
12    6  0.9533401E-008  0.1325073E+04  0.7818608E-02  0.9009915E-01
         -1   -1    0    0    0  501 -0.00000000000E+00  0.00000000000E+00  0.15348531569E+04  0.15348531569E+04  0.00000000000E+00 0.  1.
          2   -1    0    0  501    0  0.00000000000E+00 -0.00000000000E+00 -0.28599117912E+03  0.28599117912E+03  0.00000000000E+00 0. -1.
         24    2    1    2    0    0 -0.18757686668E+03  0.26842598047E+03  0.25348097967E+03  0.42130944106E+03  0.77533542215E+02 0.  0.
        254    2    1    2    0    0  0.18757686668E+03 -0.26842598047E+03  0.99538099813E+03  0.13995348950E+04  0.92772679326E+03 0.  0.
         23    2    4    4    0    0  0.37891918517E+03 -0.14814728981E+03  0.45613451186E+02  0.41903472184E+03  0.89342838612E+02 0.  0.
         23    2    4    4    0    0 -0.19134231849E+03 -0.12027869066E+03  0.94976754694E+03  0.98050017315E+03  0.90792896416E+02 0.  0.
          2    1    3    3  502    0 -0.17923032717E+03  0.25565801684E+03  0.21275825391E+03  0.37782351218E+03  0.00000000000E+00 0. -1.
         -1    1    3    3    0  502 -0.83465395073E+01  0.12767963633E+02  0.40722725761E+02  0.43485928880E+02  0.00000000000E+00 0.  1.
         11    1    5    5    0    0  0.15600040551E+03 -0.74150057858E+02 -0.23212342445E+02  0.17427900172E+03  0.00000000000E+00 0. -1.
        -11    1    5    5    0    0  0.22291877966E+03 -0.73997231953E+02  0.68825793631E+02  0.24475572012E+03  0.00000000000E+00 0.  1.
          3    1    6    6  503    0 -0.42463446712E+02 -0.33574201849E+02  0.41871447900E+03  0.42219922579E+03  0.00000000000E+00 0. -1.
         -3    1    6    6    0  503 -0.14887887178E+03 -0.86704488814E+02  0.53105306794E+03  0.55830094735E+03  0.00000000000E+00 0.  1.
<mgrwt>
<rscale>  0 0.13250728E+04</rscale>
<asrwt>0</asrwt>
<pdfrwt beam="1">  1        2 0.43998644E-01 0.13250728E+04</pdfrwt>
<pdfrwt beam="2">  1       -1 0.23613125E+00 0.13250728E+04</pdfrwt>
<totfact> 0.11171377E+01</totfact>
</mgrwt>
</event>
<event>
12    6  0.9533401E-008  0.1922975E+04  0.7818608E-02  0.8643504E-01
          2   -1    0    0  501    0  0.00000000000E+00  0.00000000000E+00  0.93530050367E+03  0.93530050367E+03  0.00000000000E+00 0. -1.
         -1   -1    0    0    0  501 -0.00000000000E+00 -0.00000000000E+00 -0.98840793174E+03  0.98840793174E+03  0.00000000000E+00 0.  1.
         24    2    1    2    0    0 -0.19691625471E+03  0.75331811463E+02  0.70133149407E+03  0.73671120464E+03  0.80166335013E+02 0.  0.
        254    2    1    2    0    0  0.19691625471E+03 -0.75331811463E+02 -0.75443892214E+03  0.11869972308E+04  0.89181469232E+03 0.  0.
         23    2    4    4    0    0 -0.28269866131E+03  0.17232905341E+03 -0.42817398285E+03  0.54886881488E+03  0.91149221637E+02 0.  0.
         23    2    4    4    0    0  0.47961491602E+03 -0.24766086487E+03 -0.32626493928E+03  0.63812841589E+03  0.96915906329E+02 0.  0.
          4    1    3    3  502    0 -0.11980311049E+03  0.62688835606E+01  0.42571540492E+03  0.44229593054E+03  0.00000000000E+00 0. -1.
         -3    1    3    3    0  502 -0.77113144227E+02  0.69062927902E+02  0.27561608915E+03  0.29441527410E+03  0.00000000000E+00 0.  1.
         11    1    5    5    0    0 -0.68031731098E+02  0.82723364140E+02 -0.99390294952E+02  0.14611605710E+03  0.00000000000E+00 0.  1.
        -11    1    5    5    0    0 -0.21466693021E+03  0.89605689270E+02 -0.32878368790E+03  0.40275275779E+03  0.00000000000E+00 0. -1.
          1    1    6    6  503    0  0.84449374766E+02 -0.60266418802E+02 -0.23987025441E+02  0.10648528313E+03  0.00000000000E+00 0. -1.
         -1    1    6    6    0  503  0.39516554126E+03 -0.18739444607E+03 -0.30227791384E+03  0.53164313276E+03  0.00000000000E+00 0.  1.
<mgrwt>
<rscale>  0 0.19229752E+04</rscale>
<asrwt>0</asrwt>
<pdfrwt beam="1">  1        2 0.14389239E+00 0.19229752E+04</pdfrwt>
<pdfrwt beam="2">  1       -1 0.15206276E+00 0.19229752E+04</pdfrwt>
<totfact> 0.99578517E+00</totfact>
</mgrwt>
</event>
<event>
12    6  0.9533401E-008  0.1770196E+04  0.7818608E-02  0.8722312E-01
         -1   -1    0    0    0  501 -0.00000000000E+00  0.00000000000E+00  0.89580031296E+03  0.89580031296E+03  0.00000000000E+00 0.  1.
          2   -1    0    0  501    0  0.00000000000E+00 -0.00000000000E+00 -0.87452333568E+03  0.87452333568E+03  0.00000000000E+00 0. -1.
         24    2    1    2    0    0 -0.26939154256E+03  0.50246117927E+03 -0.31332887874E+03  0.65523711511E+03  0.78240979622E+02 0.  0.
        254    2    1    2    0    0  0.26939154256E+03 -0.50246117927E+03  0.33460585602E+03  0.11150865335E+04  0.89800771627E+03 0.  0.
         23    2    4    4    0    0 -0.13415480839E+03 -0.48115086044E+02  0.45773051407E+03  0.48793263002E+03  0.90820998722E+02 0.  0.
         23    2    4    4    0    0  0.40354635095E+03 -0.45434609323E+03 -0.12312465805E+03  0.62715390350E+03  0.94245994392E+02 0.  0.
          4    1    3    3  502    0 -0.25862835027E+03  0.48023447554E+03 -0.31604059862E+03  0.63039307978E+03  0.00000000000E+00 0. -1.
         -3    1    3    3    0  502 -0.10763192288E+02  0.22226703732E+02  0.27117198741E+01  0.24844035334E+02  0.00000000000E+00 0.  1.
         11    1    5    5    0    0 -0.35638310277E+02 -0.58908553413E+02  0.21478539213E+03  0.22555059631E+03  0.00000000000E+00 0.  1.
        -11    1    5    5    0    0 -0.98516498113E+02  0.10793467369E+02  0.24294512195E+03  0.26238203371E+03  0.00000000000E+00 0. -1.
          4    1    6    6  503    0  0.16379642483E+02 -0.15446722896E+02  0.13372471582E+02  0.26186197362E+02  0.00000000000E+00 0. -1.
         -4    1    6    6    0  503  0.38716670846E+03 -0.43889937033E+03 -0.13649712963E+03  0.60096770613E+03  0.00000000000E+00 0.  1.
<mgrwt>
<rscale>  0 0.17701958E+04</rscale>
<asrwt>0</asrwt>
<pdfrwt beam="1">  1        2 0.13454205E+00 0.17701958E+04</pdfrwt>
<pdfrwt beam="2">  1       -1 0.13781543E+00 0.17701958E+04</pdfrwt>
<totfact> 0.14396813E+01</totfact>
</mgrwt>
</event>
<event>
12    6  0.9533401E-008  0.1779764E+04  0.7818608E-02  0.8717135E-01
         -1   -1    0    0    0  501 -0.00000000000E+00  0.00000000000E+00  0.59357909725E+03  0.59357909725E+03  0.00000000000E+00 0.  1.
          2   -1    0    0  501    0  0.00000000000E+00 -0.00000000000E+00 -0.13340938028E+04  0.13340938028E+04  0.00000000000E+00 0. -1.
         24    2    1    2    0    0  0.13447475043E+03 -0.47510919293E+03  0.19928782015E+03  0.53866895276E+03  0.81464112891E+02 0.  0.
        254    2    1    2    0    0 -0.13447475043E+03  0.47510919293E+03 -0.93980252570E+03  0.13890039473E+04  0.89570696913E+03 0.  0.
         23    2    4    4    0    0 -0.31763605806E+03  0.48021859119E+03 -0.18995263060E+03  0.61199247319E+03  0.83368007444E+02 0.  0.
         23    2    4    4    0    0  0.18316130763E+03 -0.51093982602E+01 -0.74984989510E+03  0.77701147409E+03  0.88869539933E+02 0.  0.
          2    1    3    3  502    0  0.70882175402E+01 -0.14801861091E+03  0.76676122540E+02  0.16685017162E+03  0.00000000000E+00 0. -1.
         -1    1    3    3    0  502  0.12738653289E+03 -0.32709058203E+03  0.12261169761E+03  0.37181878113E+03  0.00000000000E+00 0.  1.
         11    1    5    5    0    0 -0.11297131773E+03  0.15907818934E+03 -0.23969769362E+02  0.19657807303E+03  0.00000000000E+00 0. -1.
        -11    1    5    5    0    0 -0.20466474033E+03  0.32114040186E+03 -0.16598286124E+03  0.41541440016E+03  0.00000000000E+00 0.  1.
          1    1    6    6  503    0  0.24946394286E+02  0.24446877725E+02 -0.23523342707E+03  0.23781240008E+03  0.00000000000E+00 0. -1.
         -1    1    6    6    0  503  0.15821491334E+03 -0.29556275985E+02 -0.51461646803E+03  0.53919907401E+03  0.00000000000E+00 0.  1.
<mgrwt>
<rscale>  0 0.17797642E+04</rscale>
<asrwt>0</asrwt>
<pdfrwt beam="1">  1        2 0.20524520E+00 0.17797642E+04</pdfrwt>
<pdfrwt beam="2">  1       -1 0.91319861E-01 0.17797642E+04</pdfrwt>
<totfact> 0.19911292E+01</totfact>
</mgrwt>
</event>
<event>
12    6  0.9533401E-008  0.1361859E+04  0.7818608E-02  0.8981899E-01
         -3   -1    0    0    0  501 -0.00000000000E+00  0.00000000000E+00  0.20109265062E+03  0.20109265062E+03  0.00000000000E+00 0.  1.
          2   -1    0    0  501    0  0.00000000000E+00 -0.00000000000E+00 -0.23057279946E+04  0.23057279946E+04  0.00000000000E+00 0. -1.
         24    2    1    2    0    0  0.21259537755E+02  0.21882401689E+03 -0.98289533574E+03  0.10109938536E+04  0.87689296420E+02 0.  0.
        254    2    1    2    0    0 -0.21259537755E+02 -0.21882401689E+03 -0.11217400083E+04  0.14958267916E+04  0.96481149772E+03 0.  0.
         23    2    4    4    0    0  0.29325112101E+02 -0.56059705532E+03 -0.41687898669E+03  0.70530698488E+03  0.92416625901E+02 0.  0.
         23    2    4    4    0    0 -0.50584649856E+02  0.34177303843E+03 -0.70486102158E+03  0.79051980676E+03  0.93407111831E+02 0.  0.
          4    1    3    3  502    0  0.10091938324E+01  0.21377929684E+03 -0.85009881208E+03  0.87656750826E+03  0.00000000000E+00 0. -1.
         -3    1    3    3    0  502  0.20250343923E+02  0.50447200486E+01 -0.13279652366E+03  0.13442634536E+03  0.00000000000E+00 0.  1.
         11    1    5    5    0    0 -0.53165753428E+01 -0.49195983354E+03 -0.35739349111E+03  0.60809773168E+03  0.00000000000E+00 0. -1.
        -11    1    5    5    0    0  0.34641687443E+02 -0.68637221780E+02 -0.59485495583E+02  0.97209253198E+02  0.00000000000E+00 0.  1.
          1    1    6    6  503    0 -0.26165037519E+02  0.26290488650E+03 -0.44144270845E+03  0.51446598856E+03  0.00000000000E+00 0. -1.
         -1    1    6    6    0  503 -0.24419612337E+02  0.78868151930E+02 -0.26341831313E+03  0.27605381821E+03  0.00000000000E+00 0.  1.
<mgrwt>
<rscale>  0 0.13618590E+04</rscale>
<asrwt>0</asrwt>
<pdfrwt beam="1">  1        2 0.35472739E+00 0.13618590E+04</pdfrwt>
<pdfrwt beam="2">  1       -3 0.30937330E-01 0.13618590E+04</pdfrwt>
<totfact> 0.29163094E+01</totfact>
</mgrwt>
</event>
<event>
12    6  0.9533401E-008  0.2389741E+04  0.7818608E-02  0.8443354E-01
         -1   -1    0    0    0  501 -0.00000000000E+00  0.00000000000E+00  0.23217669269E+04  0.23217669269E+04  0.00000000000E+00 0.  1.
          2   -1    0    0  501    0  0.00000000000E+00 -0.00000000000E+00 -0.61492621442E+03  0.61492621442E+03  0.00000000000E+00 0. -1.
         24    2    1    2    0    0 -0.87752591369E+03  0.57013642672E+02  0.90029631931E+02  0.88757048841E+03  0.79835785263E+02 0.  0.
        254    2    1    2    0    0  0.87752591369E+03 -0.57013642672E+02  0.16168110805E+04  0.20491226529E+04  0.90084587574E+03 0.  0.
         23    2    4    4    0    0  0.24475369747E+02  0.22383327129E+03  0.63672630247E+02  0.25274080832E+03  0.95516151955E+02 0.  0.
         23    2    4    4    0    0  0.85305054395E+03 -0.28084691396E+03  0.15531384502E+04  0.17963818446E+04  0.90434872629E+02 0.  0.
          4    1    3    3  502    0 -0.45946374054E+03  0.10184080464E+02  0.81886980126E+02  0.46681486896E+03  0.00000000000E+00 0. -1.
         -3    1    3    3    0  502 -0.41806217316E+03  0.46829562208E+02  0.81426518047E+01  0.42075561945E+03  0.00000000000E+00 0.  1.
         11    1    5    5    0    0 -0.30488102360E+02  0.67399867011E+02  0.43221754549E+02  0.85676055727E+02  0.00000000000E+00 0.  1.
        -11    1    5    5    0    0  0.54963472107E+02  0.15643340428E+03  0.20450875698E+02  0.16706475259E+03  0.00000000000E+00 0. -1.
          3    1    6    6  503    0  0.84457145102E+03 -0.28594732960E+03  0.15436498590E+04  0.17826726279E+04  0.00000000000E+00 0. -1.
         -3    1    6    6    0  503  0.84790929223E+01  0.51004156367E+01  0.94885912507E+01  0.13709216622E+02  0.00000000000E+00 0.  1.
<mgrwt>
<rscale>  0 0.23897409E+04</rscale>
<asrwt>0</asrwt>
<pdfrwt beam="1">  1        2 0.94604034E-01 0.23897409E+04</pdfrwt>
<pdfrwt beam="2">  1       -1 0.35719491E+00 0.23897409E+04</pdfrwt>
<totfact> 0.68842088E-01</totfact>
</mgrwt>
</event>
<event>
12    6  0.9533401E-008  0.1672657E+04  0.7818608E-02  0.8777115E-01
         -1   -1    0    0    0  501 -0.00000000000E+00  0.00000000000E+00  0.75784739194E+03  0.75784739194E+03  0.00000000000E+00 0.  1.
          2   -1    0    0  501    0  0.00000000000E+00 -0.00000000000E+00 -0.92293675809E+03  0.92293675809E+03  0.00000000000E+00 0. -1.
         24    2    1    2    0    0  0.36511408164E+03 -0.44211295389E+03 -0.22614874784E+03  0.62166086413E+03  0.80912404702E+02 0.  0.
        254    2    1    2    0    0 -0.36511408164E+03  0.44211295389E+03  0.61059381691E+02  0.10591232859E+04  0.88839277914E+03 0.  0.
         23    2    4    4    0    0  0.17982039454E+03  0.45274562749E+03  0.95424377658E+02  0.50496796000E+03  0.92589693116E+02 0.  0.
         23    2    4    4    0    0 -0.54493447618E+03 -0.10632673598E+02 -0.34364995967E+02  0.55415532590E+03  0.94024120297E+02 0.  0.
          2    1    3    3  502    0  0.15833155079E+03 -0.16500278210E+03 -0.12880511082E+03  0.26246057733E+03  0.00000000000E+00 0. -1.
         -1    1    3    3    0  502  0.20678253084E+03 -0.27711017179E+03 -0.97343637021E+02  0.35920028681E+03  0.00000000000E+00 0.  1.
         11    1    5    5    0    0  0.15061552650E+03  0.43632347330E+03  0.95966674239E+02  0.47145817709E+03  0.00000000000E+00 0.  1.
        -11    1    5    5    0    0  0.29204868038E+02  0.16422154187E+02 -0.54229658085E+00  0.33509782912E+02  0.00000000000E+00 0. -1.
          4    1    6    6  503    0 -0.86944737453E+02  0.32972794728E+02 -0.32624485609E+01  0.93044269751E+02  0.00000000000E+00 0. -1.
         -4    1    6    6    0  503 -0.45798973873E+03 -0.43605468325E+02 -0.31102547407E+02  0.46111105615E+03  0.00000000000E+00 0.  1.
<mgrwt>
<rscale>  0 0.16726568E+04</rscale>
<asrwt>0</asrwt>
<pdfrwt beam="1">  1        2 0.14199027E+00 0.16726568E+04</pdfrwt>
<pdfrwt beam="2">  1       -1 0.11659191E+00 0.16726568E+04</pdfrwt>
<totfact> 0.20452214E+01</totfact>
</mgrwt>
</event>
<event>
12    6  0.9533401E-008  0.1556375E+04  0.7818608E-02  0.8847806E-01
          2   -1    0    0  501    0  0.00000000000E+00  0.00000000000E+00  0.13697943445E+04  0.13697943445E+04  0.00000000000E+00 0. -1.
         -1   -1    0    0    0  501 -0.00000000000E+00 -0.00000000000E+00 -0.44209253187E+03  0.44209253187E+03  0.00000000000E+00 0.  1.
         24    2    1    2    0    0 -0.24501855413E+03  0.10182409983E+03  0.75545780322E+03  0.80505577294E+03  0.83642488772E+02 0.  0.
        254    2    1    2    0    0  0.24501855413E+03 -0.10182409983E+03  0.17224400943E+03  0.10068311034E+04  0.95584446063E+03 0.  0.
         23    2    4    4    0    0  0.43284916305E+03  0.17579571392E+03 -0.18042773567E+03  0.51087297671E+03  0.10086872431E+03 0.  0.
         23    2    4    4    0    0 -0.18783060893E+03 -0.27761981375E+03  0.35267174511E+03  0.49595812674E+03  0.96145748980E+02 0.  0.
          2    1    3    3  502    0 -0.22159032640E+03  0.96779211704E+02  0.58624479548E+03  0.63415412070E+03  0.00000000000E+00 0. -1.
         -3    1    3    3    0  502 -0.23428227723E+02  0.50448881292E+01  0.16921300774E+03  0.17090165224E+03  0.00000000000E+00 0.  1.
         11    1    5    5    0    0  0.31888473699E+03  0.14461382802E+03 -0.17777730668E+03  0.39268996105E+03  0.00000000000E+00 0. -1.
        -11    1    5    5    0    0  0.11396442607E+03  0.31181885892E+02 -0.26504289968E+01  0.11818301566E+03  0.00000000000E+00 0.  1.
          3    1    6    6  503    0 -0.94638055258E+02 -0.21903268780E+03  0.23853443892E+03  0.33738754924E+03  0.00000000000E+00 0. -1.
         -3    1    6    6    0  503 -0.93192553671E+02 -0.58587125945E+02  0.11413730618E+03  0.15857057750E+03  0.00000000000E+00 0.  1.
<mgrwt>
<rscale>  0 0.15563751E+04</rscale>
<asrwt>0</asrwt>
<pdfrwt beam="1">  1        2 0.21073759E+00 0.15563751E+04</pdfrwt>
<pdfrwt beam="2">  1       -1 0.68014236E-01 0.15563751E+04</pdfrwt>
<totfact> 0.36146305E+01</totfact>
</mgrwt>
</event>
<event>
12    6  0.9533401E-008  0.2686429E+04  0.7818608E-02  0.8339422E-01
         -3   -1    0    0    0  501 -0.00000000000E+00  0.00000000000E+00  0.22794886156E+04  0.22794886156E+04  0.00000000000E+00 0.  1.
          4   -1    0    0  501    0  0.00000000000E+00 -0.00000000000E+00 -0.79150420719E+03  0.79150420719E+03  0.00000000000E+00 0. -1.
         24    2    1    2    0    0 -0.78577415952E+02  0.10814176175E+04  0.12191101195E+04  0.16335061822E+04  0.80464215945E+02 0.  0.
        254    2    1    2    0    0  0.78577415952E+02 -0.10814176175E+04  0.26887428890E+03  0.14374866406E+04  0.90467451886E+03 0.  0.
         23    2    4    4    0    0 -0.37651283030E+02 -0.55656074683E+03 -0.30804355886E+03  0.64383092873E+03  0.91923591137E+02 0.  0.
         23    2    4    4    0    0  0.11622869898E+03 -0.52485687064E+03  0.57691784777E+03  0.79365571190E+03  0.89840641297E+02 0.  0.
          4    1    3    3  502    0 -0.58596339407E+02  0.53877393179E+03  0.66191807084E+03  0.85548022366E+03  0.00000000000E+00 0. -1.
         -3    1    3    3    0  502 -0.19981076544E+02  0.54264368568E+03  0.55719204871E+03  0.77802595855E+03  0.00000000000E+00 0.  1.
         11    1    5    5    0    0 -0.50038795989E+02 -0.46947078642E+03 -0.22556622453E+03  0.52324642574E+03  0.00000000000E+00 0. -1.
        -11    1    5    5    0    0  0.12387512959E+02 -0.87089960410E+02 -0.82477334337E+02  0.12058450299E+03  0.00000000000E+00 0.  1.
          1    1    6    6  503    0  0.74241026823E+02 -0.42186917011E+03  0.50018176366E+03  0.65853407159E+03  0.00000000000E+00 0. -1.
         -1    1    6    6    0  503  0.41987672158E+02 -0.10298770053E+03  0.76736084107E+02  0.13512164030E+03  0.00000000000E+00 0.  1.
<mgrwt>
<rscale>  0 0.26864287E+04</rscale>
<asrwt>0</asrwt>
<pdfrwt beam="1">  1        4 0.12176988E+00 0.26864287E+04</pdfrwt>
<pdfrwt beam="2">  1       -3 0.35069055E+00 0.26864287E+04</pdfrwt>
<totfact> 0.20287179E-02</totfact>
</mgrwt>
</event>
<event>
12    6  0.9533401E-008  0.2345693E+04  0.7818608E-02  0.8460120E-01
         -1   -1    0    0    0  501 -0.00000000000E+00  0.00000000000E+00  0.98435524403E+03  0.98435524403E+03  0.00000000000E+00 0.  1.
          2   -1    0    0  501    0  0.00000000000E+00 -0.00000000000E+00 -0.13974319007E+04  0.13974319007E+04  0.00000000000E+00 0. -1.
         24    2    1    2    0    0  0.27654374237E+03 -0.77347692777E+03  0.39657748397E+03  0.91560045556E+03  0.79419734270E+02 0.  0.
        254    2    1    2    0    0 -0.27654374237E+03  0.77347692777E+03 -0.80965414060E+03  0.14661866891E+04  0.90521852652E+03 0.  0.
         23    2    4    4    0    0 -0.91728075990E+02  0.87242932845E+03 -0.85673640780E+03  0.12293036383E+04  0.87425336974E+02 0.  0.
         23    2    4    4    0    0 -0.18481566638E+03 -0.98952400681E+02  0.47082267206E+02  0.23688305086E+03  0.99741825519E+02 0.  0.
          4    1    3    3  502    0  0.13079076397E+03 -0.31623395856E+03  0.12603610296E+03  0.36468512410E+03  0.00000000000E+00 0. -1.
         -3    1    3    3    0  502  0.14575297840E+03 -0.45724296921E+03  0.27054138101E+03  0.55091533147E+03  0.00000000000E+00 0.  1.
         11    1    5    5    0    0  0.11712374181E+00  0.37568323617E+03 -0.34068093417E+03  0.50715028006E+03  0.00000000000E+00 0.  1.
        -11    1    5    5    0    0 -0.91845199732E+02  0.49674609228E+03 -0.51605547363E+03  0.72215335821E+03  0.00000000000E+00 0. -1.
          1    1    6    6  503    0 -0.46318022609E+02 -0.43615944102E+02  0.59649684730E+02  0.87211207346E+02  0.00000000000E+00 0. -1.
         -1    1    6    6    0  503 -0.13849764377E+03 -0.55336456578E+02 -0.12567417524E+02  0.14967184351E+03  0.00000000000E+00 0.  1.
<mgrwt>
<rscale>  0 0.23456934E+04</rscale>
<asrwt>0</asrwt>
<pdfrwt beam="1">  1        2 0.21498952E+00 0.23456934E+04</pdfrwt>
<pdfrwt beam="2">  1       -1 0.15143927E+00 0.23456934E+04</pdfrwt>
<totfact> 0.50807463E+00</totfact>
</mgrwt>
</event>
<event>
12    6  0.9533401E-008  0.2961622E+04  0.7818608E-02  0.8254775E-01
         -1   -1    0    0    0  501 -0.00000000000E+00  0.00000000000E+00  0.56691782965E+03  0.56691782965E+03  0.00000000000E+00 0.  1.
          2   -1    0    0  501    0  0.00000000000E+00 -0.00000000000E+00 -0.38679360572E+04  0.38679360572E+04  0.00000000000E+00 0. -1.
         24    2    1    2    0    0  0.87419878957E+01  0.42059203876E+03 -0.34234849652E+04  0.34501721608E+04  0.80402408663E+02 0.  0.
        254    2    1    2    0    0 -0.87419878957E+01 -0.42059203876E+03  0.12246673762E+03  0.98468172601E+03  0.88183100098E+03 0.  0.
         23    2    4    4    0    0 -0.23315760908E+03 -0.53984633396E+03  0.29547317994E+03  0.66422797065E+03  0.89988121236E+02 0.  0.
         23    2    4    4    0    0  0.22441562119E+03  0.11925429521E+03 -0.17300644232E+03  0.32045375536E+03  0.90418041803E+02 0.  0.
          4    1    3    3  502    0  0.40927693956E+02  0.20164561615E+03 -0.15186818538E+04  0.15325568843E+04  0.00000000000E+00 0. -1.
         -3    1    3    3    0  502 -0.32185706060E+02  0.21894642261E+03 -0.19048031114E+04  0.19176152765E+04  0.00000000000E+00 0.  1.
         11    1    5    5    0    0 -0.11098414449E+03 -0.22370150947E+03  0.78378857042E+02  0.26173095136E+03  0.00000000000E+00 0. -1.
        -11    1    5    5    0    0 -0.12217346459E+03 -0.31614482449E+03  0.21709432290E+03  0.40249701929E+03  0.00000000000E+00 0.  1.
          2    1    6    6  503    0  0.80240564935E+02  0.88112139274E+02 -0.53566210978E+02  0.13065847201E+03  0.00000000000E+00 0. -1.
         -2    1    6    6    0  503  0.14417505625E+03  0.31142155935E+02 -0.11944023134E+03  0.18979528335E+03  0.00000000000E+00 0.  1.
<mgrwt>
<rscale>  0 0.29616225E+04</rscale>
<asrwt>0</asrwt>
<pdfrwt beam="1">  1        2 0.59506707E+00 0.29616225E+04</pdfrwt>
<pdfrwt beam="2">  1       -1 0.87218130E-01 0.29616225E+04</pdfrwt>
<totfact> 0.54961806E-01</totfact>
</mgrwt>
</event>
<event>
12    6  0.9533401E-008  0.1721627E+04  0.7818608E-02  0.8749125E-01
         -1   -1    0    0    0  501 -0.00000000000E+00  0.00000000000E+00  0.44453546623E+03  0.44453546623E+03  0.00000000000E+00 0.  1.
          2   -1    0    0  501    0  0.00000000000E+00 -0.00000000000E+00 -0.16669078489E+04  0.16669078489E+04  0.00000000000E+00 0. -1.
         24    2    1    2    0    0 -0.11313061187E+03 -0.87298985067E+01  0.30542032001E+03  0.33544405124E+03  0.79789680837E+02 0.  0.
        254    2    1    2    0    0  0.11313061187E+03  0.87298985067E+01 -0.15277927027E+04  0.17759992639E+04  0.89841421210E+03 0.  0.
         23    2    4    4    0    0 -0.29477758839E+03 -0.24338953752E+03 -0.48018721139E+03  0.62033745061E+03  0.90036109729E+02 0.  0.
         23    2    4    4    0    0  0.40790820026E+03  0.25211943603E+03 -0.10476054913E+04  0.11556618133E+04  0.90131300989E+02 0.  0.
          4    1    3    3  502    0  0.11335755497E+02  0.65082213957E+01  0.35122785509E+02  0.37476210592E+02  0.00000000000E+00 0. -1.
         -3    1    3    3    0  502 -0.12446636737E+03 -0.15238119902E+02  0.27029753450E+03  0.29796784065E+03  0.00000000000E+00 0.  1.
         11    1    5    5    0    0 -0.22270340001E+03 -0.12972641830E+03 -0.32878973606E+03  0.41776600929E+03  0.00000000000E+00 0. -1.
        -11    1    5    5    0    0 -0.72074188379E+02 -0.11366311922E+03 -0.15139747534E+03  0.20257144132E+03  0.00000000000E+00 0.  1.
          1    1    6    6  503    0  0.36581454760E+03  0.25394618845E+03 -0.94178631094E+03  0.10417631234E+04  0.00000000000E+00 0. -1.
         -1    1    6    6    0  503  0.42093652660E+02 -0.18267524171E+01 -0.10581918036E+03  0.11389868986E+03  0.00000000000E+00 0.  1.
<mgrwt>
<rscale>  0 0.17216267E+04</rscale>
<asrwt>0</asrwt>
<pdfrwt beam="1">  1        2 0.25644736E+00 0.17216267E+04</pdfrwt>
<pdfrwt beam="2">  1       -1 0.68390072E-01 0.17216267E+04</pdfrwt>
<totfact> 0.23962047E+01</totfact>
</mgrwt>
</event>
<event>
12    6  0.9533401E-008  0.1743814E+04  0.7818608E-02  0.8736763E-01
          2   -1    0    0  501    0  0.00000000000E+00  0.00000000000E+00  0.24581692808E+04  0.24581692808E+04  0.00000000000E+00 0. -1.
         -1   -1    0    0    0  501 -0.00000000000E+00 -0.00000000000E+00 -0.30926323856E+03  0.30926323856E+03  0.00000000000E+00 0.  1.
         24    2    1    2    0    0 -0.19311896299E+03  0.41931412934E+03  0.14799779438E+04  0.15523870185E+04  0.80321030298E+02 0.  0.
        254    2    1    2    0    0  0.19311896299E+03 -0.41931412934E+03  0.66892809844E+03  0.12150455009E+04  0.90318962325E+03 0.  0.
         23    2    4    4    0    0  0.17858769478E+03 -0.24709708967E+03 -0.16335116046E+03  0.36027166037E+03  0.10080442049E+03 0.  0.
         23    2    4    4    0    0  0.14531268213E+02 -0.17221703967E+03  0.83227925890E+03  0.85477384057E+03  0.89887080370E+02 0.  0.
          4    1    3    3  502    0 -0.11724675534E+03  0.17051000636E+03  0.71868939923E+03  0.74788696771E+03  0.00000000000E+00 0. -1.
         -1    1    3    3    0  502 -0.75872207652E+02  0.24880412298E+03  0.76128854460E+03  0.80450005074E+03  0.00000000000E+00 0.  1.
         11    1    5    5    0    0  0.90753055670E+01 -0.15121901441E+01  0.11253627239E+02  0.14535887183E+02  0.00000000000E+00 0.  1.
        -11    1    5    5    0    0  0.16951238921E+03 -0.24558489953E+03 -0.17460478770E+03  0.34573577319E+03  0.00000000000E+00 0. -1.
          2    1    6    6  503    0  0.98196314157E+01 -0.12922931747E+03  0.75651820561E+03  0.76753920882E+03  0.00000000000E+00 0. -1.
         -2    1    6    6    0  503  0.47116367968E+01 -0.42987722196E+02  0.75761053295E+02  0.87234631755E+02  0.00000000000E+00 0.  1.
<mgrwt>
<rscale>  0 0.17438135E+04</rscale>
<asrwt>0</asrwt>
<pdfrwt beam="1">  1        2 0.37817988E+00 0.17438135E+04</pdfrwt>
<pdfrwt beam="2">  1       -1 0.47578961E-01 0.17438135E+04</pdfrwt>
<totfact> 0.17550230E+01</totfact>
</mgrwt>
</event>
<event>
12    6  0.9533401E-008  0.2480575E+04  0.7818608E-02  0.8409938E-01
         -1   -1    0    0    0  501 -0.00000000000E+00  0.00000000000E+00  0.58515275089E+03  0.58515275089E+03  0.00000000000E+00 0.  1.
          2   -1    0    0  501    0  0.00000000000E+00 -0.00000000000E+00 -0.26289094240E+04  0.26289094240E+04  0.00000000000E+00 0. -1.
         24    2    1    2    0    0 -0.56873285353E+03 -0.51414495647E+03  0.89408242990E+02  0.77527212842E+03  0.72463399321E+02 0.  0.
        254    2    1    2    0    0  0.56873285353E+03  0.51414495647E+03 -0.21331649161E+04  0.24387900464E+04  0.89972342221E+03 0.  0.
         23    2    4    4    0    0 -0.79888786359E+02  0.81410899817E+02  0.20682647742E+02  0.14635085468E+03  0.89335591753E+02 0.  0.
         23    2    4    4    0    0  0.64862163989E+03  0.43273405666E+03 -0.21538475638E+04  0.22924391918E+04  0.90825790419E+02 0.  0.
          2    1    3    3  502    0 -0.42515136472E+03 -0.34970278918E+03  0.84258731567E+02  0.55690686612E+03  0.00000000000E+00 0. -1.
         -1    1    3    3    0  502 -0.14358148881E+03 -0.16444216729E+03  0.51495114231E+01  0.21836526230E+03  0.00000000000E+00 0.  1.
         11    1    5    5    0    0  0.24683083990E+01 -0.16037762946E+02 -0.32180688482E+01  0.16542622337E+02  0.00000000000E+00 0.  1.
        -11    1    5    5    0    0 -0.82357094758E+02  0.97448662763E+02  0.23900716590E+02  0.12980823235E+03  0.00000000000E+00 0. -1.
          1    1    6    6  503    0  0.16222100677E+03  0.13522120736E+03 -0.48876451572E+03  0.53243889958E+03  0.00000000000E+00 0.  1.
         -1    1    6    6    0  503  0.48640063311E+03  0.29751284929E+03 -0.16650830481E+04  0.17600002922E+04  0.00000000000E+00 0. -1.
<mgrwt>
<rscale>  0 0.24805754E+04</rscale>
<asrwt>0</asrwt>
<pdfrwt beam="1">  1        2 0.40444760E+00 0.24805754E+04</pdfrwt>
<pdfrwt beam="2">  1       -1 0.90023500E-01 0.24805754E+04</pdfrwt>
<totfact> 0.35887829E+00</totfact>
</mgrwt>
</event>
<event>
12    6  0.9533401E-008  0.2304058E+04  0.7818608E-02  0.8476323E-01
          2   -1    0    0  501    0  0.00000000000E+00  0.00000000000E+00  0.85256439476E+03  0.85256439476E+03  0.00000000000E+00 0. -1.
         -1   -1    0    0    0  501 -0.00000000000E+00 -0.00000000000E+00 -0.15566811828E+04  0.15566811828E+04  0.00000000000E+00 0.  1.
         24    2    1    2    0    0 -0.57174760769E+03 -0.26103430069E+03 -0.10739321377E+04  0.12468245947E+04  0.78785153871E+02 0.  0.
        254    2    1    2    0    0  0.57174760769E+03  0.26103430069E+03  0.36981534966E+03  0.11624209829E+04  0.90522092084E+03 0.  0.
         23    2    4    4    0    0  0.46306239081E+03 -0.51673349624E+02  0.58796119214E+03  0.75557203951E+03  0.89965718909E+02 0.  0.
         23    2    4    4    0    0  0.10868521688E+03  0.31270765032E+03 -0.21814584248E+03  0.40684894336E+03  0.91323070396E+02 0.  0.
          2    1    3    3  502    0 -0.14370045813E+03 -0.54818714830E+02 -0.20255886123E+03  0.25433247025E+03  0.00000000000E+00 0. -1.
         -1    1    3    3    0  502 -0.42804714956E+03 -0.20621558586E+03 -0.87137327644E+03  0.99249212440E+03  0.00000000000E+00 0.  1.
         11    1    5    5    0    0  0.35856382049E+02  0.17888753973E+02  0.69112293194E+02  0.79888652028E+02  0.00000000000E+00 0.  1.
        -11    1    5    5    0    0  0.42720600876E+03 -0.69562103597E+02  0.51884889895E+03  0.67568338748E+03  0.00000000000E+00 0. -1.
          3    1    6    6  503    0  0.49038624303E+02  0.18156338222E+03 -0.71302874302E+02  0.20113216630E+03  0.00000000000E+00 0. -1.
         -3    1    6    6    0  503  0.59646592580E+02  0.13114426810E+03 -0.14684296818E+03  0.20571677706E+03  0.00000000000E+00 0.  1.
<mgrwt>
<rscale>  0 0.23040581E+04</rscale>
<asrwt>0</asrwt>
<pdfrwt beam="1">  1        2 0.13116375E+00 0.23040581E+04</pdfrwt>
<pdfrwt beam="2">  1       -1 0.23948941E+00 0.23040581E+04</pdfrwt>
<totfact> 0.26696550E+00</totfact>
</mgrwt>
</event>
<event>
12    6  0.9533401E-008  0.1199402E+04  0.7818608E-02  0.9113380E-01
          2   -1    0    0  501    0  0.00000000000E+00  0.00000000000E+00  0.24498657469E+04  0.24498657469E+04  0.00000000000E+00 0. -1.
         -1   -1    0    0    0  501 -0.00000000000E+00 -0.00000000000E+00 -0.14680051307E+03  0.14680051307E+03  0.00000000000E+00 0.  1.
         24    2    1    2    0    0 -0.12556892369E+03  0.20470758082E+03  0.35138140122E+03  0.43547694987E+03  0.92187507298E+02 0.  0.
        254    2    1    2    0    0  0.12556892369E+03 -0.20470758082E+03  0.19516838326E+04  0.21611893101E+04  0.89665863259E+03 0.  0.
         23    2    4    4    0    0  0.49984541893E+02 -0.12938668087E+03 -0.34479989075E+02  0.16986285368E+03  0.91788625655E+02 0.  0.
         23    2    4    4    0    0  0.75584381793E+02 -0.75320899957E+02  0.19861638217E+04  0.19913264564E+04  0.95645662503E+02 0.  0.
          4    1    3    3  502    0 -0.25491978471E+01  0.76247330309E+02  0.76268814470E+02  0.10787532549E+03  0.00000000000E+00 0. -1.
         -3    1    3    3    0  502 -0.12301972584E+03  0.12846025051E+03  0.27511258675E+03  0.32760162438E+03  0.00000000000E+00 0.  1.
         11    1    5    5    0    0 -0.17069261945E+02 -0.71350941625E+02  0.33708333963E+01  0.73441671359E+02  0.00000000000E+00 0. -1.
        -11    1    5    5    0    0  0.67053803838E+02 -0.58035739242E+02 -0.37850822471E+02  0.96421182321E+02  0.00000000000E+00 0.  1.
          4    1    6    6  503    0  0.80489272956E+00  0.16112107950E+02  0.57551066323E+03  0.57573672053E+03  0.00000000000E+00 0. -1.
         -4    1    6    6    0  503  0.74779489063E+02 -0.91433007906E+02  0.14106531584E+04  0.14155897359E+04  0.00000000000E+00 0.  1.
<mgrwt>
<rscale>  0 0.11994024E+04</rscale>
<asrwt>0</asrwt>
<pdfrwt beam="1">  1        2 0.37690239E+00 0.11994024E+04</pdfrwt>
<pdfrwt beam="2">  1       -1 0.22584696E-01 0.11994024E+04</pdfrwt>
<totfact> 0.70097287E+01</totfact>
</mgrwt>
</event>
<event>
12    6  0.9533401E-008  0.1754327E+04  0.7818608E-02  0.8730972E-01
          2   -1    0    0  501    0  0.00000000000E+00  0.00000000000E+00  0.22609209720E+04  0.22609209720E+04  0.00000000000E+00 0. -1.
         -3   -1    0    0    0  501 -0.00000000000E+00 -0.00000000000E+00 -0.34031071631E+03  0.34031071631E+03  0.00000000000E+00 0.  1.
         24    2    1    2    0    0 -0.48035224820E+03 -0.40569702859E+03  0.89746269714E+03  0.10993311122E+04  0.88097901239E+02 0.  0.
        254    2    1    2    0    0  0.48035224820E+03  0.40569702859E+03  0.10231475586E+04  0.15019005761E+04  0.90196787776E+03 0.  0.
         23    2    4    4    0    0  0.51211244108E+03  0.63899559516E+03  0.89486789983E+03  0.12172699963E+04  0.10189780545E+03 0.  0.
         23    2    4    4    0    0 -0.31760192875E+02 -0.23329856657E+03  0.12827965872E+03  0.28463057981E+03  0.95508979174E+02 0.  0.
          4    1    3    3  502    0 -0.13087423972E+03 -0.83271218719E+02  0.16880918977E+03  0.22925685386E+03  0.00000000000E+00 0. -1.
         -3    1    3    3    0  502 -0.34947800848E+03 -0.32242580987E+03  0.72865350737E+03  0.87007425838E+03  0.00000000000E+00 0.  1.
         11    1    5    5    0    0  0.37338081613E+02  0.45723125421E+02  0.30675379577E+02  0.66526050905E+02  0.00000000000E+00 0. -1.
        -11    1    5    5    0    0  0.47477435947E+03  0.59327246974E+03  0.86419252026E+03  0.11507439454E+04  0.00000000000E+00 0.  1.
          1    1    6    6  503    0  0.30662215905E+02 -0.48430320961E+02  0.16010938954E+02  0.59514852253E+02  0.00000000000E+00 0. -1.
         -1    1    6    6    0  503 -0.62422408779E+02 -0.18486824561E+03  0.11226871977E+03  0.22511572755E+03  0.00000000000E+00 0.  1.
<mgrwt>
<rscale>  0 0.17543268E+04</rscale>
<asrwt>0</asrwt>
<pdfrwt beam="1">  1        2 0.34783399E+00 0.17543268E+04</pdfrwt>
<pdfrwt beam="2">  1       -3 0.52355496E-01 0.17543268E+04</pdfrwt>
<totfact> 0.10497333E+01</totfact>
</mgrwt>
</event>
<event>
12    6  0.9533401E-008  0.1870559E+04  0.7818608E-02  0.8669652E-01
         -1   -1    0    0    0  501 -0.00000000000E+00  0.00000000000E+00  0.14064829209E+04  0.14064829209E+04  0.00000000000E+00 0.  1.
          2   -1    0    0  501    0  0.00000000000E+00 -0.00000000000E+00 -0.62193962691E+03  0.62193962691E+03  0.00000000000E+00 0. -1.
         24    2    1    2    0    0 -0.40033128358E+03 -0.54410341488E+03  0.55645414077E+03  0.87873970082E+03  0.78921405945E+02 0.  0.
        254    2    1    2    0    0  0.40033128358E+03  0.54410341488E+03  0.22808915318E+03  0.11496828469E+04  0.90190483093E+03 0.  0.
         23    2    4    4    0    0 -0.66944331771E+01 -0.11751414199E+03  0.32858260503E+03  0.36144595486E+03  0.93926891559E+02 0.  0.
         23    2    4    4    0    0  0.40702571676E+03  0.66161755688E+03 -0.10049345184E+03  0.78823689208E+03  0.88378382567E+02 0.  0.
          4    1    3    3  502    0 -0.10388797265E+03 -0.88506092287E+02  0.11699195281E+03  0.17975860551E+03  0.00000000000E+00 0. -1.
         -3    1    3    3    0  502 -0.29644331094E+03 -0.45559732260E+03  0.43946218797E+03  0.69898109532E+03  0.00000000000E+00 0.  1.
         11    1    5    5    0    0 -0.29388229220E+02 -0.63982937968E+02  0.26952583742E+03  0.27857074757E+03  0.00000000000E+00 0.  1.
        -11    1    5    5    0    0  0.22693796043E+02 -0.53531204024E+02  0.59056767607E+02  0.82875207289E+02  0.00000000000E+00 0. -1.
          1    1    6    6  503    0  0.10443576141E+03  0.24098132064E+03 -0.15003582392E+02  0.26306640349E+03  0.00000000000E+00 0. -1.
         -1    1    6    6    0  503  0.30258995535E+03  0.42063623624E+03 -0.85489869450E+02  0.52517048859E+03  0.00000000000E+00 0.  1.
<mgrwt>
<rscale>  0 0.18705587E+04</rscale>
<asrwt>0</asrwt>
<pdfrwt beam="1">  1        2 0.95683020E-01 0.18705587E+04</pdfrwt>
<pdfrwt beam="2">  1       -1 0.21638199E+00 0.18705587E+04</pdfrwt>
<totfact> 0.59229901E+00</totfact>
</mgrwt>
</event>
<event>
12    6  0.9533401E-008  0.1625667E+04  0.7818608E-02  0.8804933E-01
          2   -1    0    0  501    0  0.00000000000E+00  0.00000000000E+00  0.56560732953E+03  0.56560732953E+03  0.00000000000E+00 0. -1.
         -1   -1    0    0    0  501 -0.00000000000E+00 -0.00000000000E+00 -0.11681214917E+04  0.11681214917E+04  0.00000000000E+00 0.  1.
         24    2    1    2    0    0  0.43982087619E+03 -0.33318147462E+03 -0.36499333649E+03  0.66662837473E+03  0.81981437863E+02 0.  0.
        254    2    1    2    0    0 -0.43982087619E+03  0.33318147462E+03 -0.23752082573E+03  0.10671004465E+04  0.88194950093E+03 0.  0.
         23    2    4    4    0    0  0.17213895750E+03 -0.63808999668E+01 -0.30184143860E+03  0.35816865721E+03  0.86625610413E+02 0.  0.
         23    2    4    4    0    0 -0.61195983368E+03  0.33956237459E+03  0.64320612876E+02  0.70893178933E+03  0.93003744011E+02 0.  0.
          4    1    3    3  502    0  0.76443337521E+02 -0.60263613708E+02 -0.10449361773E+03  0.14280827404E+03  0.00000000000E+00 0. -1.
         -3    1    3    3    0  502  0.36337753867E+03 -0.27291786091E+03 -0.26049971876E+03  0.52382010069E+03  0.00000000000E+00 0.  1.
         11    1    5    5    0    0  0.10868273536E+03  0.29520302545E+02 -0.13311925053E+03  0.17436777251E+03  0.00000000000E+00 0.  1.
        -11    1    5    5    0    0  0.63456222132E+02 -0.35901202512E+02 -0.16872218807E+03  0.18380088470E+03  0.00000000000E+00 0. -1.
          2    1    6    6  503    0 -0.30247441020E+03  0.22037983831E+03  0.27478332158E+02  0.37525071712E+03  0.00000000000E+00 0. -1.
         -2    1    6    6    0  503 -0.30948542348E+03  0.11918253628E+03  0.36842280718E+02  0.33368107221E+03  0.00000000000E+00 0.  1.
<mgrwt>
<rscale>  0 0.16256667E+04</rscale>
<asrwt>0</asrwt>
<pdfrwt beam="1">  1        2 0.87016512E-01 0.16256667E+04</pdfrwt>
<pdfrwt beam="2">  1       -1 0.17971100E+00 0.16256667E+04</pdfrwt>
<totfact> 0.12175316E+01</totfact>
</mgrwt>
</event>
<event>
12    6  0.9533401E-008  0.2050460E+04  0.7818608E-02  0.8583386E-01
          2   -1    0    0  501    0  0.00000000000E+00  0.00000000000E+00  0.61462700041E+03  0.61462700041E+03  0.00000000000E+00 0. -1.
         -1   -1    0    0    0  501 -0.00000000000E+00 -0.00000000000E+00 -0.17101366042E+04  0.17101366042E+04  0.00000000000E+00 0.  1.
         24    2    1    2    0    0 -0.36153513969E+03  0.43346981560E+03 -0.11156427054E+04  0.12531481191E+04  0.84367197361E+02 0.  0.
        254    2    1    2    0    0  0.36153513969E+03 -0.43346981560E+03  0.20133101536E+02  0.10716154856E+04  0.91068692147E+03 0.  0.
         23    2    4    4    0    0  0.18108300166E+03  0.24532790721E+03 -0.13640003286E+03  0.34602941107E+03  0.90302540479E+02 0.  0.
         23    2    4    4    0    0  0.18045213802E+03 -0.67879772281E+03  0.15653313439E+03  0.72558607453E+03  0.92968848478E+02 0.  0.
          2    1    3    3  502    0 -0.86355707692E+02  0.15002762827E+03 -0.39654938379E+03  0.43268581127E+03  0.00000000000E+00 0. -1.
         -1    1    3    3    0  502 -0.27517943199E+03  0.28344218733E+03 -0.71909332158E+03  0.82046230778E+03  0.00000000000E+00 0.  1.
         11    1    5    5    0    0  0.89802396363E+02  0.11832782581E+03 -0.17517798755E+02  0.14957545931E+03  0.00000000000E+00 0.  1.
        -11    1    5    5    0    0  0.91280605299E+02  0.12700008139E+03 -0.11888223410E+03  0.19645395176E+03  0.00000000000E+00 0. -1.
          4    1    6    6  503    0  0.60422088319E+02 -0.39563731637E+03  0.72219953936E+02  0.40668837776E+03  0.00000000000E+00 0.  1.
         -4    1    6    6    0  503  0.12003004971E+03 -0.28316040643E+03  0.84313180457E+02  0.31889769677E+03  0.00000000000E+00 0. -1.
<mgrwt>
<rscale>  0 0.20504596E+04</rscale>
<asrwt>0</asrwt>
<pdfrwt beam="1">  1        2 0.94558002E-01 0.20504596E+04</pdfrwt>
<pdfrwt beam="2">  1       -1 0.26309793E+00 0.20504596E+04</pdfrwt>
<totfact> 0.29151804E+00</totfact>
</mgrwt>
</event>
<event>
12    6  0.9533401E-008  0.4043322E+04  0.7818608E-02  0.7995864E-01
         -1   -1    0    0    0  501 -0.00000000000E+00  0.00000000000E+00  0.16156800741E+04  0.16156800741E+04  0.00000000000E+00 0.  1.
          2   -1    0    0  501    0  0.00000000000E+00 -0.00000000000E+00 -0.25296554865E+04  0.25296554865E+04  0.00000000000E+00 0. -1.
         24    2    1    2    0    0  0.13208139587E+04 -0.13667642471E+04 -0.14680107849E+03  0.19079538083E+04  0.78378297097E+02 0.  0.
        254    2    1    2    0    0 -0.13208139587E+04  0.13667642471E+04 -0.76717433397E+03  0.22373817523E+04  0.89706556397E+03 0.  0.
         23    2    4    4    0    0 -0.46315999335E+02  0.60536005678E+03 -0.21265453543E+03  0.64982625793E+03  0.91903448882E+02 0.  0.
         23    2    4    4    0    0 -0.12744979593E+04  0.76140419033E+03 -0.55451979855E+03  0.15875554943E+04  0.93588734368E+02 0.  0.
          2    1    3    3  502    0  0.62208830025E+03 -0.68176412074E+03 -0.42259419120E+02  0.92389503091E+03  0.00000000000E+00 0. -1.
         -1    1    3    3    0  502  0.69872565842E+03 -0.68500012638E+03 -0.10454165937E+03  0.98405877742E+03  0.00000000000E+00 0.  1.
         11    1    5    5    0    0 -0.30469371408E+02  0.20631516106E+03 -0.30076725178E+02  0.21071055426E+03  0.00000000000E+00 0. -1.
        -11    1    5    5    0    0 -0.15846627927E+02  0.39904489572E+03 -0.18257781025E+03  0.43911570367E+03  0.00000000000E+00 0.  1.
          3    1    6    6  503    0 -0.75397136619E+03  0.41152237166E+03 -0.35451332804E+03  0.92924871976E+03  0.00000000000E+00 0. -1.
         -3    1    6    6    0  503 -0.52052659315E+03  0.34988181867E+03 -0.20000647051E+03  0.65830677458E+03  0.00000000000E+00 0.  1.
<mgrwt>
<rscale>  0 0.40433224E+04</rscale>
<asrwt>0</asrwt>
<pdfrwt beam="1">  1        2 0.38917777E+00 0.40433224E+04</pdfrwt>
<pdfrwt beam="2">  1       -1 0.24856617E+00 0.40433224E+04</pdfrwt>
<totfact> 0.21296219E-01</totfact>
</mgrwt>
</event>
<event>
12    6  0.9533401E-008  0.2635234E+04  0.7818608E-02  0.8356330E-01
          2   -1    0    0  501    0  0.00000000000E+00  0.00000000000E+00  0.13784165789E+04  0.13784165789E+04  0.00000000000E+00 0. -1.
         -1   -1    0    0    0  501 -0.00000000000E+00 -0.00000000000E+00 -0.12594995342E+04  0.12594995342E+04  0.00000000000E+00 0.  1.
         24    2    1    2    0    0  0.20685690497E+03  0.60680050220E+03 -0.91879284447E+03  0.11230158973E+04  0.77380785714E+02 0.  0.
        254    2    1    2    0    0 -0.20685690497E+03 -0.60680050220E+03  0.10377098891E+04  0.15149002158E+04  0.89837866244E+03 0.  0.
         23    2    4    4    0    0 -0.53647376617E+03 -0.34032984359E+03  0.44720486468E+03  0.78233067627E+03  0.91763782750E+02 0.  0.
         23    2    4    4    0    0  0.32961686120E+03 -0.26647065861E+03  0.59050502445E+03  0.73256953949E+03  0.91148555680E+02 0.  0.
          4    1    3    3  502    0 -0.59773656794E+01  0.83481775184E+01 -0.10694947836E+02  0.14825750489E+02  0.00000000000E+00 0. -1.
         -3    1    3    3    0  502  0.21283427065E+03  0.59845232468E+03 -0.90809789664E+03  0.11081901468E+04  0.00000000000E+00 0.  1.
         11    1    5    5    0    0 -0.53504911439E+03 -0.32524857984E+03  0.44146973246E+03  0.76613296377E+03  0.00000000000E+00 0.  1.
        -11    1    5    5    0    0 -0.14246517772E+01 -0.15081263741E+02  0.57351322227E+01  0.16197712503E+02  0.00000000000E+00 0. -1.
          1    1    6    6  503    0  0.10610580790E+03 -0.13705761281E+03  0.27163142820E+03  0.32222176290E+03  0.00000000000E+00 0. -1.
         -1    1    6    6    0  503  0.22351105329E+03 -0.12941304580E+03  0.31887359626E+03  0.41034777660E+03  0.00000000000E+00 0.  1.
<mgrwt>
<rscale>  0 0.26352344E+04</rscale>
<asrwt>0</asrwt>
<pdfrwt beam="1">  1        2 0.21206409E+00 0.26352344E+04</pdfrwt>
<pdfrwt beam="2">  1       -1 0.19376916E+00 0.26352344E+04</pdfrwt>
<totfact> 0.24875368E+00</totfact>
</mgrwt>
</event>
<event>
12    6  0.9533401E-008  0.2659092E+04  0.7818608E-02  0.8348401E-01
          2   -1    0    0  501    0  0.00000000000E+00  0.00000000000E+00  0.23210708060E+04  0.23210708060E+04  0.00000000000E+00 0. -1.
         -1   -1    0    0    0  501 -0.00000000000E+00 -0.00000000000E+00 -0.76158508316E+03  0.76158508316E+03  0.00000000000E+00 0.  1.
         24    2    1    2    0    0 -0.72343052679E+03 -0.73236376718E+03  0.13476033531E+04  0.16976733962E+04  0.79697856869E+02 0.  0.
        254    2    1    2    0    0  0.72343052679E+03  0.73236376718E+03  0.21188236970E+03  0.13849824929E+04  0.90198334380E+03 0.  0.
         23    2    4    4    0    0  0.41090919567E+03  0.87489237805E+03  0.30507334824E+03  0.10177641819E+04  0.92147392310E+02 0.  0.
         23    2    4    4    0    0  0.31252133111E+03 -0.14252861088E+03 -0.93190978546E+02  0.36721831099E+03  0.90447455054E+02 0.  0.
          2    1    3    3  502    0 -0.67641570949E+03 -0.66909365583E+03  0.12121262740E+04  0.15409330409E+04  0.00000000000E+00 0. -1.
         -1    1    3    3    0  502 -0.47014817299E+02 -0.63270111345E+02  0.13547707908E+03  0.15674035534E+03  0.00000000000E+00 0.  1.
         11    1    5    5    0    0  0.21083545810E+01  0.32417496651E+02 -0.12640899160E+01  0.32510570150E+02  0.00000000000E+00 0.  1.
        -11    1    5    5    0    0  0.40880084109E+03  0.84247488140E+03  0.30633743816E+03  0.98525361176E+03  0.00000000000E+00 0. -1.
          2    1    6    6  503    0  0.74964419237E+02 -0.66697514984E+02  0.18410811013E+01  0.10035742243E+03  0.00000000000E+00 0. -1.
         -2    1    6    6    0  503  0.23755691187E+03 -0.75831095892E+02 -0.95032059647E+02  0.26686088856E+03  0.00000000000E+00 0.  1.
<mgrwt>
<rscale>  0 0.26590923E+04</rscale>
<asrwt>0</asrwt>
<pdfrwt beam="1">  1        2 0.35708781E+00 0.26590923E+04</pdfrwt>
<pdfrwt beam="2">  1       -1 0.11716694E+00 0.26590923E+04</pdfrwt>
<totfact> 0.28966053E+00</totfact>
</mgrwt>
</event>
<event>
12    6  0.9533401E-008  0.1525782E+04  0.7818608E-02  0.8867487E-01
         -1   -1    0    0    0  501 -0.00000000000E+00  0.00000000000E+00  0.22933200913E+03  0.22933200913E+03  0.00000000000E+00 0.  1.
          2   -1    0    0  501    0  0.00000000000E+00 -0.00000000000E+00 -0.25378176884E+04  0.25378176884E+04  0.00000000000E+00 0. -1.
         24    2    1    2    0    0  0.78517890450E+02 -0.37785013856E+03 -0.19464450398E+03  0.43962158070E+03  0.80279916316E+02 0.  0.
        254    2    1    2    0    0 -0.78517890450E+02  0.37785013856E+03 -0.21138411753E+04  0.23275281168E+04  0.89449809051E+03 0.  0.
         23    2    4    4    0    0  0.38302125772E+03  0.10909892792E+03 -0.66114510347E+03  0.77733303728E+03  0.92336033382E+02 0.  0.
         23    2    4    4    0    0 -0.46153914817E+03  0.26875121064E+03 -0.14526960718E+04  0.15501950795E+04  0.86794637249E+02 0.  0.
          2    1    3    3  502    0  0.18494467578E+02 -0.39732778757E+02 -0.51377778240E+02  0.67530845808E+02  0.00000000000E+00 0. -1.
         -1    1    3    3    0  502  0.60023422872E+02 -0.33811735980E+03 -0.14326672574E+03  0.37209073489E+03  0.00000000000E+00 0.  1.
         11    1    5    5    0    0  0.23370218681E+03  0.49612070943E+02 -0.31198808573E+03  0.39295627663E+03  0.00000000000E+00 0.  1.
        -11    1    5    5    0    0  0.14931907091E+03  0.59486856974E+02 -0.34915701774E+03  0.38437676065E+03  0.00000000000E+00 0. -1.
          1    1    6    6  503    0 -0.36196743291E+03  0.20775085854E+03 -0.12277497129E+04  0.12967460041E+04  0.00000000000E+00 0.  1.
         -1    1    6    6    0  503 -0.99571715262E+02  0.61000352095E+02 -0.22494635892E+03  0.25344907541E+03  0.00000000000E+00 0. -1.
<mgrwt>
<rscale>  0 0.15257822E+04</rscale>
<asrwt>0</asrwt>
<pdfrwt beam="1">  1        2 0.39043349E+00 0.15257822E+04</pdfrwt>
<pdfrwt beam="2">  1       -1 0.35281848E-01 0.15257822E+04</pdfrwt>
<totfact> 0.27876675E+01</totfact>
</mgrwt>
</event>
<event>
12    6  0.9533401E-008  0.1331139E+04  0.7818608E-02  0.9005230E-01
          2   -1    0    0  501    0  0.00000000000E+00  0.00000000000E+00  0.19372847748E+04  0.19372847748E+04  0.00000000000E+00 0. -1.
         -1   -1    0    0    0  501 -0.00000000000E+00 -0.00000000000E+00 -0.22866149235E+03  0.22866149235E+03  0.00000000000E+00 0.  1.
         24    2    1    2    0    0 -0.75180719585E+02 -0.21797732939E+03  0.90622147576E+03  0.93874559745E+03  0.82702338972E+02 0.  0.
        254    2    1    2    0    0  0.75180719585E+02  0.21797732939E+03  0.80240180673E+03  0.12272006697E+04  0.89944792382E+03 0.  0.
         23    2    4    4    0    0  0.38803315139E+02  0.42158079901E+03  0.88534530306E+03  0.98602884289E+03  0.95814957115E+02 0.  0.
         23    2    4    4    0    0  0.36377404446E+02 -0.20360346962E+03 -0.82943496332E+02  0.24117182686E+03  0.92230895529E+02 0.  0.
          2    1    3    3  502    0 -0.45422530837E+02 -0.18948028847E+03  0.82467502449E+03  0.84738119052E+03  0.00000000000E+00 0. -1.
         -1    1    3    3    0  502 -0.29758188748E+02 -0.28497040916E+02  0.81546451272E+02  0.91364406929E+02  0.00000000000E+00 0.  1.
         11    1    5    5    0    0  0.45095546640E+02  0.27747865009E+03  0.67272441525E+03  0.72909954632E+03  0.00000000000E+00 0. -1.
        -11    1    5    5    0    0 -0.62922315011E+01  0.14410214892E+03  0.21262088781E+03  0.25692929656E+03  0.00000000000E+00 0.  1.
          2    1    6    6  503    0 -0.26887556525E+02 -0.35726868234E+02 -0.31492256999E+01  0.44824852841E+02  0.00000000000E+00 0. -1.
         -2    1    6    6    0  503  0.63264960971E+02 -0.16787660138E+03 -0.79794270632E+02  0.19634697401E+03  0.00000000000E+00 0.  1.
<mgrwt>
<rscale>  0 0.13311385E+04</rscale>
<asrwt>0</asrwt>
<pdfrwt beam="1">  1        2 0.29804380E+00 0.13311385E+04</pdfrwt>
<pdfrwt beam="2">  1       -1 0.35178692E-01 0.13311385E+04</pdfrwt>
<totfact> 0.62057457E+01</totfact>
</mgrwt>
</event>
<event>
12    6  0.9533401E-008  0.1414292E+04  0.7818608E-02  0.8943538E-01
         -1   -1    0    0    0  501 -0.00000000000E+00  0.00000000000E+00  0.39161450218E+03  0.39161450218E+03  0.00000000000E+00 0.  1.
          2   -1    0    0  501    0  0.00000000000E+00 -0.00000000000E+00 -0.12769065887E+04  0.12769065887E+04  0.00000000000E+00 0. -1.
         24    2    1    2    0    0 -0.34586660013E+03  0.22171682915E+03 -0.27762055640E+03  0.50226883831E+03  0.80117134178E+02 0.  0.
        254    2    1    2    0    0  0.34586660013E+03 -0.22171682915E+03 -0.60767153016E+03  0.11662522526E+04  0.90669596378E+03 0.  0.
         23    2    4    4    0    0  0.27856482904E+03 -0.56212775267E+03 -0.43008636631E+03  0.76563275187E+03  0.87368495182E+02 0.  0.
         23    2    4    4    0    0  0.67301771086E+02  0.34041092352E+03 -0.17758516385E+03  0.40061950073E+03  0.92468203773E+02 0.  0.
          4    1    3    3  502    0 -0.19332862221E+02  0.35962260005E+02 -0.13350829592E+02  0.42956819681E+02  0.00000000000E+00 0. -1.
         -3    1    3    3    0  502 -0.32653373791E+03  0.18575456915E+03 -0.26426972681E+03  0.45931201863E+03  0.00000000000E+00 0.  1.
         11    1    5    5    0    0  0.12559756936E+03 -0.29231818851E+03 -0.26624044293E+03  0.41485979103E+03  0.00000000000E+00 0. -1.
        -11    1    5    5    0    0  0.15296725969E+03 -0.26980956416E+03 -0.16384592338E+03  0.35077296084E+03  0.00000000000E+00 0.  1.
          3    1    6    6  503    0  0.53408329723E+02  0.34104399917E+03 -0.17053971491E+03  0.38502889945E+03  0.00000000000E+00 0. -1.
         -3    1    6    6    0  503  0.13893441363E+02 -0.63307564783E+00 -0.70454489413E+01  0.15590601286E+02  0.00000000000E+00 0.  1.
<mgrwt>
<rscale>  0 0.14142915E+04</rscale>
<asrwt>0</asrwt>
<pdfrwt beam="1">  1        2 0.19644717E+00 0.14142915E+04</pdfrwt>
<pdfrwt beam="2">  1       -1 0.60248385E-01 0.14142915E+04</pdfrwt>
<totfact> 0.52804690E+01</totfact>
</mgrwt>
</event>
<event>
12    6  0.9533401E-008  0.1447779E+04  0.7818608E-02  0.8919942E-01
          2   -1    0    0  501    0  0.00000000000E+00  0.00000000000E+00  0.90504057510E+03  0.90504057510E+03  0.00000000000E+00 0. -1.
         -3   -1    0    0    0  501 -0.00000000000E+00 -0.00000000000E+00 -0.57899734064E+03  0.57899734064E+03  0.00000000000E+00 0.  1.
         24    2    1    2    0    0  0.91074299267E+02 -0.20682246266E+03 -0.29164730186E+03  0.37778394085E+03  0.81194200750E+02 0.  0.
        254    2    1    2    0    0 -0.91074299267E+02  0.20682246266E+03  0.61769053632E+03  0.11062539749E+04  0.88948648065E+03 0.  0.
         23    2    4    4    0    0 -0.11732429935E+02  0.52272173118E+03  0.19659717788E+03  0.56634818293E+03  0.93403189416E+02 0.  0.
         23    2    4    4    0    0 -0.79341869331E+02 -0.31589926852E+03  0.42109335844E+03  0.53990579196E+03  0.89950917717E+02 0.  0.
          4    1    3    3  502    0  0.59435739388E+02 -0.53911601732E+02 -0.13193752761E+03  0.15442337618E+03  0.00000000000E+00 0. -1.
         -1    1    3    3    0  502  0.31638559878E+02 -0.15291086093E+03 -0.15970977425E+03  0.22336056468E+03  0.00000000000E+00 0.  1.
         11    1    5    5    0    0  0.34967589534E+01  0.51309384989E+03  0.19047374628E+03  0.54731871349E+03  0.00000000000E+00 0.  1.
        -11    1    5    5    0    0 -0.15229188889E+02  0.96278812911E+01  0.61234316019E+01  0.19029469434E+02  0.00000000000E+00 0. -1.
          3    1    6    6  503    0 -0.62001936689E+02 -0.94099097534E+02  0.17512204405E+03  0.20824651407E+03  0.00000000000E+00 0. -1.
         -3    1    6    6    0  503 -0.17339932643E+02 -0.22180017098E+03  0.24597131438E+03  0.33165927789E+03  0.00000000000E+00 0.  1.
<mgrwt>
<rscale>  0 0.14477791E+04</rscale>
<asrwt>0</asrwt>
<pdfrwt beam="1">  1        2 0.13923701E+00 0.14477791E+04</pdfrwt>
<pdfrwt beam="2">  1       -3 0.89076513E-01 0.14477791E+04</pdfrwt>
<totfact> 0.20415583E+01</totfact>
</mgrwt>
</event>
<event>
12    6  0.9533401E-008  0.2742354E+04  0.7818608E-02  0.8321392E-01
          2   -1    0    0  501    0  0.00000000000E+00  0.00000000000E+00  0.24110487071E+04  0.24110487071E+04  0.00000000000E+00 0. -1.
         -1   -1    0    0    0  501 -0.00000000000E+00 -0.00000000000E+00 -0.77979615464E+03  0.77979615464E+03  0.00000000000E+00 0.  1.
         24    2    1    2    0    0 -0.27016325718E+03 -0.11788681386E+04  0.47793015517E+03  0.13029082133E+04  0.80214121557E+02 0.  0.
        254    2    1    2    0    0  0.27016325718E+03  0.11788681386E+04  0.11533223973E+04  0.18879366485E+04  0.87831313489E+03 0.  0.
         23    2    4    4    0    0  0.55286197295E+03  0.52163367950E+03  0.49710105145E+03  0.91287938455E+03  0.92093749322E+02 0.  0.
         23    2    4    4    0    0 -0.28269871576E+03  0.65723445908E+03  0.65622134587E+03  0.97505726395E+03  0.90744229118E+02 0.  0.
          2    1    3    3  502    0 -0.24289803950E+03 -0.11093998022E+04  0.46490447212E+03  0.12271526176E+04  0.00000000000E+00 0. -1.
         -1    1    3    3    0  502 -0.27265217683E+02 -0.69468336392E+02  0.13025683050E+02  0.75755595670E+02  0.00000000000E+00 0.  1.
         11    1    5    5    0    0  0.16202508594E+03  0.21281585132E+03  0.17955304512E+03  0.32215215513E+03  0.00000000000E+00 0.  1.
        -11    1    5    5    0    0  0.39083688701E+03  0.30881782818E+03  0.31754800634E+03  0.59072722942E+03  0.00000000000E+00 0. -1.
          1    1    6    6  503    0 -0.25908268295E+03  0.50981725804E+03  0.51757524174E+03  0.77131161281E+03  0.00000000000E+00 0. -1.
         -1    1    6    6    0  503 -0.23616032818E+02  0.14741720104E+03  0.13864610414E+03  0.20374565115E+03  0.00000000000E+00 0.  1.
<mgrwt>
<rscale>  0 0.27423541E+04</rscale>
<asrwt>0</asrwt>
<pdfrwt beam="1">  1        2 0.37093057E+00 0.27423541E+04</pdfrwt>
<pdfrwt beam="2">  1       -1 0.11996864E+00 0.27423541E+04</pdfrwt>
<totfact> 0.24121533E+00</totfact>
</mgrwt>
</event>
<event>
12    6  0.9533401E-008  0.1067766E+04  0.7818608E-02  0.9237191E-01
          2   -1    0    0  501    0  0.00000000000E+00  0.00000000000E+00  0.13399105831E+04  0.13399105831E+04  0.00000000000E+00 0. -1.
         -1   -1    0    0    0  501 -0.00000000000E+00 -0.00000000000E+00 -0.21272410761E+03  0.21272410761E+03  0.00000000000E+00 0.  1.
         24    2    1    2    0    0 -0.87243315507E+02 -0.43405629316E+02  0.13842137685E+03  0.18677574073E+03  0.78925629545E+02 0.  0.
        254    2    1    2    0    0  0.87243315507E+02  0.43405629316E+02  0.98876509861E+03  0.13658589499E+04  0.93723999390E+03 0.  0.
         23    2    4    4    0    0 -0.17906006220E+03  0.26934018587E+03  0.24343706666E+02  0.33585988977E+03  0.87192934915E+02 0.  0.
         23    2    4    4    0    0  0.26630337770E+03 -0.22593455656E+03  0.96442139194E+03  0.10299990602E+04  0.93944291531E+02 0.  0.
          4    1    3    3  502    0 -0.96982699276E+02 -0.21308308274E+02  0.12318615518E+03  0.15822299703E+03  0.00000000000E+00 0. -1.
         -1    1    3    3    0  502  0.97393837693E+01 -0.22097321043E+02  0.15235221661E+02  0.28552743695E+02  0.00000000000E+00 0.  1.
         11    1    5    5    0    0 -0.12021122726E+03  0.17545580158E+03 -0.25786222449E+02  0.21424380210E+03  0.00000000000E+00 0. -1.
        -11    1    5    5    0    0 -0.58848834935E+02  0.93884384289E+02  0.50129929115E+02  0.12161608767E+03  0.00000000000E+00 0.  1.
          3    1    6    6  503    0  0.24386334404E+03 -0.16368378372E+03  0.82369578153E+03  0.87449211096E+03  0.00000000000E+00 0. -1.
         -3    1    6    6    0  503  0.22440033661E+02 -0.62250772838E+02  0.14072561041E+03  0.15550694922E+03  0.00000000000E+00 0.  1.
<mgrwt>
<rscale>  0 0.10677664E+04</rscale>
<asrwt>0</asrwt>
<pdfrwt beam="1">  1        2 0.20614008E+00 0.10677664E+04</pdfrwt>
<pdfrwt beam="2">  1       -1 0.32726787E-01 0.10677664E+04</pdfrwt>
<totfact> 0.15525490E+02</totfact>
</mgrwt>
</event>
<event>
12    6  0.9533401E-008  0.1858403E+04  0.7818608E-02  0.8675844E-01
          2   -1    0    0  501    0  0.00000000000E+00  0.00000000000E+00  0.30096869655E+04  0.30096869655E+04  0.00000000000E+00 0. -1.
         -1   -1    0    0    0  501 -0.00000000000E+00 -0.00000000000E+00 -0.28687876901E+03  0.28687876901E+03  0.00000000000E+00 0.  1.
         24    2    1    2    0    0 -0.46366950043E+03 -0.51910007316E+03  0.83344621406E+03  0.10888478068E+04  0.80639091518E+02 0.  0.
        254    2    1    2    0    0  0.46366950043E+03  0.51910007316E+03  0.18893619824E+04  0.22077179277E+04  0.90546974331E+03 0.  0.
         23    2    4    4    0    0  0.40913886074E+03  0.72238877021E+03  0.17502499528E+04  0.19396000922E+04  0.97126091240E+02 0.  0.
         23    2    4    4    0    0  0.54530639685E+02 -0.20328869705E+03  0.13911202957E+03  0.26811783547E+03  0.90747627590E+02 0.  0.
          4    1    3    3  502    0 -0.53322329814E+02 -0.85084949375E+02  0.87094656839E+02  0.13292177668E+03  0.00000000000E+00 0. -1.
         -3    1    3    3    0  502 -0.41034717061E+03 -0.43401512379E+03  0.74635155722E+03  0.95592603012E+03  0.00000000000E+00 0.  1.
         11    1    5    5    0    0  0.25574257591E+02  0.75889925752E+02  0.23222147277E+03  0.24564229257E+03  0.00000000000E+00 0. -1.
        -11    1    5    5    0    0  0.38356460315E+03  0.64649884446E+03  0.15180284800E+04  0.16939577996E+04  0.00000000000E+00 0.  1.
          1    1    6    6  503    0 -0.25031585258E+01 -0.15166631857E+03  0.10128291576E+03  0.18239289190E+03  0.00000000000E+00 0. -1.
         -1    1    6    6    0  503  0.57033798211E+02 -0.51622378480E+02  0.37829113814E+02  0.85724943571E+02  0.00000000000E+00 0.  1.
<mgrwt>
<rscale>  0 0.18584029E+04</rscale>
<asrwt>0</asrwt>
<pdfrwt beam="1">  1        2 0.46302874E+00 0.18584029E+04</pdfrwt>
<pdfrwt beam="2">  1       -1 0.44135197E-01 0.18584029E+04</pdfrwt>
<totfact> 0.93588715E+00</totfact>
</mgrwt>
</event>
<event>
12    6  0.9533401E-008  0.1272092E+04  0.7818608E-02  0.9051994E-01
          2   -1    0    0  501    0  0.00000000000E+00  0.00000000000E+00  0.25750852396E+04  0.25750852396E+04  0.00000000000E+00 0. -1.
         -1   -1    0    0    0  501 -0.00000000000E+00 -0.00000000000E+00 -0.15710323031E+03  0.15710323031E+03  0.00000000000E+00 0.  1.
         24    2    1    2    0    0  0.87660317106E+02  0.29645373137E+03  0.73143135651E+03  0.79812358221E+03  0.80251337446E+02 0.  0.
        254    2    1    2    0    0 -0.87660317106E+02 -0.29645373137E+03  0.16865506528E+04  0.19340648877E+04  0.89475401054E+03 0.  0.
         23    2    4    4    0    0 -0.52174570767E+02  0.15883375240E+03  0.13418199062E+04  0.13554590763E+04  0.94012233867E+02 0.  0.
         23    2    4    4    0    0 -0.35485746339E+02 -0.45528748377E+03  0.34473074658E+03  0.57860581139E+03  0.86020150352E+02 0.  0.
          2    1    3    3  502    0  0.69293563720E+02  0.24827869588E+03  0.67029360072E+03  0.71814860577E+03  0.00000000000E+00 0. -1.
         -1    1    3    3    0  502  0.18366753386E+02  0.48175035489E+02  0.61137755787E+02  0.79974976442E+02  0.00000000000E+00 0.  1.
         11    1    5    5    0    0  0.14528669526E+02  0.75900845772E+02  0.38069114034E+03  0.38845561517E+03  0.00000000000E+00 0. -1.
        -11    1    5    5    0    0 -0.66703240293E+02  0.82932906628E+02  0.96112876591E+03  0.96700346117E+03  0.00000000000E+00 0.  1.
          2    1    6    6  503    0 -0.69352286218E+01 -0.62821448702E+02  0.89539656733E+02  0.10959918768E+03  0.00000000000E+00 0.  1.
         -2    1    6    6    0  503 -0.28550517717E+02 -0.39246603507E+03  0.25519108985E+03  0.46900662371E+03  0.00000000000E+00 0. -1.
<mgrwt>
<rscale>  0 0.12720915E+04</rscale>
<asrwt>0</asrwt>
<pdfrwt beam="1">  1        2 0.39616693E+00 0.12720915E+04</pdfrwt>
<pdfrwt beam="2">  1       -1 0.24169730E-01 0.12720915E+04</pdfrwt>
<totfact> 0.52566884E+01</totfact>
</mgrwt>
</event>
<event>
12    6  0.1236270E-007  0.1676008E+04  0.7818608E-02  0.8775167E-01
          2   -1    0    0  501    0  0.00000000000E+00  0.00000000000E+00  0.17994425631E+04  0.17994425631E+04  0.00000000000E+00 0. -1.
         -1   -1    0    0    0  501 -0.00000000000E+00 -0.00000000000E+00 -0.39026014794E+03  0.39026014794E+03  0.00000000000E+00 0.  1.
         24    2    1    2    0    0  0.31532632286E+03  0.20416160864E+03  0.11038421232E+04  0.11686697769E+04  0.78796967911E+02 0.  0.
        254    2    1    2    0    0 -0.31532632286E+03 -0.20416160864E+03  0.30534029189E+03  0.10210329341E+04  0.89897881302E+03 0.  0.
         23    2    4    4    0    0 -0.33869314633E+03 -0.52816158197E+03  0.16709248580E+03  0.65632197765E+03  0.95765001434E+02 0.  0.
         23    2    4    4    0    0  0.23366823471E+02  0.32399997332E+03  0.13824780609E+03  0.36471095641E+03  0.91540344575E+02 0.  0.
          4    1    3    3  502    0  0.28408986146E+03  0.16028055706E+03  0.88203320041E+03  0.94041452189E+03  0.00000000000E+00 0. -1.
         -3    1    3    3    0  502  0.31236461396E+02  0.43881051579E+02  0.22180892283E+03  0.22825525504E+03  0.00000000000E+00 0.  1.
         11    1    5    5    0    0 -0.32027099612E+03 -0.44782191555E+03  0.12874922520E+03  0.56541519434E+03  0.00000000000E+00 0.  1.
        -11    1    5    5    0    0 -0.18422150208E+02 -0.80339666416E+02  0.38343260591E+02  0.90906783306E+02  0.00000000000E+00 0. -1.
          2    1    6    6  503    0  0.52554128866E+02  0.27515861832E+03  0.10762385564E+03  0.30009514491E+03  0.00000000000E+00 0.  1.
         -2    1    6    6    0  503 -0.29187305394E+02  0.48841355008E+02  0.30623950446E+02  0.64615811502E+02  0.00000000000E+00 0. -1.
<mgrwt>
<rscale>  0 0.16760080E+04</rscale>
<asrwt>0</asrwt>
<pdfrwt beam="1">  1        2 0.27683731E+00 0.16760080E+04</pdfrwt>
<pdfrwt beam="2">  1       -1 0.60040024E-01 0.16760080E+04</pdfrwt>
<totfact> 0.26374884E+01</totfact>
</mgrwt>
</event>
<event>
12    6  0.9533401E-008  0.2461693E+04  0.7818608E-02  0.8416761E-01
         -1   -1    0    0    0  501 -0.00000000000E+00  0.00000000000E+00  0.80194129463E+03  0.80194129463E+03  0.00000000000E+00 0.  1.
          2   -1    0    0  501    0  0.00000000000E+00 -0.00000000000E+00 -0.18891444519E+04  0.18891444519E+04  0.00000000000E+00 0. -1.
         24    2    1    2    0    0  0.60375109502E+03 -0.50304953223E+03  0.31319835499E+03  0.84989182857E+03  0.81539524712E+02 0.  0.
        254    2    1    2    0    0 -0.60375109502E+03  0.50304953223E+03 -0.14004015123E+04  0.18411939180E+04  0.90071995171E+03 0.  0.
         23    2    4    4    0    0  0.20016632387E+03 -0.26798808814E+01 -0.13946835419E+03  0.26003010055E+03  0.89947164501E+02 0.  0.
         23    2    4    4    0    0 -0.80391741889E+03  0.50572941311E+03 -0.12609331581E+04  0.15811638174E+04  0.89895120487E+02 0.  0.
          4    1    3    3  502    0  0.31335442011E+03 -0.27761316224E+03  0.12508159211E+03  0.43692729960E+03  0.00000000000E+00 0. -1.
         -3    1    3    3    0  502  0.29039667491E+03 -0.22543636999E+03  0.18811676287E+03  0.41296452897E+03  0.00000000000E+00 0.  1.
         11    1    5    5    0    0  0.12194487262E+03 -0.83645584555E+00 -0.30190919265E+02  0.12562938838E+03  0.00000000000E+00 0.  1.
        -11    1    5    5    0    0  0.78221451245E+02 -0.18434250359E+01 -0.10927743492E+03  0.13440071218E+03  0.00000000000E+00 0. -1.
          1    1    6    6  503    0 -0.36489000704E+03  0.25811457252E+03 -0.65549510186E+03  0.79337360578E+03  0.00000000000E+00 0. -1.
         -1    1    6    6    0  503 -0.43902741185E+03  0.24761484059E+03 -0.60543805625E+03  0.78779021166E+03  0.00000000000E+00 0.  1.
<mgrwt>
<rscale>  0 0.24616929E+04</rscale>
<asrwt>0</asrwt>
<pdfrwt beam="1">  1        2 0.29063761E+00 0.24616929E+04</pdfrwt>
<pdfrwt beam="2">  1       -1 0.12337558E+00 0.24616929E+04</pdfrwt>
<totfact> 0.45325683E+00</totfact>
</mgrwt>
</event>
<event>
12    6  0.9533401E-008  0.1667842E+04  0.7818608E-02  0.8779921E-01
         -1   -1    0    0    0  501 -0.00000000000E+00  0.00000000000E+00  0.86695137795E+03  0.86695137795E+03  0.00000000000E+00 0.  1.
          2   -1    0    0  501    0  0.00000000000E+00 -0.00000000000E+00 -0.80214867425E+03  0.80214867425E+03  0.00000000000E+00 0. -1.
         24    2    1    2    0    0 -0.39915107953E+03 -0.34911869683E+03 -0.19064535055E+03  0.56942051297E+03  0.81783996878E+02 0.  0.
        254    2    1    2    0    0  0.39915107953E+03  0.34911869683E+03  0.25544805425E+03  0.10996795392E+04  0.92888962304E+03 0.  0.
         23    2    4    4    0    0  0.61177580535E+03  0.44389153348E+03  0.34245261872E+03  0.83456314397E+03  0.88952322560E+02 0.  0.
         23    2    4    4    0    0 -0.21262472582E+03 -0.94772836645E+02 -0.87004564472E+02  0.26511639526E+03  0.92334956528E+02 0.  0.
          4    1    3    3  502    0 -0.15895190425E+03 -0.10714541093E+03 -0.36020588405E+02  0.19504699366E+03  0.00000000000E+00 0. -1.
         -3    1    3    3    0  502 -0.24019917528E+03 -0.24197328590E+03 -0.15462476214E+03  0.37437351931E+03  0.00000000000E+00 0.  1.
         11    1    5    5    0    0  0.79213868995E+02  0.24936539146E+02  0.28909808192E+02  0.87934322283E+02  0.00000000000E+00 0.  1.
        -11    1    5    5    0    0  0.53256193636E+03  0.41895499433E+03  0.31354281053E+03  0.74662882168E+03  0.00000000000E+00 0. -1.
          4    1    6    6  503    0 -0.18729237642E+03 -0.10379058409E+03 -0.50893092404E+02  0.22009322222E+03  0.00000000000E+00 0. -1.
         -4    1    6    6    0  503 -0.25332349401E+02  0.90177474496E+01 -0.36111472068E+02  0.45023173035E+02  0.00000000000E+00 0.  1.
<mgrwt>
<rscale>  0 0.16678416E+04</rscale>
<asrwt>0</asrwt>
<pdfrwt beam="1">  1        2 0.12340749E+00 0.16678416E+04</pdfrwt>
<pdfrwt beam="2">  1       -1 0.13337713E+00 0.16678416E+04</pdfrwt>
<totfact> 0.17762821E+01</totfact>
</mgrwt>
</event>
<event>
12    6  0.9533401E-008  0.1212099E+04  0.7818608E-02  0.9102332E-01
         -1   -1    0    0    0  501 -0.00000000000E+00  0.00000000000E+00  0.50211676418E+03  0.50211676418E+03  0.00000000000E+00 0.  1.
          2   -1    0    0  501    0  0.00000000000E+00 -0.00000000000E+00 -0.73149483642E+03  0.73149483642E+03  0.00000000000E+00 0. -1.
         24    2    1    2    0    0  0.30862221149E+02  0.17018439177E+03  0.15017756074E+03  0.24258716827E+03  0.79875093528E+02 0.  0.
        254    2    1    2    0    0 -0.30862221149E+02 -0.17018439177E+03 -0.37955563297E+03  0.99102443233E+03  0.89897260418E+03 0.  0.
         23    2    4    4    0    0 -0.31562103964E+03 -0.38897437357E+03 -0.35362946664E+03  0.61972101914E+03  0.89903492362E+02 0.  0.
         23    2    4    4    0    0  0.28475881849E+03  0.21878998180E+03 -0.25926166330E+02  0.37130341319E+03  0.90760220925E+02 0.  0.
          2    1    3    3  502    0 -0.12190967700E+02  0.25870751897E+01  0.28337177577E+02  0.30956554791E+02  0.00000000000E+00 0. -1.
         -1    1    3    3    0  502  0.43053188849E+02  0.16759731658E+03  0.12184038316E+03  0.21163061348E+03  0.00000000000E+00 0.  1.
         11    1    5    5    0    0 -0.25274715756E+03 -0.34024979554E+03 -0.32866938567E+03  0.53635306851E+03  0.00000000000E+00 0.  1.
        -11    1    5    5    0    0 -0.62873882081E+02 -0.48724578021E+02 -0.24960080974E+02  0.83367950637E+02  0.00000000000E+00 0. -1.
          3    1    6    6  503    0  0.85525078204E+02  0.11498413045E+03  0.10615907006E+02  0.14369616118E+03  0.00000000000E+00 0. -1.
         -3    1    6    6    0  503  0.19923374028E+03  0.10380585135E+03 -0.36542073336E+02  0.22760725201E+03  0.00000000000E+00 0.  1.
<mgrwt>
<rscale>  0 0.12120987E+04</rscale>
<asrwt>0</asrwt>
<pdfrwt beam="1">  1        2 0.11253767E+00 0.12120987E+04</pdfrwt>
<pdfrwt beam="2">  1       -1 0.77248733E-01 0.12120987E+04</pdfrwt>
<totfact> 0.73307662E+01</totfact>
</mgrwt>
</event>
<event>
12    6  0.9533401E-008  0.1592707E+04  0.7818608E-02  0.8825041E-01
         -1   -1    0    0    0  501 -0.00000000000E+00  0.00000000000E+00  0.19618333040E+03  0.19618333040E+03  0.00000000000E+00 0.  1.
          2   -1    0    0  501    0  0.00000000000E+00 -0.00000000000E+00 -0.32325849653E+04  0.32325849653E+04  0.00000000000E+00 0. -1.
         24    2    1    2    0    0  0.11850362976E+02  0.52036639108E+03 -0.13500757889E+04  0.14492109651E+04  0.81155242533E+02 0.  0.
        254    2    1    2    0    0 -0.11850362976E+02 -0.52036639108E+03 -0.16863258460E+04  0.19795573307E+04  0.89667762010E+03 0.  0.
         23    2    4    4    0    0  0.22938780427E+03 -0.24541451679E+03 -0.11923522563E+03  0.36750421726E+03  0.89416222654E+02 0.  0.
         23    2    4    4    0    0 -0.24123816725E+03 -0.27495187429E+03 -0.15670906204E+04  0.16120531134E+04  0.95644348762E+02 0.  0.
          2    1    3    3  502    0  0.13142555883E+02  0.46545616610E+03 -0.11255808163E+04  0.12180945543E+04  0.00000000000E+00 0. -1.
         -1    1    3    3    0  502 -0.12921929066E+01  0.54910224983E+02 -0.22449497262E+03  0.23111641071E+03  0.00000000000E+00 0.  1.
         11    1    5    5    0    0  0.52584488715E+02 -0.14985958192E+02 -0.32991788869E+01  0.54777659476E+02  0.00000000000E+00 0.  1.
        -11    1    5    5    0    0  0.17680331555E+03 -0.23042855860E+03 -0.11593604674E+03  0.31272655778E+03  0.00000000000E+00 0. -1.
          2    1    6    6  503    0 -0.23543717904E+02  0.32871637758E+01 -0.13156166916E+03  0.13369212726E+03  0.00000000000E+00 0. -1.
         -2    1    6    6    0  503 -0.21769444934E+03 -0.27823903807E+03 -0.14355289512E+04  0.14783609861E+04  0.00000000000E+00 0.  1.
<mgrwt>
<rscale>  0 0.15927075E+04</rscale>
<asrwt>0</asrwt>
<pdfrwt beam="1">  1        2 0.49732073E+00 0.15927075E+04</pdfrwt>
<pdfrwt beam="2">  1       -1 0.30182053E-01 0.15927075E+04</pdfrwt>
<totfact> 0.13733755E+01</totfact>
</mgrwt>
</event>
<event>
12    6  0.9533401E-008  0.3681636E+04  0.7818608E-02  0.8072044E-01
         -1   -1    0    0    0  501 -0.00000000000E+00  0.00000000000E+00  0.31709168442E+04  0.31709168442E+04  0.00000000000E+00 0.  1.
          2   -1    0    0  501    0  0.00000000000E+00 -0.00000000000E+00 -0.10686534425E+04  0.10686534425E+04  0.00000000000E+00 0. -1.
         24    2    1    2    0    0 -0.79177614121E+03 -0.89322519034E+03  0.24333023772E+04  0.27114468792E+04  0.78886128466E+02 0.  0.
        254    2    1    2    0    0  0.79177614121E+03  0.89322519034E+03 -0.33103897548E+03  0.15281234075E+04  0.89488191779E+03 0.  0.
         23    2    4    4    0    0  0.64778778517E+02  0.16950287340E+03 -0.44757545965E+03  0.49173745239E+03  0.92490084633E+02 0.  0.
         23    2    4    4    0    0  0.72699736269E+03  0.72372231694E+03  0.11653648418E+03  0.10363859551E+04  0.90641813745E+02 0.  0.
          4    1    3    3  502    0 -0.16111168620E+03 -0.18996261797E+03  0.43905550195E+03  0.50478956551E+03  0.00000000000E+00 0. -1.
         -3    1    3    3    0  502 -0.63066445500E+03 -0.70326257237E+03  0.19942468753E+04  0.22066573137E+04  0.00000000000E+00 0.  1.
         11    1    5    5    0    0  0.49692327737E+02  0.16262409811E+03 -0.31356954593E+03  0.35670966465E+03  0.00000000000E+00 0. -1.
        -11    1    5    5    0    0  0.15086450779E+02  0.68787752922E+01 -0.13400591373E+03  0.13502778773E+03  0.00000000000E+00 0.  1.
          3    1    6    6  503    0  0.63989096511E+03  0.67267696759E+03  0.11405085220E+03  0.93539422002E+03  0.00000000000E+00 0. -1.
         -3    1    6    6    0  503  0.87106397576E+02  0.51045349350E+02  0.24856319749E+01  0.10099173508E+03  0.00000000000E+00 0.  1.
<mgrwt>
<rscale>  0 0.36816362E+04</rscale>
<asrwt>0</asrwt>
<pdfrwt beam="1">  1        2 0.16440822E+00 0.36816362E+04</pdfrwt>
<pdfrwt beam="2">  1       -1 0.48783336E+00 0.36816362E+04</pdfrwt>
<totfact> 0.37626524E-02</totfact>
</mgrwt>
</event>
<event>
12    6  0.9533401E-008  0.1861821E+04  0.7818608E-02  0.8674097E-01
          2   -1    0    0  501    0  0.00000000000E+00  0.00000000000E+00  0.15933512611E+04  0.15933512611E+04  0.00000000000E+00 0. -1.
         -1   -1    0    0    0  501 -0.00000000000E+00 -0.00000000000E+00 -0.54388146662E+03  0.54388146662E+03  0.00000000000E+00 0.  1.
         24    2    1    2    0    0  0.27839335754E+03  0.42604627571E+02 -0.34347169447E+03  0.45183868788E+03  0.82869651601E+02 0.  0.
        254    2    1    2    0    0 -0.27839335754E+03 -0.42604627571E+02  0.13929414889E+04  0.16853940398E+04  0.90606239413E+03 0.  0.
         23    2    4    4    0    0 -0.54615001272E+03  0.18892288857E+03  0.84697566098E+03  0.10294444973E+04  0.91741531562E+02 0.  0.
         23    2    4    4    0    0  0.26775665518E+03 -0.23152751614E+03  0.54596582797E+03  0.65594954249E+03  0.83021080765E+02 0.  0.
          4    1    3    3  502    0  0.66819343748E+02  0.26181698268E+01 -0.34513870645E+02  0.75252154647E+02  0.00000000000E+00 0. -1.
         -3    1    3    3    0  502  0.21157401379E+03  0.39986457745E+02 -0.30895782382E+03  0.37658653323E+03  0.00000000000E+00 0.  1.
         11    1    5    5    0    0 -0.17014300520E+03  0.10443117081E+03  0.29898608886E+03  0.35950965632E+03  0.00000000000E+00 0.  1.
        -11    1    5    5    0    0 -0.37600700752E+03  0.84491717756E+02  0.54798957211E+03  0.66993484102E+03  0.00000000000E+00 0. -1.
          4    1    6    6  503    0  0.97475916222E+02 -0.43478883719E+02  0.20306694279E+03  0.22940826233E+03  0.00000000000E+00 0. -1.
         -4    1    6    6    0  503  0.17028073896E+03 -0.18804863242E+03  0.34289888518E+03  0.42654128015E+03  0.00000000000E+00 0.  1.
<mgrwt>
<rscale>  0 0.18618209E+04</rscale>
<asrwt>0</asrwt>
<pdfrwt beam="1">  1        2 0.24513096E+00 0.18618209E+04</pdfrwt>
<pdfrwt beam="2">  1       -1 0.83674072E-01 0.18618209E+04</pdfrwt>
<totfact> 0.17051661E+01</totfact>
</mgrwt>
</event>
<event>
12    6  0.9533401E-008  0.1540025E+04  0.7818608E-02  0.8858264E-01
         -1   -1    0    0    0  501 -0.00000000000E+00  0.00000000000E+00  0.64308144738E+03  0.64308144738E+03  0.00000000000E+00 0.  1.
          2   -1    0    0  501    0  0.00000000000E+00 -0.00000000000E+00 -0.92199719925E+03  0.92199719925E+03  0.00000000000E+00 0. -1.
         24    2    1    2    0    0  0.44825830814E+02  0.29918405946E+02 -0.60722473447E+03  0.61463244156E+03  0.78400854260E+02 0.  0.
        254    2    1    2    0    0 -0.44825830814E+02 -0.29918405946E+02  0.32830898260E+03  0.95044620506E+03  0.89031271727E+03 0.  0.
         23    2    4    4    0    0  0.64862620567E+02 -0.27256608941E+03 -0.19727746580E+03  0.35435009010E+03  0.90256053550E+02 0.  0.
         23    2    4    4    0    0 -0.10968845138E+03  0.24264768347E+03  0.52558644840E+03  0.59609611496E+03  0.90443401474E+02 0.  0.
          2    1    3    3  502    0  0.19496256825E+02  0.23998244479E+02 -0.55887373600E+03  0.55972839177E+03  0.00000000000E+00 0. -1.
         -1    1    3    3    0  502  0.25329573989E+02  0.59201614668E+01 -0.48350998472E+02  0.54904049791E+02  0.00000000000E+00 0.  1.
         11    1    5    5    0    0 -0.21686332844E+02 -0.80572704809E+02 -0.48665412415E+02  0.96594928221E+02  0.00000000000E+00 0.  1.
        -11    1    5    5    0    0  0.86548953411E+02 -0.19199338460E+03 -0.14861205338E+03  0.25775516188E+03  0.00000000000E+00 0. -1.
          1    1    6    6  503    0 -0.72360341968E+02  0.65936779038E+02  0.22578574827E+03  0.24609527025E+03  0.00000000000E+00 0. -1.
         -1    1    6    6    0  503 -0.37328109413E+02  0.17671090443E+03  0.29980070013E+03  0.35000084471E+03  0.00000000000E+00 0.  1.
<mgrwt>
<rscale>  0 0.15400251E+04</rscale>
<asrwt>0</asrwt>
<pdfrwt beam="1">  1        2 0.14184572E+00 0.15400251E+04</pdfrwt>
<pdfrwt beam="2">  1       -1 0.98935608E-01 0.15400251E+04</pdfrwt>
<totfact> 0.30436122E+01</totfact>
</mgrwt>
</event>
<event>
12    6  0.9533401E-008  0.1733455E+04  0.7818608E-02  0.8742510E-01
          2   -1    0    0  501    0  0.00000000000E+00  0.00000000000E+00  0.11304897207E+04  0.11304897207E+04  0.00000000000E+00 0. -1.
         -1   -1    0    0    0  501 -0.00000000000E+00 -0.00000000000E+00 -0.66450560413E+03  0.66450560413E+03  0.00000000000E+00 0.  1.
         24    2    1    2    0    0 -0.38251328245E+03 -0.50157902234E+03  0.15720621130E+03  0.65503298724E+03  0.80352315471E+02 0.  0.
        254    2    1    2    0    0  0.38251328245E+03  0.50157902234E+03  0.30877790524E+03  0.11399623376E+04  0.89792672830E+03 0.  0.
         23    2    4    4    0    0  0.21076393896E+03  0.27739842961E+03 -0.29591883010E+03  0.46620541450E+03  0.91696280129E+02 0.  0.
         23    2    4    4    0    0  0.17174934349E+03  0.22418059273E+03  0.60469673534E+03  0.67375692306E+03  0.92387631739E+02 0.  0.
          4    1    3    3  502    0 -0.44299995345E+02 -0.30527168563E+02 -0.14734778628E+01  0.53819780240E+02  0.00000000000E+00 0. -1.
         -3    1    3    3    0  502 -0.33821328710E+03 -0.47105185378E+03  0.15867968916E+03  0.60121320700E+03  0.00000000000E+00 0.  1.
         11    1    5    5    0    0  0.13632028017E+03  0.10460961966E+03 -0.15034101607E+03  0.22831735024E+03  0.00000000000E+00 0. -1.
        -11    1    5    5    0    0  0.74443658790E+02  0.17278880995E+03 -0.14557781404E+03  0.23788806426E+03  0.00000000000E+00 0.  1.
          1    1    6    6  503    0  0.96021087644E+02  0.18657710177E+03  0.47011742686E+03  0.51482177423E+03  0.00000000000E+00 0. -1.
         -1    1    6    6    0  503  0.75728255843E+02  0.37603490963E+02  0.13457930847E+03  0.15893514883E+03  0.00000000000E+00 0.  1.
<mgrwt>
<rscale>  0 0.17334552E+04</rscale>
<asrwt>0</asrwt>
<pdfrwt beam="1">  1        2 0.17392150E+00 0.17334552E+04</pdfrwt>
<pdfrwt beam="2">  1       -1 0.10223163E+00 0.17334552E+04</pdfrwt>
<totfact> 0.20461966E+01</totfact>
</mgrwt>
</event>
<event>
12    6  0.9533401E-008  0.2709283E+04  0.7818608E-02  0.8331999E-01
          2   -1    0    0  501    0  0.00000000000E+00  0.00000000000E+00  0.27955392354E+04  0.27955392354E+04  0.00000000000E+00 0. -1.
         -1   -1    0    0    0  501 -0.00000000000E+00 -0.00000000000E+00 -0.65642203805E+03  0.65642203805E+03  0.00000000000E+00 0.  1.
         24    2    1    2    0    0  0.50678756200E+02 -0.33011763314E+03  0.24240231793E+04  0.24491395696E+04  0.10416462822E+03 0.  0.
        254    2    1    2    0    0 -0.50678756200E+02  0.33011763314E+03 -0.28490598197E+03  0.10028217038E+04  0.90162850608E+03 0.  0.
         23    2    4    4    0    0 -0.39869568396E+03 -0.39498442128E+02  0.48949027724E+01  0.41126652893E+03  0.92724443439E+02 0.  0.
         23    2    4    4    0    0  0.34801692776E+03  0.36961607527E+03 -0.28980088474E+03  0.59155517484E+03  0.90670540884E+02 0.  0.
          4    1    3    3  502    0  0.53066331853E+02 -0.14392798872E+03  0.80877083797E+03  0.82318987473E+03  0.00000000000E+00 0. -1.
         -3    1    3    3    0  502 -0.23875756525E+01 -0.18618964442E+03  0.16152523413E+04  0.16259496949E+04  0.00000000000E+00 0.  1.
         11    1    5    5    0    0 -0.19868347958E+03 -0.57461967311E+02  0.29607361741E+02  0.20893443616E+03  0.00000000000E+00 0. -1.
        -11    1    5    5    0    0 -0.20001220438E+03  0.17963525182E+02 -0.24712458969E+02  0.20233209277E+03  0.00000000000E+00 0.  1.
          3    1    6    6  503    0  0.24285469924E+03  0.31322191979E+03 -0.21977607640E+03  0.45319741806E+03  0.00000000000E+00 0. -1.
         -3    1    6    6    0  503  0.10516222852E+03  0.56394155484E+02 -0.70024808341E+02  0.13835775678E+03  0.00000000000E+00 0.  1.
<mgrwt>
<rscale>  0 0.27092830E+04</rscale>
<asrwt>0</asrwt>
<pdfrwt beam="1">  1        2 0.43008295E+00 0.27092830E+04</pdfrwt>
<pdfrwt beam="2">  1       -1 0.10098801E+00 0.27092830E+04</pdfrwt>
<totfact> 0.21600609E+00</totfact>
</mgrwt>
</event>
<event>
12    6  0.9533401E-008  0.2091639E+04  0.7818608E-02  0.8564935E-01
          2   -1    0    0  501    0  0.00000000000E+00  0.00000000000E+00  0.33972436824E+04  0.33972436824E+04  0.00000000000E+00 0. -1.
         -1   -1    0    0    0  501 -0.00000000000E+00 -0.00000000000E+00 -0.32194890887E+03  0.32194890887E+03  0.00000000000E+00 0.  1.
         24    2    1    2    0    0 -0.74972151219E+03  0.25361854212E+03  0.18328476168E+04  0.19980520312E+04  0.80478707403E+02 0.  0.
        254    2    1    2    0    0  0.74972151219E+03 -0.25361854212E+03  0.12424471567E+04  0.17211405601E+04  0.89008155772E+03 0.  0.
         23    2    4    4    0    0  0.84883392927E+03 -0.11166335050E+03  0.12551439654E+04  0.15219433746E+04  0.89092751164E+02 0.  0.
         23    2    4    4    0    0 -0.99112417081E+02 -0.14195519162E+03 -0.12696808660E+02  0.19919718544E+03  0.97692180283E+02 0.  0.
          2    1    3    3  502    0 -0.19571300339E+03  0.60217140134E+02  0.39105129865E+03  0.44141907734E+03  0.00000000000E+00 0. -1.
         -3    1    3    3    0  502 -0.55400850880E+03  0.19340140198E+03  0.14417963181E+04  0.15566329539E+04  0.00000000000E+00 0.  1.
         11    1    5    5    0    0  0.32270711814E+03 -0.55818942093E+02  0.40841952779E+03  0.52350945462E+03  0.00000000000E+00 0. -1.
        -11    1    5    5    0    0  0.52612681113E+03 -0.55844408406E+02  0.84672443762E+03  0.99843392000E+03  0.00000000000E+00 0.  1.
          2    1    6    6  503    0 -0.70912688151E+02 -0.22677176591E+02  0.80614416198E+01  0.74885582858E+02  0.00000000000E+00 0. -1.
         -2    1    6    6    0  503 -0.28199728929E+02 -0.11927801503E+03 -0.20758250279E+02  0.12431160258E+03  0.00000000000E+00 0.  1.
<mgrwt>
<rscale>  0 0.20916394E+04</rscale>
<asrwt>0</asrwt>
<pdfrwt beam="1">  1        2 0.52265285E+00 0.20916394E+04</pdfrwt>
<pdfrwt beam="2">  1       -1 0.49530604E-01 0.20916394E+04</pdfrwt>
<totfact> 0.41229806E+00</totfact>
</mgrwt>
</event>
<event>
12    6  0.9533401E-008  0.4237062E+04  0.7818608E-02  0.7958359E-01
         -1   -1    0    0    0  501 -0.00000000000E+00  0.00000000000E+00  0.12353672288E+04  0.12353672288E+04  0.00000000000E+00 0.  1.
          2   -1    0    0  501    0  0.00000000000E+00 -0.00000000000E+00 -0.36330684793E+04  0.36330684793E+04  0.00000000000E+00 0. -1.
         24    2    1    2    0    0  0.10518067382E+04 -0.34679779134E+02 -0.31301106100E+04  0.33030604410E+04  0.71524434515E+02 0.  0.
        254    2    1    2    0    0 -0.10518067382E+04  0.34679779134E+02  0.73240935943E+03  0.15653752672E+04  0.89804017486E+03 0.  0.
         23    2    4    4    0    0 -0.27035874455E+03  0.34408213773E+03  0.53562890366E+03  0.69737746360E+03  0.89166339238E+02 0.  0.
         23    2    4    4    0    0 -0.78144799365E+03 -0.30940235859E+03  0.19678045577E+03  0.86799780356E+03  0.91141938332E+02 0.  0.
          2    1    3    3  502    0  0.79558617843E+03  0.30233344186E+01 -0.23910445437E+04  0.25199326415E+04  0.00000000000E+00 0. -1.
         -1    1    3    3    0  502  0.25622055976E+03 -0.37703113552E+02 -0.73906606625E+03  0.78312779947E+03  0.00000000000E+00 0.  1.
         11    1    5    5    0    0 -0.26098617008E+03  0.28800682253E+03  0.48242698118E+03  0.61951392476E+03  0.00000000000E+00 0.  1.
        -11    1    5    5    0    0 -0.93725744674E+01  0.56075315193E+02  0.53201922473E+02  0.77863538842E+02  0.00000000000E+00 0. -1.
          2    1    6    6  503    0 -0.77987866091E+03 -0.30246467432E+03  0.20020516905E+03  0.86010331628E+03  0.00000000000E+00 0.  1.
         -2    1    6    6    0  503 -0.15693327395E+01 -0.69376842756E+01 -0.34247132823E+01  0.78944872805E+01  0.00000000000E+00 0. -1.
<mgrwt>
<rscale>  0 0.42370621E+04</rscale>
<asrwt>0</asrwt>
<pdfrwt beam="1">  1        2 0.55893361E+00 0.42370621E+04</pdfrwt>
<pdfrwt beam="2">  1       -1 0.19005650E+00 0.42370621E+04</pdfrwt>
<totfact> 0.10107775E-01</totfact>
</mgrwt>
</event>
<event>
12    6  0.9533401E-008  0.1925318E+04  0.7818608E-02  0.8642355E-01
          2   -1    0    0  501    0  0.00000000000E+00  0.00000000000E+00  0.16131982824E+04  0.16131982824E+04  0.00000000000E+00 0. -1.
         -1   -1    0    0    0  501 -0.00000000000E+00 -0.00000000000E+00 -0.57445686522E+03  0.57445686522E+03  0.00000000000E+00 0.  1.
         24    2    1    2    0    0  0.67488000200E+03 -0.21287776409E+03  0.64103734856E+03  0.95814167031E+03  0.79540043913E+02 0.  0.
        254    2    1    2    0    0 -0.67488000200E+03  0.21287776409E+03  0.39770406860E+03  0.12295134773E+04  0.92344729418E+03 0.  0.
         23    2    4    4    0    0 -0.75717658672E+03  0.34500760066E+03  0.50852199351E+02  0.83843499503E+03  0.89669764873E+02 0.  0.
         23    2    4    4    0    0  0.82296584717E+02 -0.13212983657E+03  0.34685186925E+03  0.39107848226E+03  0.91679542535E+02 0.  0.
          4    1    3    3  502    0  0.60476086136E+02 -0.78396735660E+01  0.84271546294E+02  0.10402168519E+03  0.00000000000E+00 0. -1.
         -3    1    3    3    0  502  0.61440391586E+03 -0.20503809052E+03  0.55676580227E+03  0.85411998511E+03  0.00000000000E+00 0.  1.
         11    1    5    5    0    0 -0.25073618469E+03  0.76428805839E+02  0.39395053343E+02  0.26506973970E+03  0.00000000000E+00 0.  1.
        -11    1    5    5    0    0 -0.50644040203E+03  0.26857879482E+03  0.11457146008E+02  0.57336525534E+03  0.00000000000E+00 0. -1.
          3    1    6    6  503    0  0.15234601945E+02 -0.71730595363E+02  0.24132995250E+03  0.25222513234E+03  0.00000000000E+00 0. -1.
         -3    1    6    6    0  503  0.67061982771E+02 -0.60399241211E+02  0.10552191675E+03  0.13885334993E+03  0.00000000000E+00 0.  1.
<mgrwt>
<rscale>  0 0.19253185E+04</rscale>
<asrwt>0</asrwt>
<pdfrwt beam="1">  1        2 0.24818435E+00 0.19253185E+04</pdfrwt>
<pdfrwt beam="2">  1       -1 0.88377980E-01 0.19253185E+04</pdfrwt>
<totfact> 0.14677546E+01</totfact>
</mgrwt>
</event>
<event>
12    6  0.9533401E-008  0.4132898E+04  0.7818608E-02  0.7978261E-01
         -1   -1    0    0    0  501 -0.00000000000E+00  0.00000000000E+00  0.18877743789E+04  0.18877743789E+04  0.00000000000E+00 0.  1.
          2   -1    0    0  501    0  0.00000000000E+00 -0.00000000000E+00 -0.22620345289E+04  0.22620345289E+04  0.00000000000E+00 0. -1.
         24    2    1    2    0    0 -0.36591192526E+03  0.10823390280E+04 -0.17723356937E+04  0.21097223580E+04  0.66372493137E+02 0.  0.
        254    2    1    2    0    0  0.36591192526E+03 -0.10823390280E+04  0.13980755438E+04  0.20400865499E+04  0.94973080194E+03 0.  0.
         23    2    4    4    0    0 -0.12735638937E+02 -0.10681539472E+04  0.11765245055E+04  0.15918036702E+04  0.92271127209E+02 0.  0.
         23    2    4    4    0    0  0.37864756420E+03 -0.14185080857E+02  0.22155103824E+03  0.44828287968E+03  0.91090522405E+02 0.  0.
          2    1    3    3  502    0 -0.35448208070E+03  0.10670425848E+04 -0.17300493959E+04  0.20633245832E+04  0.00000000000E+00 0. -1.
         -3    1    3    3    0  502 -0.11429844561E+02  0.15296443232E+02 -0.42286297795E+02  0.46397774768E+02  0.00000000000E+00 0.  1.
         11    1    5    5    0    0  0.38057922973E+02 -0.57489904106E+03  0.64712584249E+03  0.86644628739E+03  0.00000000000E+00 0. -1.
        -11    1    5    5    0    0 -0.50793561910E+02 -0.49325490611E+03  0.52939866305E+03  0.72535738279E+03  0.00000000000E+00 0.  1.
          3    1    6    6  503    0  0.23931124944E+03  0.34105366656E+02  0.12639028564E+03  0.27277748156E+03  0.00000000000E+00 0. -1.
         -3    1    6    6    0  503  0.13933631476E+03 -0.48290447513E+02  0.95160752600E+02  0.17550539812E+03  0.00000000000E+00 0.  1.
<mgrwt>
<rscale>  0 0.41328977E+04</rscale>
<asrwt>0</asrwt>
<pdfrwt beam="1">  1        2 0.34800531E+00 0.41328977E+04</pdfrwt>
<pdfrwt beam="2">  1       -1 0.29042683E+00 0.41328977E+04</pdfrwt>
<totfact> 0.16109415E-01</totfact>
</mgrwt>
</event>
<event>
12    6  0.9533401E-008  0.1632860E+04  0.7818608E-02  0.8800611E-01
         -1   -1    0    0    0  501 -0.00000000000E+00  0.00000000000E+00  0.76119207458E+03  0.76119207458E+03  0.00000000000E+00 0.  1.
          2   -1    0    0  501    0  0.00000000000E+00 -0.00000000000E+00 -0.87567646353E+03  0.87567646353E+03  0.00000000000E+00 0. -1.
         24    2    1    2    0    0  0.11208836309E+03 -0.89021035902E+02  0.53509339389E+03  0.55929404608E+03  0.77436062829E+02 0.  0.
        254    2    1    2    0    0 -0.11208836309E+03  0.89021035902E+02 -0.64957778284E+03  0.10775744920E+04  0.84777765007E+03 0.  0.
         23    2    4    4    0    0  0.13795829536E+03 -0.19544239980E+03 -0.63912428920E+03  0.68821872841E+03  0.89078269996E+02 0.  0.
         23    2    4    4    0    0 -0.25004665846E+03  0.28446343571E+03 -0.10453493632E+02  0.38935576362E+03  0.89698703878E+02 0.  0.
          4    1    3    3  502    0  0.24610781646E+02 -0.22617571355E+02  0.39816631228E+02  0.51986625488E+02  0.00000000000E+00 0. -1.
         -3    1    3    3    0  502  0.87477581447E+02 -0.66403464547E+02  0.49527676266E+03  0.50730742059E+03  0.00000000000E+00 0.  1.
         11    1    5    5    0    0  0.83263765003E+02 -0.11207345981E+03 -0.24815524746E+03  0.28473556469E+03  0.00000000000E+00 0.  1.
        -11    1    5    5    0    0  0.54694530360E+02 -0.83368939999E+02 -0.39096904174E+03  0.40348316372E+03  0.00000000000E+00 0. -1.
          3    1    6    6  503    0 -0.12210101054E+03  0.18491936049E+03  0.26253173241E+02  0.22314357657E+03  0.00000000000E+00 0. -1.
         -3    1    6    6    0  503 -0.12794564792E+03  0.99544075214E+02 -0.36706666873E+02  0.16621218705E+03  0.00000000000E+00 0.  1.
<mgrwt>
<rscale>  0 0.16328600E+04</rscale>
<asrwt>0</asrwt>
<pdfrwt beam="1">  1        2 0.13471946E+00 0.16328600E+04</pdfrwt>
<pdfrwt beam="2">  1       -1 0.11710647E+00 0.16328600E+04</pdfrwt>
<totfact> 0.21856744E+01</totfact>
</mgrwt>
</event>
<event>
12    6  0.9533401E-008  0.2564602E+04  0.7818608E-02  0.8380325E-01
         -1   -1    0    0    0  501 -0.00000000000E+00  0.00000000000E+00  0.12579402052E+04  0.12579402052E+04  0.00000000000E+00 0.  1.
          2   -1    0    0  501    0  0.00000000000E+00 -0.00000000000E+00 -0.13071340604E+04  0.13071340604E+04  0.00000000000E+00 0. -1.
         24    2    1    2    0    0  0.66450537530E+03  0.32662923098E+03  0.82367143376E+03  0.11104261779E+04  0.79734668998E+02 0.  0.
        254    2    1    2    0    0 -0.66450537530E+03 -0.32662923098E+03 -0.87286528895E+03  0.14546480876E+04  0.89769326491E+03 0.  0.
         23    2    4    4    0    0 -0.39836438636E+03  0.25258388247E+03 -0.19131039458E+03  0.51705412254E+03  0.90843252689E+02 0.  0.
         23    2    4    4    0    0 -0.26614098894E+03 -0.57921311345E+03 -0.68155489437E+03  0.93759396509E+03  0.90810310783E+02 0.  0.
          4    1    3    3  502    0  0.40570532460E+03  0.23824754437E+03  0.54484785691E+03  0.71987352360E+03  0.00000000000E+00 0. -1.
         -3    1    3    3    0  502  0.25880005070E+03  0.88381686609E+02  0.27882357686E+03  0.39055265430E+03  0.00000000000E+00 0.  1.
         11    1    5    5    0    0 -0.38692697083E+03  0.26003872663E+03 -0.18164867771E+03  0.50032875414E+03  0.00000000000E+00 0.  1.
        -11    1    5    5    0    0 -0.11437415530E+02 -0.74548441585E+01 -0.96617168645E+01  0.16725368402E+02  0.00000000000E+00 0. -1.
          4    1    6    6  503    0 -0.16391127870E+03 -0.25071486468E+03 -0.33123929452E+03  0.44659189524E+03  0.00000000000E+00 0. -1.
         -4    1    6    6    0  503 -0.10222971024E+03 -0.32849824877E+03 -0.35031559985E+03  0.49100206985E+03  0.00000000000E+00 0.  1.
<mgrwt>
<rscale>  0 0.25646025E+04</rscale>
<asrwt>0</asrwt>
<pdfrwt beam="1">  1        2 0.20109755E+00 0.25646025E+04</pdfrwt>
<pdfrwt beam="2">  1       -1 0.19352926E+00 0.25646025E+04</pdfrwt>
<totfact> 0.27626704E+00</totfact>
</mgrwt>
</event>
<event>
12    6  0.9533401E-008  0.1367880E+04  0.7818608E-02  0.8977402E-01
         -1   -1    0    0    0  501 -0.00000000000E+00  0.00000000000E+00  0.50068709960E+03  0.50068709960E+03  0.00000000000E+00 0.  1.
          2   -1    0    0  501    0  0.00000000000E+00 -0.00000000000E+00 -0.93426439218E+03  0.93426439218E+03  0.00000000000E+00 0. -1.
         24    2    1    2    0    0 -0.26036089549E+03 -0.47740858508E+01  0.16769220480E+03  0.31927239859E+03  0.77482908820E+02 0.  0.
        254    2    1    2    0    0  0.26036089549E+03  0.47740858508E+01 -0.60126949737E+03  0.11156790932E+04  0.90299736584E+03 0.  0.
         23    2    4    4    0    0 -0.85537869527E+02  0.34404822375E+03 -0.35869961481E+02  0.36515796424E+03  0.79798354125E+02 0.  0.
         23    2    4    4    0    0  0.34589876501E+03 -0.33927413790E+03 -0.56539953589E+03  0.75052112895E+03  0.94087371821E+02 0.  0.
          4    1    3    3  502    0 -0.45339945167E+02 -0.42329396915E+01  0.69027251128E+02  0.82694557285E+02  0.00000000000E+00 0. -1.
         -3    1    3    3    0  502 -0.21502095032E+03 -0.54114615929E+00  0.98664953668E+02  0.23657784131E+03  0.00000000000E+00 0.  1.
         11    1    5    5    0    0  0.34387289649E+01  0.64783505852E+02  0.17609723526E+02  0.67222242227E+02  0.00000000000E+00 0.  1.
        -11    1    5    5    0    0 -0.88976598492E+02  0.27926471790E+03 -0.53479685006E+02  0.29793572201E+03  0.00000000000E+00 0. -1.
          4    1    6    6  503    0  0.33715697352E+03 -0.34478575003E+03 -0.55942013058E+03  0.73858169535E+03  0.00000000000E+00 0. -1.
         -4    1    6    6    0  503  0.87417914939E+01  0.55116121300E+01 -0.59794053116E+01  0.11939433599E+02  0.00000000000E+00 0.  1.
<mgrwt>
<rscale>  0 0.13678803E+04</rscale>
<asrwt>0</asrwt>
<pdfrwt beam="1">  1        2 0.14373298E+00 0.13678803E+04</pdfrwt>
<pdfrwt beam="2">  1       -1 0.77028785E-01 0.13678803E+04</pdfrwt>
<totfact> 0.52343298E+01</totfact>
</mgrwt>
</event>
<event>
12    6  0.9533401E-008  0.1452842E+04  0.7818608E-02  0.8916433E-01
          2   -1    0    0  501    0  0.00000000000E+00  0.00000000000E+00  0.13514636383E+04  0.13514636383E+04  0.00000000000E+00 0. -1.
         -1   -1    0    0    0  501 -0.00000000000E+00 -0.00000000000E+00 -0.39045614145E+03  0.39045614145E+03  0.00000000000E+00 0.  1.
         24    2    1    2    0    0  0.17257727711E+02  0.36425029726E+03  0.56569999236E+03  0.67796052539E+03  0.81473212861E+02 0.  0.
        254    2    1    2    0    0 -0.17257727711E+02 -0.36425029726E+03  0.39530750449E+03  0.10639592544E+04  0.91802242000E+03 0.  0.
         23    2    4    4    0    0  0.42507929513E+03 -0.15907669563E+03  0.31739968679E+03  0.56144664395E+03  0.92097614467E+02 0.  0.
         23    2    4    4    0    0 -0.44233702284E+03 -0.20517360162E+03  0.77907817700E+02  0.50251261041E+03  0.93225784994E+02 0.  0.
          4    1    3    3  502    0  0.32617416200E+02  0.23009588400E+03  0.29584975621E+03  0.37621149627E+03  0.00000000000E+00 0. -1.
         -3    1    3    3    0  502 -0.15359688489E+02  0.13415441325E+03  0.26985023615E+03  0.30174902913E+03  0.00000000000E+00 0.  1.
         11    1    5    5    0    0  0.39185735021E+03 -0.11601219456E+03  0.27717668995E+03  0.49379948325E+03  0.00000000000E+00 0. -1.
        -11    1    5    5    0    0  0.33221944914E+02 -0.43064501076E+02  0.40222996839E+02  0.67647160705E+02  0.00000000000E+00 0.  1.
          1    1    6    6  503    0 -0.38742098740E+03 -0.15339137543E+03  0.89395879145E+02  0.42616376986E+03  0.00000000000E+00 0. -1.
         -1    1    6    6    0  503 -0.54916035444E+02 -0.51782226194E+02 -0.11488061445E+02  0.76348840556E+02  0.00000000000E+00 0.  1.
<mgrwt>
<rscale>  0 0.14528417E+04</rscale>
<asrwt>0</asrwt>
<pdfrwt beam="1">  1        2 0.20791748E+00 0.14528417E+04</pdfrwt>
<pdfrwt beam="2">  1       -1 0.60070176E-01 0.14528417E+04</pdfrwt>
<totfact> 0.47920429E+01</totfact>
</mgrwt>
</event>
<event>
12    6  0.9533401E-008  0.2552065E+04  0.7818608E-02  0.8384668E-01
          2   -1    0    0  501    0  0.00000000000E+00  0.00000000000E+00  0.11388320559E+04  0.11388320559E+04  0.00000000000E+00 0. -1.
         -1   -1    0    0    0  501 -0.00000000000E+00 -0.00000000000E+00 -0.14297618490E+04  0.14297618490E+04  0.00000000000E+00 0.  1.
         24    2    1    2    0    0  0.79712043146E+03 -0.67850256085E+03  0.26378508281E+03  0.10824504336E+04  0.79684778626E+02 0.  0.
        254    2    1    2    0    0 -0.79712043146E+03  0.67850256085E+03 -0.55471487588E+03  0.14861434713E+04  0.89729990330E+03 0.  0.
         23    2    4    4    0    0 -0.54680220494E+03 -0.73040689335E+01 -0.50294296205E+03  0.74851165708E+03  0.90950959064E+02 0.  0.
         23    2    4    4    0    0 -0.25031822652E+03  0.68580662978E+03 -0.51771913826E+02  0.73763181423E+03  0.91817287716E+02 0.  0.
          4    1    3    3  502    0  0.72277717734E+03 -0.59760393017E+03  0.25679212913E+03  0.97235770323E+03  0.00000000000E+00 0. -1.
         -3    1    3    3    0  502  0.74343254115E+02 -0.80898630675E+02  0.69929536805E+01  0.11009273036E+03  0.00000000000E+00 0.  1.
         11    1    5    5    0    0 -0.48720675185E+03 -0.25964686557E+02 -0.41423851470E+03  0.64002978919E+03  0.00000000000E+00 0. -1.
        -11    1    5    5    0    0 -0.59595453086E+02  0.18660617624E+02 -0.88704447358E+02  0.10848186788E+03  0.00000000000E+00 0.  1.
          1    1    6    6  503    0 -0.16113271922E+03  0.50863348247E+03 -0.38038126565E+01  0.53355997009E+03  0.00000000000E+00 0. -1.
         -1    1    6    6    0  503 -0.89185507303E+02  0.17717314731E+03 -0.47968101169E+02  0.20407184414E+03  0.00000000000E+00 0.  1.
<mgrwt>
<rscale>  0 0.25520648E+04</rscale>
<asrwt>0</asrwt>
<pdfrwt beam="1">  1        2 0.17520493E+00 0.25520648E+04</pdfrwt>
<pdfrwt beam="2">  1       -1 0.21996336E+00 0.25520648E+04</pdfrwt>
<totfact> 0.22984406E+00</totfact>
</mgrwt>
</event>
<event>
12    6  0.9533401E-008  0.1250156E+04  0.7818608E-02  0.9070053E-01
         -3   -1    0    0    0  501 -0.00000000000E+00  0.00000000000E+00  0.16656071139E+03  0.16656071139E+03  0.00000000000E+00 0.  1.
          2   -1    0    0  501    0  0.00000000000E+00 -0.00000000000E+00 -0.23458270714E+04  0.23458270714E+04  0.00000000000E+00 0. -1.
         24    2    1    2    0    0  0.13226638900E+03 -0.14605443816E+03 -0.96808711945E+03  0.99109458266E+03  0.79053806800E+02 0.  0.
        254    2    1    2    0    0 -0.13226638900E+03  0.14605443816E+03 -0.12111792406E+04  0.15212932001E+04  0.89919494629E+03 0.  0.
         23    2    4    4    0    0 -0.30599721117E+03 -0.72021516692E+02 -0.11815308115E+04  0.12257621118E+04  0.87500309401E+02 0.  0.
         23    2    4    4    0    0  0.17373082217E+03  0.21807595486E+03 -0.29648429098E+02  0.29553108834E+03  0.93381337370E+02 0.  0.
          4    1    3    3  502    0  0.95801065765E+02 -0.11298527873E+03 -0.85529318573E+03  0.86802646905E+03  0.00000000000E+00 0. -1.
         -3    1    3    3    0  502  0.36465323233E+02 -0.33069159436E+02 -0.11279393371E+03  0.12306811361E+03  0.00000000000E+00 0.  1.
         11    1    5    5    0    0 -0.19489544271E+03 -0.23043777630E+02 -0.58631387263E+03  0.61828731712E+03  0.00000000000E+00 0. -1.
        -11    1    5    5    0    0 -0.11110176846E+03 -0.48977739063E+02 -0.59521693885E+03  0.60747479469E+03  0.00000000000E+00 0.  1.
          4    1    6    6  503    0  0.10814575266E+03  0.66915849945E+02 -0.30389173428E+02  0.13075449000E+03  0.00000000000E+00 0. -1.
         -4    1    6    6    0  503  0.65585069507E+02  0.15116010491E+03  0.74074432926E+00  0.16477659834E+03  0.00000000000E+00 0.  1.
<mgrwt>
<rscale>  0 0.12501562E+04</rscale>
<asrwt>0</asrwt>
<pdfrwt beam="1">  1        2 0.36089643E+00 0.12501562E+04</pdfrwt>
<pdfrwt beam="2">  1       -3 0.25624728E-01 0.12501562E+04</pdfrwt>
<totfact> 0.39908397E+01</totfact>
</mgrwt>
</event>
<event>
12    6  0.9533401E-008  0.1453919E+04  0.7818608E-02  0.8915688E-01
          2   -1    0    0  501    0  0.00000000000E+00  0.00000000000E+00  0.11991937498E+04  0.11991937498E+04  0.00000000000E+00 0. -1.
         -1   -1    0    0    0  501 -0.00000000000E+00 -0.00000000000E+00 -0.44068776483E+03  0.44068776483E+03  0.00000000000E+00 0.  1.
         24    2    1    2    0    0  0.14784539946E+03 -0.54291299906E+02 -0.22726066781E+03  0.28800852115E+03  0.80595841912E+02 0.  0.
        254    2    1    2    0    0 -0.14784539946E+03  0.54291299906E+02  0.98576665282E+03  0.13518729935E+04  0.91160237460E+03 0.  0.
         23    2    4    4    0    0 -0.58513382462E+02 -0.92379694173E+02 -0.14533512694E+03  0.20425292799E+03  0.92946950704E+02 0.  0.
         23    2    4    4    0    0 -0.89332016997E+02  0.14667099408E+03  0.11311017798E+04  0.11476200655E+04  0.90266211035E+02 0.  0.
          2    1    3    3  502    0  0.25646204259E+01  0.15198883566E+02 -0.14424903497E+02  0.21110688773E+02  0.00000000000E+00 0. -1.
         -1    1    3    3    0  502  0.14528077903E+03 -0.69490183472E+02 -0.21283576431E+03  0.26689783238E+03  0.00000000000E+00 0.  1.
         11    1    5    5    0    0 -0.46383395163E+02 -0.10589073090E+03 -0.14582485392E+03  0.18608910301E+03  0.00000000000E+00 0.  1.
        -11    1    5    5    0    0 -0.12129987298E+02  0.13511036726E+02  0.48972698127E+00  0.18163824977E+02  0.00000000000E+00 0. -1.
          4    1    6    6  503    0 -0.38939416699E+02  0.80577647752E+01  0.38733061265E+03  0.38936642028E+03  0.00000000000E+00 0. -1.
         -4    1    6    6    0  503 -0.50392600298E+02  0.13861322930E+03  0.74377116711E+03  0.75825364524E+03  0.00000000000E+00 0.  1.
<mgrwt>
<rscale>  0 0.14539189E+04</rscale>
<asrwt>0</asrwt>
<pdfrwt beam="1">  1        2 0.18449134E+00 0.14539189E+04</pdfrwt>
<pdfrwt beam="2">  1       -1 0.67798118E-01 0.14539189E+04</pdfrwt>
<totfact> 0.46178525E+01</totfact>
</mgrwt>
</event>
<event>
12    6  0.9533401E-008  0.1706200E+04  0.7818608E-02  0.8757836E-01
          2   -1    0    0  501    0  0.00000000000E+00  0.00000000000E+00  0.63677537391E+03  0.63677537391E+03  0.00000000000E+00 0. -1.
         -1   -1    0    0    0  501 -0.00000000000E+00 -0.00000000000E+00 -0.11429146057E+04  0.11429146057E+04  0.00000000000E+00 0.  1.
         24    2    1    2    0    0 -0.30243296563E+03  0.38619998349E+03  0.20506998759E+03  0.53845125884E+03  0.85205236860E+02 0.  0.
        254    2    1    2    0    0  0.30243296563E+03 -0.38619998349E+03 -0.71120921939E+03  0.12412387208E+04  0.89120080916E+03 0.  0.
         23    2    4    4    0    0  0.37838801198E+02  0.79439645853E+02 -0.68505349309E+03  0.69679645447E+03  0.92111770996E+02 0.  0.
         23    2    4    4    0    0  0.26459416444E+03 -0.46563962935E+03 -0.26155726298E+02  0.54444226630E+03  0.94355302148E+02 0.  0.
          2    1    3    3  502    0 -0.27954927513E+03  0.36844197956E+03  0.16948386975E+03  0.49256681946E+03  0.00000000000E+00 0. -1.
         -1    1    3    3    0  502 -0.22883690501E+02  0.17758003937E+02  0.35586117839E+02  0.45884439385E+02  0.00000000000E+00 0.  1.
         11    1    5    5    0    0  0.44108100899E+02  0.68646679752E+02 -0.28245753427E+03  0.29400705753E+03  0.00000000000E+00 0.  1.
        -11    1    5    5    0    0 -0.62692997013E+01  0.10792966101E+02 -0.40259595882E+03  0.40278939694E+03  0.00000000000E+00 0. -1.
          3    1    6    6  503    0  0.15025860359E+03 -0.26436322128E+03  0.32012169880E+02  0.30576190041E+03  0.00000000000E+00 0. -1.
         -3    1    6    6    0  503  0.11433556085E+03 -0.20127640806E+03 -0.58167896177E+02  0.23868036589E+03  0.00000000000E+00 0.  1.
<mgrwt>
<rscale>  0 0.17062003E+04</rscale>
<asrwt>0</asrwt>
<pdfrwt beam="1">  1        2 0.97965442E-01 0.17062003E+04</pdfrwt>
<pdfrwt beam="2">  1       -1 0.17583302E+00 0.17062003E+04</pdfrwt>
<totfact> 0.11174497E+01</totfact>
</mgrwt>
</event>
<event>
12    6  0.9533401E-008  0.1897522E+04  0.7818608E-02  0.8656091E-01
          2   -1    0    0  501    0  0.00000000000E+00  0.00000000000E+00  0.12517411063E+04  0.12517411063E+04  0.00000000000E+00 0. -1.
         -1   -1    0    0    0  501 -0.00000000000E+00 -0.00000000000E+00 -0.71911601208E+03  0.71911601208E+03  0.00000000000E+00 0.  1.
         24    2    1    2    0    0 -0.45101176597E+03  0.32353222067E+03  0.70424189626E+03  0.89993491904E+03  0.76429701151E+02 0.  0.
        254    2    1    2    0    0  0.45101176597E+03 -0.32353222067E+03 -0.17161680199E+03  0.10709221994E+04  0.89963176887E+03 0.  0.
         23    2    4    4    0    0  0.22961425473E+03  0.26258133894E+03 -0.24144832929E+03  0.43368711283E+03  0.90086350712E+02 0.  0.
         23    2    4    4    0    0  0.22139751123E+03 -0.58611355960E+03  0.69831527301E+02  0.63723508656E+03  0.92984679386E+02 0.  0.
          4    1    3    3  502    0 -0.33574034584E+03  0.22215318933E+03  0.45823449369E+03  0.60996104020E+03  0.00000000000E+00 0. -1.
         -3    1    3    3    0  502 -0.11527142012E+03  0.10137903133E+03  0.24600740257E+03  0.28997387884E+03  0.00000000000E+00 0.  1.
         11    1    5    5    0    0  0.78601478790E+01  0.57655630922E+02 -0.43330293463E+02  0.72549762462E+02  0.00000000000E+00 0. -1.
        -11    1    5    5    0    0  0.22175410685E+03  0.20492570802E+03 -0.19811803583E+03  0.36113735037E+03  0.00000000000E+00 0.  1.
          4    1    6    6  503    0  0.14928262104E+03 -0.31105958618E+03  0.73914981976E+02  0.35285519928E+03  0.00000000000E+00 0. -1.
         -4    1    6    6    0  503  0.72114890190E+02 -0.27505397343E+03 -0.40834546749E+01  0.28437988727E+03  0.00000000000E+00 0.  1.
<mgrwt>
<rscale>  0 0.18975216E+04</rscale>
<asrwt>0</asrwt>
<pdfrwt beam="1">  1        2 0.19257556E+00 0.18975216E+04</pdfrwt>
<pdfrwt beam="2">  1       -1 0.11063323E+00 0.18975216E+04</pdfrwt>
<totfact> 0.14189079E+01</totfact>
</mgrwt>
</event>
<event>
12    6  0.9533401E-008  0.2003980E+04  0.7818608E-02  0.8604762E-01
         -1   -1    0    0    0  501 -0.00000000000E+00  0.00000000000E+00  0.66971611182E+03  0.66971611182E+03  0.00000000000E+00 0.  1.
          2   -1    0    0  501    0  0.00000000000E+00 -0.00000000000E+00 -0.14991191393E+04  0.14991191393E+04  0.00000000000E+00 0. -1.
         24    2    1    2    0    0 -0.70783458607E+03 -0.36532710371E+03 -0.37254110200E+03  0.88301642995E+03  0.80233714432E+02 0.  0.
        254    2    1    2    0    0  0.70783458607E+03  0.36532710371E+03 -0.45686192550E+03  0.12858188212E+04  0.90006306892E+03 0.  0.
         23    2    4    4    0    0  0.38317184260E+03 -0.26837130371E+03 -0.25687017860E+03  0.54099780817E+03  0.88614458047E+02 0.  0.
         23    2    4    4    0    0  0.32466274348E+03  0.63369840742E+03 -0.19999174690E+03  0.74482101303E+03  0.88216064582E+02 0.  0.
          2    1    3    3  502    0 -0.41721933952E+03 -0.20800898773E+03 -0.17468520223E+03  0.49785001369E+03  0.00000000000E+00 0. -1.
         -1    1    3    3    0  502 -0.29061524655E+03 -0.15731811598E+03 -0.19785589976E+03  0.38516641626E+03  0.00000000000E+00 0.  1.
         11    1    5    5    0    0  0.85379347407E+02 -0.34089031074E+02 -0.83966993697E+02  0.12450763444E+03  0.00000000000E+00 0. -1.
        -11    1    5    5    0    0  0.29779249519E+03 -0.23428227264E+03 -0.17290318490E+03  0.41649017373E+03  0.00000000000E+00 0.  1.
          3    1    6    6  503    0  0.20317704305E+03  0.30316893119E+03 -0.11366000644E+03  0.38224456664E+03  0.00000000000E+00 0. -1.
         -3    1    6    6    0  503  0.12148570043E+03  0.33052947623E+03 -0.86331740464E+02  0.36257644639E+03  0.00000000000E+00 0.  1.
<mgrwt>
<rscale>  0 0.20039803E+04</rscale>
<asrwt>0</asrwt>
<pdfrwt beam="1">  1        2 0.23063371E+00 0.20039803E+04</pdfrwt>
<pdfrwt beam="2">  1       -1 0.10303325E+00 0.20039803E+04</pdfrwt>
<totfact> 0.11964102E+01</totfact>
</mgrwt>
</event>
<event>
12    6  0.9533401E-008  0.1510383E+04  0.7818608E-02  0.8877577E-01
          2   -1    0    0  501    0  0.00000000000E+00  0.00000000000E+00  0.57867157395E+03  0.57867157395E+03  0.00000000000E+00 0. -1.
         -1   -1    0    0    0  501 -0.00000000000E+00 -0.00000000000E+00 -0.98555830553E+03  0.98555830553E+03  0.00000000000E+00 0.  1.
         24    2    1    2    0    0  0.35484779323E+03  0.45601474129E+02 -0.46619030813E+03  0.59331739241E+03  0.81827097833E+02 0.  0.
        254    2    1    2    0    0 -0.35484779323E+03 -0.45601474129E+02  0.59303576546E+02  0.97091248707E+03  0.90064293288E+03 0.  0.
         23    2    4    4    0    0 -0.22294042511E+03 -0.89210490173E+02  0.46494530836E+03  0.53092843213E+03  0.89721321730E+02 0.  0.
         23    2    4    4    0    0 -0.13190736812E+03  0.43609016044E+02 -0.40564173182E+03  0.43998405494E+03  0.98688671893E+02 0.  0.
          4    1    3    3  502    0  0.24173905389E+01  0.12002406681E+02 -0.96263473384E+01  0.15574598109E+02  0.00000000000E+00 0. -1.
         -3    1    3    3    0  502  0.35243040269E+03  0.33599067447E+02 -0.45656396079E+03  0.57774279430E+03  0.00000000000E+00 0.  1.
         11    1    5    5    0    0 -0.33565568176E+01 -0.26594672427E+02  0.66406942512E+02  0.71613023180E+02  0.00000000000E+00 0. -1.
        -11    1    5    5    0    0 -0.21958386829E+03 -0.62615817745E+02  0.39853836585E+03  0.45931540895E+03  0.00000000000E+00 0.  1.
          1    1    6    6  503    0 -0.12904592609E+03  0.63972287009E+02 -0.30547159489E+03  0.33772503583E+03  0.00000000000E+00 0. -1.
         -1    1    6    6    0  503 -0.28614420302E+01 -0.20363270965E+02 -0.10017013693E+03  0.10225901910E+03  0.00000000000E+00 0.  1.
<mgrwt>
<rscale>  0 0.15103835E+04</rscale>
<asrwt>0</asrwt>
<pdfrwt beam="1">  1        2 0.89026397E-01 0.15103835E+04</pdfrwt>
<pdfrwt beam="2">  1       -1 0.15162435E+00 0.15103835E+04</pdfrwt>
<totfact> 0.19371893E+01</totfact>
</mgrwt>
</event>
<event>
12    6  0.9533401E-008  0.1972810E+04  0.7818608E-02  0.8619440E-01
         -1   -1    0    0    0  501 -0.00000000000E+00  0.00000000000E+00  0.44947483081E+03  0.44947483081E+03  0.00000000000E+00 0.  1.
          2   -1    0    0  501    0  0.00000000000E+00 -0.00000000000E+00 -0.21647360659E+04  0.21647360659E+04  0.00000000000E+00 0. -1.
         24    2    1    2    0    0  0.68337635630E+03 -0.41252748717E+02 -0.11325388721E+04  0.13263860688E+04  0.89166547449E+02 0.  0.
        254    2    1    2    0    0 -0.68337635630E+03  0.41252748717E+02 -0.58272236304E+03  0.12878248279E+04  0.92207505192E+03 0.  0.
         23    2    4    4    0    0  0.87269390026E+02  0.26568752115E+03 -0.47129903692E+01  0.29465117631E+03  0.92689255528E+02 0.  0.
         23    2    4    4    0    0 -0.77064574632E+03 -0.22443477243E+03 -0.57800937267E+03  0.99317365161E+03  0.89628309961E+02 0.  0.
          2    1    3    3  502    0  0.47142263845E+03 -0.61571529162E+02 -0.82817505169E+03  0.95493679031E+03  0.00000000000E+00 0. -1.
         -1    1    3    3    0  502  0.21195371785E+03  0.20318780445E+02 -0.30436382038E+03  0.37144927850E+03  0.00000000000E+00 0.  1.
         11    1    5    5    0    0  0.82684181727E+02  0.10518375763E+03 -0.82124468628E+01  0.13404380277E+03  0.00000000000E+00 0. -1.
        -11    1    5    5    0    0  0.45852082987E+01  0.16050376352E+03  0.34994564936E+01  0.16060737354E+03  0.00000000000E+00 0.  1.
          3    1    6    6  503    0 -0.59828271852E+03 -0.16927590033E+03 -0.39997573789E+03  0.73930855034E+03  0.00000000000E+00 0. -1.
         -3    1    6    6    0  503 -0.17236302780E+03 -0.55158872102E+02 -0.17803363478E+03  0.25386510126E+03  0.00000000000E+00 0.  1.
<mgrwt>
<rscale>  0 0.19728095E+04</rscale>
<asrwt>0</asrwt>
<pdfrwt beam="1">  1        2 0.33303631E+00 0.19728095E+04</pdfrwt>
<pdfrwt beam="2">  1       -1 0.69149975E-01 0.19728095E+04</pdfrwt>
<totfact> 0.12122521E+01</totfact>
</mgrwt>
</event>
<event>
12    6  0.9533401E-008  0.1045774E+04  0.7818608E-02  0.9259718E-01
         -1   -1    0    0    0  501 -0.00000000000E+00  0.00000000000E+00  0.28750763034E+03  0.28750763034E+03  0.00000000000E+00 0.  1.
          2   -1    0    0  501    0  0.00000000000E+00 -0.00000000000E+00 -0.95096857409E+03  0.95096857409E+03  0.00000000000E+00 0. -1.
         24    2    1    2    0    0 -0.57021289366E+02 -0.88774694937E+02 -0.35660669413E+00  0.13201468991E+03  0.79343413595E+02 0.  0.
        254    2    1    2    0    0  0.57021289366E+02  0.88774694937E+02 -0.66310433705E+03  0.11064615145E+04  0.87944149744E+03 0.  0.
         23    2    4    4    0    0 -0.25099533468E+03 -0.19075921792E+03 -0.58842417026E+03  0.67392082305E+03  0.92404190141E+02 0.  0.
         23    2    4    4    0    0  0.30801662404E+03  0.27953391285E+03 -0.74680166796E+02  0.43254069147E+03  0.92200180847E+02 0.  0.
          4    1    3    3  502    0  0.18772842928E+01 -0.54854497280E+02 -0.24201618395E+02  0.59985484920E+02  0.00000000000E+00 0. -1.
         -3    1    3    3    0  502 -0.58898573658E+02 -0.33920197657E+02  0.23845011701E+02  0.72029204987E+02  0.00000000000E+00 0.  1.
         11    1    5    5    0    0 -0.14316359172E+03 -0.15523663138E+03 -0.33174643068E+03  0.39325554031E+03  0.00000000000E+00 0.  1.
        -11    1    5    5    0    0 -0.10783174296E+03 -0.35522586535E+02 -0.25667773958E+03  0.28066528275E+03  0.00000000000E+00 0. -1.
          2    1    6    6  503    0  0.28052269881E+03  0.24292126605E+03 -0.36409943602E+02  0.37286647750E+03  0.00000000000E+00 0. -1.
         -2    1    6    6    0  503  0.27493925227E+02  0.36612646803E+02 -0.38270223194E+02  0.59674213976E+02  0.00000000000E+00 0.  1.
<mgrwt>
<rscale>  0 0.10457738E+04</rscale>
<asrwt>0</asrwt>
<pdfrwt beam="1">  1        2 0.14630286E+00 0.10457738E+04</pdfrwt>
<pdfrwt beam="2">  1       -1 0.44231943E-01 0.10457738E+04</pdfrwt>
<totfact> 0.15564153E+02</totfact>
</mgrwt>
</event>
<event>
12    6  0.9533401E-008  0.1672372E+04  0.7818608E-02  0.8777280E-01
          2   -1    0    0  501    0  0.00000000000E+00  0.00000000000E+00  0.11040355890E+04  0.11040355890E+04  0.00000000000E+00 0. -1.
         -1   -1    0    0    0  501 -0.00000000000E+00 -0.00000000000E+00 -0.63331952372E+03  0.63331952372E+03  0.00000000000E+00 0.  1.
         24    2    1    2    0    0  0.27420592289E+02 -0.68854422372E+02 -0.44130310418E+03  0.45380182639E+03  0.75464213493E+02 0.  0.
        254    2    1    2    0    0 -0.27420592289E+02  0.68854422372E+02  0.91201916948E+03  0.12835532864E+04  0.90013179760E+03 0.  0.
         23    2    4    4    0    0 -0.44693555274E+03  0.20930739796E+02  0.58072951386E+03  0.73880620056E+03  0.91642509506E+02 0.  0.
         23    2    4    4    0    0  0.41951496045E+03  0.47923682575E+02  0.33128965562E+03  0.54474708580E+03  0.93311682882E+02 0.  0.
          4    1    3    3  502    0  0.49389694806E+02 -0.31971994534E+02 -0.19141485150E+03  0.20025282960E+03  0.00000000000E+00 0. -1.
         -3    1    3    3    0  502 -0.21969102516E+02 -0.36882427838E+02 -0.24988825268E+03  0.25354899679E+03  0.00000000000E+00 0.  1.
         11    1    5    5    0    0 -0.34483877902E+03 -0.14052576008E+02  0.40004712656E+03  0.52834549480E+03  0.00000000000E+00 0. -1.
        -11    1    5    5    0    0 -0.10209677373E+03  0.34983315805E+02  0.18068238730E+03  0.21046070577E+03  0.00000000000E+00 0.  1.
          4    1    6    6  503    0  0.38354416250E+03  0.21027479148E+02  0.31569045176E+03  0.49720090587E+03  0.00000000000E+00 0. -1.
         -4    1    6    6    0  503  0.35970797952E+02  0.26896203427E+02  0.15599203869E+02  0.47546179925E+02  0.00000000000E+00 0.  1.
<mgrwt>
<rscale>  0 0.16723723E+04</rscale>
<asrwt>0</asrwt>
<pdfrwt beam="1">  1        2 0.16985163E+00 0.16723723E+04</pdfrwt>
<pdfrwt beam="2">  1       -1 0.97433773E-01 0.16723723E+04</pdfrwt>
<totfact> 0.23830148E+01</totfact>
</mgrwt>
</event>
<event>
12    6  0.9533401E-008  0.2638621E+04  0.7818608E-02  0.8355200E-01
         -1   -1    0    0    0  501 -0.00000000000E+00  0.00000000000E+00  0.58489634064E+03  0.58489634064E+03  0.00000000000E+00 0.  1.
          2   -1    0    0  501    0  0.00000000000E+00 -0.00000000000E+00 -0.29758779244E+04  0.29758779244E+04  0.00000000000E+00 0. -1.
         24    2    1    2    0    0 -0.98090907133E+03 -0.58192713586E+03 -0.13236245022E+04  0.17492684617E+04  0.84477989279E+02 0.  0.
        254    2    1    2    0    0  0.98090907133E+03  0.58192713586E+03 -0.10673570816E+04  0.18115058034E+04  0.91732237428E+03 0.  0.
         23    2    4    4    0    0  0.11389509184E+04  0.42157483427E+03 -0.84810360687E+03  0.14840411610E+04  0.90354325608E+02 0.  0.
         23    2    4    4    0    0 -0.15804184707E+03  0.16035230159E+03 -0.21925347474E+03  0.32746464238E+03  0.92037599781E+02 0.  0.
          2    1    3    3  502    0 -0.91157270926E+03 -0.52490346837E+03 -0.12454820410E+04  0.16302496649E+04  0.00000000000E+00 0. -1.
         -1    1    3    3    0  502 -0.69336362073E+02 -0.57023667484E+02 -0.78142461174E+02  0.11901879682E+03  0.00000000000E+00 0.  1.
         11    1    5    5    0    0  0.11243295558E+04  0.40890727879E+03 -0.84437415958E+03  0.14643393849E+04  0.00000000000E+00 0.  1.
        -11    1    5    5    0    0  0.14621362558E+02  0.12667555480E+02 -0.37294472961E+01  0.19701776114E+02  0.00000000000E+00 0. -1.
          4    1    6    6  503    0 -0.15163787654E+01  0.12044392875E+02  0.77271403993E+01  0.14390118243E+02  0.00000000000E+00 0. -1.
         -4    1    6    6    0  503 -0.15652546830E+03  0.14830790871E+03 -0.22698061514E+03  0.31307452413E+03  0.00000000000E+00 0.  1.
<mgrwt>
<rscale>  0 0.26386209E+04</rscale>
<asrwt>0</asrwt>
<pdfrwt beam="1">  1        2 0.45782738E+00 0.26386209E+04</pdfrwt>
<pdfrwt beam="2">  1       -1 0.89984052E-01 0.26386209E+04</pdfrwt>
<totfact> 0.21834452E+00</totfact>
</mgrwt>
</event>
<event>
12    6  0.9533401E-008  0.2761261E+04  0.7818608E-02  0.8315397E-01
          2   -1    0    0  501    0  0.00000000000E+00  0.00000000000E+00  0.10876524777E+04  0.10876524777E+04  0.00000000000E+00 0. -1.
         -1   -1    0    0    0  501 -0.00000000000E+00 -0.00000000000E+00 -0.17525268640E+04  0.17525268640E+04  0.00000000000E+00 0.  1.
         24    2    1    2    0    0  0.73507385198E+02 -0.64759895040E+03 -0.13750529619E+04  0.15238152359E+04  0.80339832489E+02 0.  0.
        254    2    1    2    0    0 -0.73507385198E+02  0.64759895040E+03  0.71017857557E+03  0.13163641059E+04  0.89647817249E+03 0.  0.
         23    2    4    4    0    0  0.86039925257E+02  0.69240538923E+03  0.14198786033E+03  0.71789595072E+03  0.91574842641E+02 0.  0.
         23    2    4    4    0    0 -0.15954731045E+03 -0.44806438829E+02  0.56819071524E+03  0.59846815514E+03  0.88659362724E+02 0.  0.
          2    1    3    3  502    0  0.17676796973E+02 -0.88968130884E+02 -0.13558224594E+03  0.16312676935E+03  0.00000000000E+00 0. -1.
         -1    1    3    3    0  502  0.55830588225E+02 -0.55863081952E+03 -0.12394707160E+04  0.13606884665E+04  0.00000000000E+00 0.  1.
         11    1    5    5    0    0  0.84070308971E+02  0.64702963867E+03  0.10841103720E+03  0.66141373070E+03  0.00000000000E+00 0.  1.
        -11    1    5    5    0    0  0.19696162856E+01  0.45375750561E+02  0.33576823128E+02  0.56482220022E+02  0.00000000000E+00 0. -1.
          1    1    6    6  503    0 -0.33960864583E+02 -0.50040849499E+02  0.14798265360E+03  0.15986335636E+03  0.00000000000E+00 0. -1.
         -1    1    6    6    0  503 -0.12558644587E+03  0.52344106696E+01  0.42020806164E+03  0.43860479878E+03  0.00000000000E+00 0.  1.
<mgrwt>
<rscale>  0 0.27612607E+04</rscale>
<asrwt>0</asrwt>
<pdfrwt beam="1">  1        2 0.16733115E+00 0.27612607E+04</pdfrwt>
<pdfrwt beam="2">  1       -1 0.26961952E+00 0.27612607E+04</pdfrwt>
<totfact> 0.11461818E+00</totfact>
</mgrwt>
</event>
<event>
12    6  0.9533401E-008  0.1363829E+04  0.7818608E-02  0.8980425E-01
         -1   -1    0    0    0  501 -0.00000000000E+00  0.00000000000E+00  0.39954658417E+03  0.39954658417E+03  0.00000000000E+00 0.  1.
          2   -1    0    0  501    0  0.00000000000E+00 -0.00000000000E+00 -0.11638373560E+04  0.11638373560E+04  0.00000000000E+00 0. -1.
         24    2    1    2    0    0 -0.28525489944E+03  0.44971147871E+02 -0.49542866777E+03  0.57897339346E+03  0.79798895269E+02 0.  0.
        254    2    1    2    0    0  0.28525489944E+03 -0.44971147871E+02 -0.26886210411E+03  0.98441054676E+03  0.90187833533E+03 0.  0.
         23    2    4    4    0    0  0.58981590777E+03 -0.13285431954E+03 -0.13017420227E+03  0.62623162844E+03  0.98425882010E+02 0.  0.
         23    2    4    4    0    0 -0.30456100833E+03  0.87883171667E+02 -0.13868790184E+03  0.35817891832E+03  0.92611790584E+02 0.  0.
          4    1    3    3  502    0 -0.25072848286E+03  0.32688047772E+02 -0.36883969796E+03  0.44718676566E+03  0.00000000000E+00 0. -1.
         -3    1    3    3    0  502 -0.34526416579E+02  0.12283100099E+02 -0.12658896981E+03  0.13178662780E+03  0.00000000000E+00 0.  1.
         11    1    5    5    0    0  0.36558996989E+03 -0.12749799757E+03 -0.64462923693E+02  0.39251399210E+03  0.00000000000E+00 0.  1.
        -11    1    5    5    0    0  0.22422593788E+03 -0.53563219672E+01 -0.65711278574E+02  0.23371763634E+03  0.00000000000E+00 0. -1.
          3    1    6    6  503    0 -0.24342218858E+03  0.29829797871E+02 -0.92991516410E+02  0.26228152977E+03  0.00000000000E+00 0. -1.
         -3    1    6    6    0  503 -0.61138819750E+02  0.58053373796E+02 -0.45696385432E+02  0.95897388552E+02  0.00000000000E+00 0.  1.
<mgrwt>
<rscale>  0 0.13638288E+04</rscale>
<asrwt>0</asrwt>
<pdfrwt beam="1">  1        2 0.17905190E+00 0.13638288E+04</pdfrwt>
<pdfrwt beam="2">  1       -1 0.61468705E-01 0.13638288E+04</pdfrwt>
<totfact> 0.59481109E+01</totfact>
</mgrwt>
</event>
<event>
12    6  0.9533401E-008  0.1195074E+04  0.7818608E-02  0.9117179E-01
          2   -1    0    0  501    0  0.00000000000E+00  0.00000000000E+00  0.98114388996E+03  0.98114388996E+03  0.00000000000E+00 0. -1.
         -1   -1    0    0    0  501 -0.00000000000E+00 -0.00000000000E+00 -0.36391247327E+03  0.36391247327E+03  0.00000000000E+00 0.  1.
         24    2    1    2    0    0  0.20482844568E+03  0.98835498887E+02 -0.43653944144E+02  0.24407583876E+03  0.77098639593E+02 0.  0.
        254    2    1    2    0    0 -0.20482844568E+03 -0.98835498887E+02  0.66088536083E+03  0.11009805245E+04  0.85068531614E+03 0.  0.
         23    2    4    4    0    0 -0.31757157602E+03 -0.41581750875E+03  0.37356233937E+03  0.64917652322E+03  0.90141169475E+02 0.  0.
         23    2    4    4    0    0  0.11274313033E+03  0.31698200986E+03  0.28732302147E+03  0.45180400124E+03  0.91562704531E+02 0.  0.
          2    1    3    3  502    0  0.15161345084E+03  0.73670330180E+02 -0.66120842683E+02  0.18106883183E+03  0.00000000000E+00 0. -1.
         -3    1    3    3    0  502  0.53214994849E+02  0.25165168707E+02  0.22466898538E+02  0.63007006934E+02  0.00000000000E+00 0.  1.
         11    1    5    5    0    0 -0.24736300327E+03 -0.33559059264E+03  0.25056773172E+03  0.48640897343E+03  0.00000000000E+00 0.  1.
        -11    1    5    5    0    0 -0.70208572742E+02 -0.80226916114E+02  0.12299460764E+03  0.16276754979E+03  0.00000000000E+00 0. -1.
          2    1    6    6  503    0  0.56150834436E+02  0.76684559534E+02  0.12215670083E+03  0.15477628190E+03  0.00000000000E+00 0. -1.
         -2    1    6    6    0  503  0.56592295895E+02  0.24029745033E+03  0.16516632063E+03  0.29702771935E+03  0.00000000000E+00 0.  1.
<mgrwt>
<rscale>  0 0.11950741E+04</rscale>
<asrwt>0</asrwt>
<pdfrwt beam="1">  1        2 0.15094521E+00 0.11950741E+04</pdfrwt>
<pdfrwt beam="2">  1       -1 0.55986535E-01 0.11950741E+04</pdfrwt>
<totfact> 0.94132111E+01</totfact>
</mgrwt>
</event>
<event>
12    6  0.9533401E-008  0.2841483E+04  0.7818608E-02  0.8290504E-01
         -1   -1    0    0    0  501 -0.00000000000E+00  0.00000000000E+00  0.18348124512E+04  0.18348124512E+04  0.00000000000E+00 0.  1.
          2   -1    0    0  501    0  0.00000000000E+00 -0.00000000000E+00 -0.11001158665E+04  0.11001158665E+04  0.00000000000E+00 0. -1.
         24    2    1    2    0    0  0.39167560037E+02 -0.54064197847E+03 -0.85964169201E+03  0.10194186434E+04  0.80016780264E+02 0.  0.
        254    2    1    2    0    0 -0.39167560037E+02  0.54064197847E+03  0.15943382767E+04  0.19155096743E+04  0.91292657160E+03 0.  0.
         23    2    4    4    0    0 -0.17055887090E+03 -0.33330226775E+02 -0.17665040042E+02  0.19705918327E+03  0.91208747438E+02 0.  0.
         23    2    4    4    0    0  0.13139131087E+03  0.57397220525E+03  0.16120033167E+04  0.17184504910E+04  0.88372099465E+02 0.  0.
          2    1    3    3  502    0  0.35461909862E+02 -0.33131792966E+03 -0.59534165396E+03  0.68224687798E+03  0.00000000000E+00 0. -1.
         -1    1    3    3    0  502  0.37056501752E+01 -0.20932404881E+03 -0.26430003805E+03  0.33717176538E+03  0.00000000000E+00 0.  1.
         11    1    5    5    0    0 -0.86737016264E+01  0.50728397050E+00 -0.29983797619E+02  0.31217279775E+02  0.00000000000E+00 0. -1.
        -11    1    5    5    0    0 -0.16188516928E+03 -0.33837510746E+02  0.12318757577E+02  0.16584190349E+03  0.00000000000E+00 0.  1.
          3    1    6    6  503    0  0.36810053449E+02  0.19000055907E+03  0.41714107252E+03  0.45984983078E+03  0.00000000000E+00 0. -1.
         -3    1    6    6    0  503  0.94581257418E+02  0.38397164618E+03  0.11948622442E+04  0.12586006602E+04  0.00000000000E+00 0.  1.
<mgrwt>
<rscale>  0 0.28414829E+04</rscale>
<asrwt>0</asrwt>
<pdfrwt beam="1">  1        2 0.16924859E+00 0.28414829E+04</pdfrwt>
<pdfrwt beam="2">  1       -1 0.28227884E+00 0.28414829E+04</pdfrwt>
<totfact> 0.92602628E-01</totfact>
</mgrwt>
</event>
<event>
12    6  0.9533401E-008  0.1497655E+04  0.7818608E-02  0.8886014E-01
         -1   -1    0    0    0  501 -0.00000000000E+00  0.00000000000E+00  0.48424771547E+03  0.48424771547E+03  0.00000000000E+00 0.  1.
          2   -1    0    0  501    0  0.00000000000E+00 -0.00000000000E+00 -0.11579661158E+04  0.11579661158E+04  0.00000000000E+00 0. -1.
         24    2    1    2    0    0  0.51188895313E+02  0.31809004988E+03 -0.60863577326E+03  0.69333646957E+03  0.80475913856E+02 0.  0.
        254    2    1    2    0    0 -0.51188895313E+02 -0.31809004988E+03 -0.65082627028E+02  0.94887736166E+03  0.89012971880E+03 0.  0.
         23    2    4    4    0    0  0.16025497227E+03  0.15810361669E+03 -0.28682430232E+03  0.37571315623E+03  0.90629937745E+02 0.  0.
         23    2    4    4    0    0 -0.21144386759E+03 -0.47619366657E+03  0.22174167529E+03  0.57316420543E+03  0.88763272881E+02 0.  0.
          2    1    3    3  502    0  0.63169335128E+02  0.28343291020E+03 -0.49454335222E+03  0.57349603896E+03  0.00000000000E+00 0. -1.
         -1    1    3    3    0  502 -0.11980439815E+02  0.34657139676E+02 -0.11409242104E+03  0.11984043060E+03  0.00000000000E+00 0.  1.
         11    1    5    5    0    0  0.13203777869E+03  0.11223777719E+03 -0.26704248695E+03  0.31834412743E+03  0.00000000000E+00 0.  1.
        -11    1    5    5    0    0  0.28217193587E+02  0.45865839496E+02 -0.19781815364E+02  0.57369028802E+02  0.00000000000E+00 0. -1.
          1    1    6    6  503    0 -0.56994613750E+02 -0.67785779729E+02  0.14128645627E+02  0.89682309054E+02  0.00000000000E+00 0. -1.
         -1    1    6    6    0  503 -0.15444925384E+03 -0.40840788684E+03  0.20761302966E+03  0.48348189638E+03  0.00000000000E+00 0.  1.
<mgrwt>
<rscale>  0 0.14976548E+04</rscale>
<asrwt>0</asrwt>
<pdfrwt beam="1">  1        2 0.17814863E+00 0.14976548E+04</pdfrwt>
<pdfrwt beam="2">  1       -1 0.74499649E-01 0.14976548E+04</pdfrwt>
<totfact> 0.40122092E+01</totfact>
</mgrwt>
</event>
<event>
12    6  0.9533401E-008  0.1312950E+04  0.7818608E-02  0.9019358E-01
         -1   -1    0    0    0  501 -0.00000000000E+00  0.00000000000E+00  0.16097179932E+03  0.16097179932E+03  0.00000000000E+00 0.  1.
          2   -1    0    0  501    0  0.00000000000E+00 -0.00000000000E+00 -0.26772361423E+04  0.26772361423E+04  0.00000000000E+00 0. -1.
         24    2    1    2    0    0 -0.92444720919E+02 -0.17837360447E+03 -0.70686935132E+02  0.22354260233E+03  0.67907901321E+02 0.  0.
        254    2    1    2    0    0  0.92444720919E+02  0.17837360447E+03 -0.24455774079E+04  0.26146653393E+04  0.90291904926E+03 0.  0.
         23    2    4    4    0    0  0.82846321892E+02  0.37199272439E+03 -0.40602402314E+03  0.56385869675E+03  0.88538254358E+02 0.  0.
         23    2    4    4    0    0  0.95983990270E+01 -0.19361911993E+03 -0.20395533847E+04  0.20508066426E+04  0.91920526234E+02 0.  0.
          2    1    3    3  502    0 -0.65184060761E+02 -0.75035560404E+02 -0.81763802936E+01  0.99730388033E+02  0.00000000000E+00 0. -1.
         -1    1    3    3    0  502 -0.27260660158E+02 -0.10333804406E+03 -0.62510554839E+02  0.12381221430E+03  0.00000000000E+00 0.  1.
         11    1    5    5    0    0  0.62955293401E+02  0.25512371544E+03 -0.33461674063E+03  0.42546426672E+03  0.00000000000E+00 0.  1.
        -11    1    5    5    0    0  0.19891028492E+02  0.11686900895E+03 -0.71407282509E+02  0.13839443003E+03  0.00000000000E+00 0. -1.
          1    1    6    6  503    0  0.30995554065E+02 -0.82344906120E+02 -0.12590829507E+04  0.12621534315E+04  0.00000000000E+00 0. -1.
         -1    1    6    6    0  503 -0.21397155038E+02 -0.11127421381E+03 -0.78047043404E+03  0.78865321106E+03  0.00000000000E+00 0.  1.
<mgrwt>
<rscale>  0 0.13129501E+04</rscale>
<asrwt>0</asrwt>
<pdfrwt beam="1">  1        2 0.41188245E+00 0.13129501E+04</pdfrwt>
<pdfrwt beam="2">  1       -1 0.24764894E-01 0.13129501E+04</pdfrwt>
<totfact> 0.43790083E+01</totfact>
</mgrwt>
</event>
<event>
12    6  0.9533401E-008  0.1679430E+04  0.7818608E-02  0.8773184E-01
          2   -1    0    0  501    0  0.00000000000E+00  0.00000000000E+00  0.14431026200E+04  0.14431026200E+04  0.00000000000E+00 0. -1.
         -1   -1    0    0    0  501 -0.00000000000E+00 -0.00000000000E+00 -0.48861461546E+03  0.48861461546E+03  0.00000000000E+00 0.  1.
         24    2    1    2    0    0  0.56546570874E+03 -0.15776465886E+03  0.21875552563E+03  0.63263370679E+03  0.87921963271E+02 0.  0.
        254    2    1    2    0    0 -0.56546570874E+03  0.15776465886E+03  0.73573247892E+03  0.12990835287E+04  0.89536281952E+03 0.  0.
         23    2    4    4    0    0 -0.15079792496E+03 -0.22721589798E+03  0.65969784057E+03  0.72053966459E+03  0.98025960507E+02 0.  0.
         23    2    4    4    0    0 -0.41466778378E+03  0.38498055684E+03  0.76034638351E+02  0.57854386408E+03  0.93660751546E+02 0.  0.
          4    1    3    3  502    0  0.25756490215E+03 -0.69764558149E+02  0.14626120748E+03  0.30430102400E+03  0.00000000000E+00 0. -1.
         -3    1    3    3    0  502  0.30790080659E+03 -0.88000100711E+02  0.72494318148E+02  0.32833268279E+03  0.00000000000E+00 0.  1.
         11    1    5    5    0    0 -0.50181261740E+02 -0.10499019383E+03  0.17099505121E+03  0.20683425096E+03  0.00000000000E+00 0.  1.
        -11    1    5    5    0    0 -0.10061666322E+03 -0.12222570415E+03  0.48870278936E+03  0.51370541363E+03  0.00000000000E+00 0. -1.
          2    1    6    6  503    0 -0.16332553783E+03  0.12974730943E+03 -0.14416194510E+02  0.20908711648E+03  0.00000000000E+00 0. -1.
         -2    1    6    6    0  503 -0.25134224596E+03  0.25523324740E+03  0.90450832861E+02  0.36945674760E+03  0.00000000000E+00 0.  1.
<mgrwt>
<rscale>  0 0.16794297E+04</rscale>
<asrwt>0</asrwt>
<pdfrwt beam="1">  1        2 0.22201579E+00 0.16794297E+04</pdfrwt>
<pdfrwt beam="2">  1       -1 0.75171480E-01 0.16794297E+04</pdfrwt>
<totfact> 0.26425835E+01</totfact>
</mgrwt>
</event>
<event>
12    6  0.9533401E-008  0.1186164E+04  0.7818608E-02  0.9125054E-01
          2   -1    0    0  501    0  0.00000000000E+00  0.00000000000E+00  0.85578778138E+03  0.85578778138E+03  0.00000000000E+00 0. -1.
         -1   -1    0    0    0  501 -0.00000000000E+00 -0.00000000000E+00 -0.41102011941E+03  0.41102011941E+03  0.00000000000E+00 0.  1.
         24    2    1    2    0    0  0.11076683915E+03  0.10438428549E+03  0.29023139400E+03  0.33738207576E+03  0.80168767408E+02 0.  0.
        254    2    1    2    0    0 -0.11076683915E+03 -0.10438428549E+03  0.15453626797E+03  0.92942582503E+03  0.90376187926E+03 0.  0.
         23    2    4    4    0    0 -0.97088402503E+02 -0.49606903137E+03  0.10204163643E+03  0.52381176852E+03  0.91954507709E+02 0.  0.
         23    2    4    4    0    0 -0.13678436652E+02  0.39168474588E+03  0.52494631542E+02  0.40561405651E+03  0.90349525261E+02 0.  0.
          4    1    3    3  502    0  0.98349839497E+02  0.10101230551E+03  0.29213545562E+03  0.32437524755E+03  0.00000000000E+00 0. -1.
         -3    1    3    3    0  502  0.12416999658E+02  0.33719799801E+01 -0.19040616177E+01  0.13006828212E+02  0.00000000000E+00 0.  1.
         11    1    5    5    0    0 -0.96256414684E+02 -0.43048837564E+03  0.58245616206E+02  0.44494728984E+03  0.00000000000E+00 0. -1.
        -11    1    5    5    0    0 -0.83198781870E+00 -0.65580655730E+02  0.43796020224E+02  0.78864478678E+02  0.00000000000E+00 0.  1.
          3    1    6    6  503    0  0.32551546333E+02  0.22546470184E+03  0.10482726599E+02  0.22804346625E+03  0.00000000000E+00 0. -1.
         -3    1    6    6    0  503 -0.46229982984E+02  0.16622004404E+03  0.42011904943E+02  0.17757059026E+03  0.00000000000E+00 0.  1.
<mgrwt>
<rscale>  0 0.11861636E+04</rscale>
<asrwt>0</asrwt>
<pdfrwt beam="1">  1        2 0.13165966E+00 0.11861636E+04</pdfrwt>
<pdfrwt beam="2">  1       -1 0.63233865E-01 0.11861636E+04</pdfrwt>
<totfact> 0.89919677E+01</totfact>
</mgrwt>
</event>
<event>
12    6  0.9533401E-008  0.1097846E+04  0.7818608E-02  0.9207294E-01
         -3   -1    0    0    0  501 -0.00000000000E+00  0.00000000000E+00  0.11642541900E+04  0.11642541900E+04  0.00000000000E+00 0.  1.
          2   -1    0    0  501    0  0.00000000000E+00 -0.00000000000E+00 -0.25880640161E+03  0.25880640161E+03  0.00000000000E+00 0. -1.
         24    2    1    2    0    0 -0.11202468155E+03  0.58433468420E+02  0.27936143812E+03  0.31664173492E+03  0.79089668602E+02 0.  0.
        254    2    1    2    0    0  0.11202468155E+03 -0.58433468420E+02  0.62608635027E+03  0.11064188567E+04  0.90344594136E+03 0.  0.
         23    2    4    4    0    0  0.10822752029E+03  0.12956307901E+03  0.80644156205E+03  0.82836965433E+03  0.85723413528E+02 0.  0.
         23    2    4    4    0    0  0.37971612607E+01 -0.18799654743E+03 -0.18035521178E+03  0.27804920237E+03  0.97088805976E+02 0.  0.
          4    1    3    3  502    0 -0.19321608315E+02  0.50413460834E+02  0.12865801681E+03  0.13952679624E+03  0.00000000000E+00 0. -1.
         -3    1    3    3    0  502 -0.92703073231E+02  0.80200075861E+01  0.15070342131E+03  0.17711493868E+03  0.00000000000E+00 0.  1.
         11    1    5    5    0    0  0.67544830790E+02  0.20528216142E+02  0.24363208799E+03  0.25365391012E+03  0.00000000000E+00 0. -1.
        -11    1    5    5    0    0  0.40682689495E+02  0.10903486286E+03  0.56280947406E+03  0.57471574421E+03  0.00000000000E+00 0.  1.
          1    1    6    6  503    0  0.90688458953E+01  0.58701762099E+01  0.29429444545E+01  0.11196600228E+02  0.00000000000E+00 0. -1.
         -1    1    6    6    0  503 -0.52716846346E+01 -0.19386672364E+03 -0.18329815623E+03  0.26685260214E+03  0.00000000000E+00 0.  1.
<mgrwt>
<rscale>  0 0.10978460E+04</rscale>
<asrwt>0</asrwt>
<pdfrwt beam="1">  1        2 0.39816370E-01 0.10978460E+04</pdfrwt>
<pdfrwt beam="2">  1       -3 0.17911603E+00 0.10978460E+04</pdfrwt>
<totfact> 0.16052806E+01</totfact>
</mgrwt>
</event>
<event>
12    6  0.9533401E-008  0.1561121E+04  0.7818608E-02  0.8844796E-01
         -1   -1    0    0    0  501 -0.00000000000E+00  0.00000000000E+00  0.46747343659E+03  0.46747343659E+03  0.00000000000E+00 0.  1.
          2   -1    0    0  501    0  0.00000000000E+00 -0.00000000000E+00 -0.13033347982E+04  0.13033347982E+04  0.00000000000E+00 0. -1.
         24    2    1    2    0    0  0.26511446451E+03  0.25446993072E+03  0.13187257991E+03  0.39913530167E+03  0.82933628724E+02 0.  0.
        254    2    1    2    0    0 -0.26511446451E+03 -0.25446993072E+03 -0.96773394151E+03  0.13716729331E+04  0.89996501540E+03 0.  0.
         23    2    4    4    0    0 -0.23567840687E+03 -0.56440521845E+03 -0.77964102196E+03  0.99511494716E+03  0.91192504358E+02 0.  0.
         23    2    4    4    0    0 -0.29436057634E+02  0.30993528774E+03 -0.18809291954E+03  0.37655798595E+03  0.97419743005E+02 0.  0.
          4    1    3    3  502    0  0.18261472923E+02  0.21609830214E+02  0.37365922079E+02  0.46868734653E+02  0.00000000000E+00 0. -1.
         -3    1    3    3    0  502  0.24685299158E+03  0.23286010051E+03  0.94506657834E+02  0.35226656701E+03  0.00000000000E+00 0.  1.
         11    1    5    5    0    0 -0.98564933442E+02 -0.14979695241E+03 -0.26792377797E+03  0.32239312006E+03  0.00000000000E+00 0. -1.
        -11    1    5    5    0    0 -0.13711347343E+03 -0.41460826604E+03 -0.51171724399E+03  0.67272182711E+03  0.00000000000E+00 0.  1.
          4    1    6    6  503    0 -0.11472601837E+02  0.96581477961E+02 -0.94643980131E+01  0.97719892078E+02  0.00000000000E+00 0. -1.
         -4    1    6    6    0  503 -0.17963455797E+02  0.21335380977E+03 -0.17862852153E+03  0.27883809387E+03  0.00000000000E+00 0.  1.
<mgrwt>
<rscale>  0 0.15611206E+04</rscale>
<asrwt>0</asrwt>
<pdfrwt beam="1">  1        2 0.20051304E+00 0.15611206E+04</pdfrwt>
<pdfrwt beam="2">  1       -1 0.71918992E-01 0.15611206E+04</pdfrwt>
<totfact> 0.35208183E+01</totfact>
</mgrwt>
</event>
<event>
12    6  0.9533401E-008  0.2717928E+04  0.7818608E-02  0.8329211E-01
          2   -1    0    0  501    0  0.00000000000E+00  0.00000000000E+00  0.14706055929E+04  0.14706055929E+04  0.00000000000E+00 0. -1.
         -1   -1    0    0    0  501 -0.00000000000E+00 -0.00000000000E+00 -0.12557981771E+04  0.12557981771E+04  0.00000000000E+00 0.  1.
         24    2    1    2    0    0  0.94708062504E+03  0.72592272200E+03  0.28434814248E+03  0.12293397372E+04  0.80602820084E+02 0.  0.
        254    2    1    2    0    0 -0.94708062504E+03 -0.72592272200E+03 -0.69540726715E+02  0.14970640329E+04  0.90135414635E+03 0.  0.
         23    2    4    4    0    0 -0.90989180440E+03 -0.27885551581E+03  0.18488384221E+03  0.97378683444E+03  0.91734777544E+02 0.  0.
         23    2    4    4    0    0 -0.37188820636E+02 -0.44706720619E+03 -0.25442456892E+03  0.52327719841E+03  0.88515930045E+02 0.  0.
          4    1    3    3  502    0  0.59212659938E+03  0.45844968111E+03  0.13839441355E+03  0.76153990933E+03  0.00000000000E+00 0. -1.
         -1    1    3    3    0  502  0.35495402566E+03  0.26747304089E+03  0.14595372892E+03  0.46779982783E+03  0.00000000000E+00 0.  1.
         11    1    5    5    0    0 -0.70224953108E+02 -0.30775728778E+02 -0.84829665081E+01  0.77140457878E+02  0.00000000000E+00 0. -1.
        -11    1    5    5    0    0 -0.83966685129E+03 -0.24807978703E+03  0.19336680871E+03  0.89664637657E+03  0.00000000000E+00 0.  1.
          1    1    6    6  503    0 -0.37901552423E+02 -0.41784007570E+03 -0.20768010224E+03  0.46814301383E+03  0.00000000000E+00 0. -1.
         -1    1    6    6    0  503  0.71273178725E+00 -0.29227130495E+02 -0.46744466680E+02  0.55134184575E+02  0.00000000000E+00 0.  1.
<mgrwt>
<rscale>  0 0.27179285E+04</rscale>
<asrwt>0</asrwt>
<pdfrwt beam="1">  1        2 0.22624701E+00 0.27179285E+04</pdfrwt>
<pdfrwt beam="2">  1       -1 0.19319972E+00 0.27179285E+04</pdfrwt>
<totfact> 0.22082807E+00</totfact>
</mgrwt>
</event>
<event>
12    6  0.9533401E-008  0.1219947E+04  0.7818608E-02  0.9095574E-01
         -1   -1    0    0    0  501 -0.00000000000E+00  0.00000000000E+00  0.55952042403E+03  0.55952042403E+03  0.00000000000E+00 0.  1.
          2   -1    0    0  501    0  0.00000000000E+00 -0.00000000000E+00 -0.66497620026E+03  0.66497620026E+03  0.00000000000E+00 0. -1.
         24    2    1    2    0    0  0.19642212841E+03  0.35815490152E+02 -0.14877305035E+03  0.26827022876E+03  0.99855361730E+02 0.  0.
        254    2    1    2    0    0 -0.19642212841E+03 -0.35815490152E+02  0.43317274122E+02  0.95622639552E+03  0.93414566926E+03 0.  0.
         23    2    4    4    0    0  0.14071887418E+03  0.17639382252E+03  0.36313505085E+03  0.43696787874E+03  0.90317660106E+02 0.  0.
         23    2    4    4    0    0 -0.33714100258E+03 -0.21220931268E+03 -0.31981777672E+03  0.51925851678E+03  0.93000800688E+02 0.  0.
          2    1    3    3  502    0  0.13248758447E+03  0.64176852124E+02 -0.12860957713E+03  0.19547903140E+03  0.00000000000E+00 0. -1.
         -1    1    3    3    0  502  0.63934543936E+02 -0.28361361972E+02 -0.20163473225E+02  0.72791197364E+02  0.00000000000E+00 0.  1.
         11    1    5    5    0    0  0.12515533117E+03  0.17172909785E+03  0.27597193684E+03  0.34830338771E+03  0.00000000000E+00 0. -1.
        -11    1    5    5    0    0  0.15563543011E+02  0.46647246770E+01  0.87163114002E+02  0.88664491031E+02  0.00000000000E+00 0.  1.
          1    1    6    6  503    0 -0.33687296447E+03 -0.21311811503E+03 -0.29870347949E+03  0.49812297057E+03  0.00000000000E+00 0. -1.
         -1    1    6    6    0  503 -0.26803811603E+00  0.90880235623E+00 -0.21114297230E+02  0.21135546212E+02  0.00000000000E+00 0.  1.
<mgrwt>
<rscale>  0 0.12199472E+04</rscale>
<asrwt>0</asrwt>
<pdfrwt beam="1">  1        2 0.10230403E+00 0.12199472E+04</pdfrwt>
<pdfrwt beam="2">  1       -1 0.86080066E-01 0.12199472E+04</pdfrwt>
<totfact> 0.65575127E+01</totfact>
</mgrwt>
</event>
<event>
12    6  0.9533401E-008  0.1888326E+04  0.7818608E-02  0.8660689E-01
         -1   -1    0    0    0  501 -0.00000000000E+00  0.00000000000E+00  0.12829582769E+04  0.12829582769E+04  0.00000000000E+00 0.  1.
          2   -1    0    0  501    0  0.00000000000E+00 -0.00000000000E+00 -0.69483434139E+03  0.69483434139E+03  0.00000000000E+00 0. -1.
         24    2    1    2    0    0  0.62254202230E+03  0.19221037263E+03  0.64925553186E+03  0.92322509698E+03  0.79425670747E+02 0.  0.
        254    2    1    2    0    0 -0.62254202230E+03 -0.19221037263E+03 -0.61131596345E+02  0.10545675213E+04  0.82696565106E+03 0.  0.
         23    2    4    4    0    0 -0.42261644784E+03  0.15518937745E+02 -0.40787469132E+03  0.59435381204E+03  0.89717281814E+02 0.  0.
         23    2    4    4    0    0 -0.19992557447E+03 -0.20772931038E+03  0.34674309497E+03  0.46021370927E+03  0.91892233461E+02 0.  0.
          2    1    3    3  502    0  0.18531489498E+03  0.95829525391E+02  0.20374547206E+03  0.29161125771E+03  0.00000000000E+00 0. -1.
         -1    1    3    3    0  502  0.43722712733E+03  0.96380847240E+02  0.44551005980E+03  0.63161383928E+03  0.00000000000E+00 0.  1.
         11    1    5    5    0    0 -0.35895680524E+01  0.12635129962E+02 -0.99073767388E+01  0.16452587085E+02  0.00000000000E+00 0. -1.
        -11    1    5    5    0    0 -0.41902687978E+03  0.28838077838E+01 -0.39796731458E+03  0.57790122495E+03  0.00000000000E+00 0.  1.
          4    1    6    6  503    0 -0.49212769854E+02 -0.49722057622E+02  0.31480300804E+02  0.76714985951E+02  0.00000000000E+00 0. -1.
         -4    1    6    6    0  503 -0.15071280461E+03 -0.15800725275E+03  0.31526279417E+03  0.38349872332E+03  0.00000000000E+00 0.  1.
<mgrwt>
<rscale>  0 0.18883257E+04</rscale>
<asrwt>0</asrwt>
<pdfrwt beam="1">  1        2 0.10689759E+00 0.18883257E+04</pdfrwt>
<pdfrwt beam="2">  1       -1 0.19737820E+00 0.18883257E+04</pdfrwt>
<totfact> 0.69457967E+00</totfact>
</mgrwt>
</event>
<event>
12    6  0.9533401E-008  0.1694312E+04  0.7818608E-02  0.8764615E-01
          2   -1    0    0  501    0  0.00000000000E+00  0.00000000000E+00  0.11728375435E+04  0.11728375435E+04  0.00000000000E+00 0. -1.
         -1   -1    0    0    0  501 -0.00000000000E+00 -0.00000000000E+00 -0.61191190803E+03  0.61191190803E+03  0.00000000000E+00 0.  1.
         24    2    1    2    0    0 -0.41906045116E+03  0.37052058392E+03 -0.33044255440E+02  0.56682929429E+03  0.85477255569E+02 0.  0.
        254    2    1    2    0    0  0.41906045116E+03 -0.37052058392E+03  0.59396989092E+03  0.12179201572E+04  0.90423012186E+03 0.  0.
         23    2    4    4    0    0 -0.73215960135E+02 -0.34555750331E+03  0.61663734430E+03  0.71609360215E+03  0.88192220388E+02 0.  0.
         23    2    4    4    0    0  0.49227641129E+03 -0.24963080604E+02 -0.22667453377E+02  0.50182655510E+03  0.91415849058E+02 0.  0.
          4    1    3    3  502    0 -0.36983470758E+03  0.30517582474E+03 -0.53597526439E+02  0.48247558464E+03  0.00000000000E+00 0. -1.
         -3    1    3    3    0  502 -0.49225743575E+02  0.65344759178E+02  0.20553270999E+02  0.84353709648E+02  0.00000000000E+00 0.  1.
         11    1    5    5    0    0 -0.57423941225E+02 -0.30651829318E+03  0.47413425104E+03  0.56749824765E+03  0.00000000000E+00 0. -1.
        -11    1    5    5    0    0 -0.15792018910E+02 -0.39039210135E+02  0.14250309326E+03  0.14859535449E+03  0.00000000000E+00 0.  1.
          4    1    6    6  503    0  0.43119325329E+03  0.73071980785E+01 -0.86868059935E+01  0.43134264503E+03  0.00000000000E+00 0. -1.
         -4    1    6    6    0  503  0.61083158003E+02 -0.32270278683E+02 -0.13980647384E+02  0.70483910073E+02  0.00000000000E+00 0.  1.
<mgrwt>
<rscale>  0 0.16943120E+04</rscale>
<asrwt>0</asrwt>
<pdfrwt beam="1">  1        2 0.18043654E+00 0.16943120E+04</pdfrwt>
<pdfrwt beam="2">  1       -1 0.94140294E-01 0.16943120E+04</pdfrwt>
<totfact> 0.23334766E+01</totfact>
</mgrwt>
</event>
<event>
12    6  0.9533401E-008  0.1817136E+04  0.7818608E-02  0.8697239E-01
         -1   -1    0    0    0  501 -0.00000000000E+00  0.00000000000E+00  0.89311665384E+03  0.89311665384E+03  0.00000000000E+00 0.  1.
          2   -1    0    0  501    0  0.00000000000E+00 -0.00000000000E+00 -0.92428711658E+03  0.92428711658E+03  0.00000000000E+00 0. -1.
         24    2    1    2    0    0 -0.67859366210E+03 -0.72024275115E+02  0.30733837726E+02  0.68764381409E+03  0.78946765797E+02 0.  0.
        254    2    1    2    0    0  0.67859366210E+03  0.72024275115E+02 -0.61904300468E+02  0.11297599563E+04  0.89824749489E+03 0.  0.
         23    2    4    4    0    0  0.78193987749E+03 -0.20908773342E+03 -0.78184326633E+02  0.81804261107E+03  0.89068918894E+02 0.  0.
         23    2    4    4    0    0 -0.10334621539E+03  0.28111200853E+03  0.16280026165E+02  0.31171734526E+03  0.84842574859E+02 0.  0.
          2    1    3    3  502    0 -0.21194934608E+03 -0.12684345423E+02  0.44918643332E+02  0.21702788402E+03  0.00000000000E+00 0. -1.
         -1    1    3    3    0  502 -0.46664431602E+03 -0.59339929691E+02 -0.14184805606E+02  0.47061593007E+03  0.00000000000E+00 0.  1.
         11    1    5    5    0    0  0.46254923581E+03 -0.78199033178E+02 -0.42582054476E+02  0.47104152227E+03  0.00000000000E+00 0. -1.
        -11    1    5    5    0    0  0.31939064169E+03 -0.13088870024E+03 -0.35602272156E+02  0.34700108880E+03  0.00000000000E+00 0.  1.
          4    1    6    6  503    0 -0.93484749592E+02  0.13154266311E+03  0.66834732972E+01  0.16151637514E+03  0.00000000000E+00 0. -1.
         -4    1    6    6    0  503 -0.98614658032E+01  0.14956934542E+03  0.95965528678E+01  0.15020097012E+03  0.00000000000E+00 0.  1.
<mgrwt>
<rscale>  0 0.18171364E+04</rscale>
<asrwt>0</asrwt>
<pdfrwt beam="1">  1        2 0.14219802E+00 0.18171364E+04</pdfrwt>
<pdfrwt beam="2">  1       -1 0.13740256E+00 0.18171364E+04</pdfrwt>
<totfact> 0.13372366E+01</totfact>
</mgrwt>
</event>
<event>
12    6  0.9533401E-008  0.2337834E+04  0.7818608E-02  0.8463151E-01
         -1   -1    0    0    0  501 -0.00000000000E+00  0.00000000000E+00  0.15366165105E+04  0.15366165105E+04  0.00000000000E+00 0.  1.
          2   -1    0    0  501    0  0.00000000000E+00 -0.00000000000E+00 -0.88920497646E+03  0.88920497646E+03  0.00000000000E+00 0. -1.
         24    2    1    2    0    0 -0.40228042582E+03 -0.62571063440E+03 -0.40576823396E+03  0.85129336777E+03  0.81909702302E+02 0.  0.
        254    2    1    2    0    0  0.40228042582E+03  0.62571063440E+03  0.10531797680E+04  0.15745281191E+04  0.90366356313E+03 0.  0.
         23    2    4    4    0    0  0.11095956936E+03 -0.17908636108E+02 -0.12996064630E+03  0.19379173227E+03  0.89625446323E+02 0.  0.
         23    2    4    4    0    0  0.29132085646E+03  0.64361927051E+03  0.11831404143E+04  0.13807363869E+04  0.86591705263E+02 0.  0.
          2    1    3    3  502    0 -0.37446177031E+03 -0.59993620698E+03 -0.40122955703E+03  0.81309914974E+03  0.00000000000E+00 0. -1.
         -1    1    3    3    0  502 -0.27818655513E+02 -0.25774427416E+02 -0.45386769267E+01  0.38194218037E+02  0.00000000000E+00 0.  1.
         11    1    5    5    0    0  0.59455953920E+02  0.17254592502E+02 -0.16095037916E+02  0.63967035765E+02  0.00000000000E+00 0.  1.
        -11    1    5    5    0    0  0.51503615444E+02 -0.35163228610E+02 -0.11386560838E+03  0.12982469650E+03  0.00000000000E+00 0. -1.
          4    1    6    6  503    0 -0.45625182020E+01  0.17154679230E+01  0.99141903845E+01  0.11047650136E+02  0.00000000000E+00 0.  1.
         -4    1    6    6    0  503  0.29588337466E+03  0.64190380258E+03  0.11732262239E+04  0.13696887367E+04  0.00000000000E+00 0. -1.
<mgrwt>
<rscale>  0 0.23378341E+04</rscale>
<asrwt>0</asrwt>
<pdfrwt beam="1">  1        2 0.13680077E+00 0.23378341E+04</pdfrwt>
<pdfrwt beam="2">  1       -1 0.23640254E+00 0.23378341E+04</pdfrwt>
<totfact> 0.26318969E+00</totfact>
</mgrwt>
</event>
<event>
12    6  0.9533401E-008  0.1731383E+04  0.7818608E-02  0.8743665E-01
         -1   -1    0    0    0  501 -0.00000000000E+00  0.00000000000E+00  0.56686439273E+03  0.56686439273E+03  0.00000000000E+00 0.  1.
          2   -1    0    0  501    0  0.00000000000E+00 -0.00000000000E+00 -0.13220479006E+04  0.13220479006E+04  0.00000000000E+00 0. -1.
         24    2    1    2    0    0  0.22953913856E+03  0.55774566456E+03 -0.99884916808E+02  0.61665876401E+03  0.80762566560E+02 0.  0.
        254    2    1    2    0    0 -0.22953913856E+03 -0.55774566456E+03 -0.65529859110E+03  0.12722535294E+04  0.90853968379E+03 0.  0.
         23    2    4    4    0    0  0.74583483883E+02  0.18921040549E+03 -0.32995190033E+03  0.39836060075E+03  0.91976290893E+02 0.  0.
         23    2    4    4    0    0 -0.30412262244E+03 -0.74695607005E+03 -0.32534669077E+03  0.87389292861E+03  0.86049063966E+02 0.  0.
          2    1    3    3  502    0  0.27795895656E+02  0.88138807746E+02  0.12733538468E+02  0.93290965523E+02  0.00000000000E+00 0. -1.
         -1    1    3    3    0  502  0.20174324290E+03  0.46960685681E+03 -0.11261845528E+03  0.52336779848E+03  0.00000000000E+00 0.  1.
         11    1    5    5    0    0  0.61117819519E+02  0.59640129641E+02 -0.18323944202E+03  0.20216089147E+03  0.00000000000E+00 0.  1.
        -11    1    5    5    0    0  0.13465664365E+02  0.12957027585E+03 -0.14671245831E+03  0.19619970929E+03  0.00000000000E+00 0. -1.
          4    1    6    6  503    0 -0.18250724907E+03 -0.53363529243E+03 -0.20168211682E+03  0.59895842722E+03  0.00000000000E+00 0. -1.
         -4    1    6    6    0  503 -0.12161537337E+03 -0.21332077762E+03 -0.12366457395E+03  0.27493450139E+03  0.00000000000E+00 0.  1.
<mgrwt>
<rscale>  0 0.17313831E+04</rscale>
<asrwt>0</asrwt>
<pdfrwt beam="1">  1        2 0.20339198E+00 0.17313831E+04</pdfrwt>
<pdfrwt beam="2">  1       -1 0.87209908E-01 0.17313831E+04</pdfrwt>
<totfact> 0.22483379E+01</totfact>
</mgrwt>
</event>
<event>
12    6  0.9533401E-008  0.2108567E+04  0.7818608E-02  0.8557479E-01
          2   -1    0    0  501    0  0.00000000000E+00  0.00000000000E+00  0.12434221530E+04  0.12434221530E+04  0.00000000000E+00 0. -1.
         -1   -1    0    0    0  501 -0.00000000000E+00 -0.00000000000E+00 -0.89391514934E+03  0.89391514934E+03  0.00000000000E+00 0.  1.
         24    2    1    2    0    0  0.79431035877E+03  0.32269381972E+03  0.10213223128E+03  0.86703458589E+03  0.79105834928E+02 0.  0.
        254    2    1    2    0    0 -0.79431035877E+03 -0.32269381972E+03  0.24737477242E+03  0.12703027165E+04  0.90410976444E+03 0.  0.
         23    2    4    4    0    0 -0.94396469220E+03 -0.28281629216E+03  0.36607855553E+03  0.10547771871E+04  0.86527512602E+02 0.  0.
         23    2    4    4    0    0  0.14965433343E+03 -0.39877527554E+02 -0.11870378312E+03  0.21552552936E+03  0.91509720588E+02 0.  0.
          2    1    3    3  502    0  0.10423023168E+03  0.72185132544E+02  0.11128823029E+02  0.12727327001E+03  0.00000000000E+00 0. -1.
         -1    1    3    3    0  502  0.69008012709E+03  0.25050868717E+03  0.91003408248E+02  0.73976131588E+03  0.00000000000E+00 0.  1.
         11    1    5    5    0    0 -0.83223273588E+03 -0.26304754325E+03  0.29713087990E+03  0.92200439070E+03  0.00000000000E+00 0.  1.
        -11    1    5    5    0    0 -0.11173195631E+03 -0.19768748915E+02  0.68947675635E+02  0.13277279643E+03  0.00000000000E+00 0. -1.
          2    1    6    6  503    0  0.13197923389E+02  0.23640065908E+02 -0.66486128450E+01  0.27879059358E+02  0.00000000000E+00 0. -1.
         -2    1    6    6    0  503  0.13645641004E+03 -0.63517593461E+02 -0.11205517027E+03  0.18764647000E+03  0.00000000000E+00 0.  1.
<mgrwt>
<rscale>  0 0.21085672E+04</rscale>
<asrwt>0</asrwt>
<pdfrwt beam="1">  1        2 0.19129572E+00 0.21085672E+04</pdfrwt>
<pdfrwt beam="2">  1       -1 0.13752541E+00 0.21085672E+04</pdfrwt>
<totfact> 0.82278083E+00</totfact>
</mgrwt>
</event>
<event>
12    6  0.9533401E-008  0.2297273E+04  0.7818608E-02  0.8478997E-01
         -1   -1    0    0    0  501 -0.00000000000E+00  0.00000000000E+00  0.10889909458E+04  0.10889909458E+04  0.00000000000E+00 0.  1.
          2   -1    0    0  501    0  0.00000000000E+00 -0.00000000000E+00 -0.12115490489E+04  0.12115490489E+04  0.00000000000E+00 0. -1.
         24    2    1    2    0    0 -0.48961688343E+02  0.82650897212E+03 -0.56101376426E+03  0.10031979527E+04  0.78456106329E+02 0.  0.
        254    2    1    2    0    0  0.48961688343E+02 -0.82650897212E+03  0.43845566116E+03  0.12973420421E+04  0.89740664106E+03 0.  0.
         23    2    4    4    0    0  0.33991023453E+03 -0.22183458549E+03  0.45895562108E+03  0.61958787311E+03  0.92191754066E+02 0.  0.
         23    2    4    4    0    0 -0.29094854619E+03 -0.60467438663E+03 -0.20499959925E+02  0.67775416897E+03  0.92996208656E+02 0.  0.
          4    1    3    3  502    0 -0.16852423264E+02  0.49647367793E+03 -0.37983327339E+03  0.62533465650E+03  0.00000000000E+00 0. -1.
         -3    1    3    3    0  502 -0.32109265079E+02  0.33003529419E+03 -0.18118049087E+03  0.37786329616E+03  0.00000000000E+00 0.  1.
         11    1    5    5    0    0  0.95614800667E+02 -0.39357138697E+02  0.17307810604E+03  0.20161152066E+03  0.00000000000E+00 0.  1.
        -11    1    5    5    0    0  0.24429543387E+03 -0.18247744680E+03  0.28587751504E+03  0.41797635245E+03  0.00000000000E+00 0. -1.
          1    1    6    6  503    0 -0.12956642440E+03 -0.33658742231E+03 -0.47033112641E+02  0.36371783689E+03  0.00000000000E+00 0.  1.
         -1    1    6    6    0  503 -0.16138212180E+03 -0.26808696432E+03  0.26533152716E+02  0.31403633208E+03  0.00000000000E+00 0. -1.
<mgrwt>
<rscale>  0 0.22972731E+04</rscale>
<asrwt>0</asrwt>
<pdfrwt beam="1">  1        2 0.18639216E+00 0.22972731E+04</pdfrwt>
<pdfrwt beam="2">  1       -1 0.16753707E+00 0.22972731E+04</pdfrwt>
<totfact> 0.49445288E+00</totfact>
</mgrwt>
</event>
<event>
12    6  0.9533401E-008  0.1359475E+04  0.7818608E-02  0.8983687E-01
         -1   -1    0    0    0  501 -0.00000000000E+00  0.00000000000E+00  0.50608437600E+03  0.50608437600E+03  0.00000000000E+00 0.  1.
          2   -1    0    0  501    0  0.00000000000E+00 -0.00000000000E+00 -0.91297604728E+03  0.91297604728E+03  0.00000000000E+00 0. -1.
         24    2    1    2    0    0  0.21124544961E+03 -0.20974877952E+03 -0.34905236341E+03  0.46548037205E+03  0.78836754604E+02 0.  0.
        254    2    1    2    0    0 -0.21124544961E+03  0.20974877952E+03 -0.57839307877E+02  0.95358005123E+03  0.90407429898E+03 0.  0.
         23    2    4    4    0    0 -0.10638668732E+03 -0.25509144401E+03  0.24603453261E+03  0.38096328143E+03  0.90610476824E+02 0.  0.
         23    2    4    4    0    0 -0.10485876229E+03  0.46484022353E+03 -0.30387384049E+03  0.57261676980E+03  0.92080729172E+02 0.  0.
          2    1    3    3  502    0  0.19884441837E+03 -0.20230623919E+03 -0.29390967176E+03  0.40847253553E+03  0.00000000000E+00 0. -1.
         -1    1    3    3    0  502  0.12401031238E+02 -0.74425403303E+01 -0.55142691651E+02  0.57007836521E+02  0.00000000000E+00 0.  1.
         11    1    5    5    0    0 -0.11493145641E+03 -0.19395961627E+03  0.16642192269E+03  0.28022460414E+03  0.00000000000E+00 0. -1.
        -11    1    5    5    0    0  0.85447690907E+01 -0.61131827742E+02  0.79612609921E+02  0.10073867728E+03  0.00000000000E+00 0.  1.
          3    1    6    6  503    0 -0.43064919408E+02  0.16073360828E+03 -0.56402011309E+02  0.17570164198E+03  0.00000000000E+00 0. -1.
         -3    1    6    6    0  503 -0.61793842879E+02  0.30410661525E+03 -0.24747182918E+03  0.39691512782E+03  0.00000000000E+00 0.  1.
<mgrwt>
<rscale>  0 0.13594748E+04</rscale>
<asrwt>0</asrwt>
<pdfrwt beam="1">  1        2 0.14045785E+00 0.13594748E+04</pdfrwt>
<pdfrwt beam="2">  1       -1 0.77859135E-01 0.13594748E+04</pdfrwt>
<totfact> 0.52912253E+01</totfact>
</mgrwt>
</event>
<event>
12    6  0.9533401E-008  0.2047773E+04  0.7818608E-02  0.8584605E-01
         -1   -1    0    0    0  501 -0.00000000000E+00  0.00000000000E+00  0.39466438838E+03  0.39466438838E+03  0.00000000000E+00 0.  1.
          2   -1    0    0  501    0  0.00000000000E+00 -0.00000000000E+00 -0.26562909764E+04  0.26562909764E+04  0.00000000000E+00 0. -1.
         24    2    1    2    0    0 -0.68905600369E+03  0.41911865129E+03 -0.71759510296E+03  0.10825563494E+04  0.80789218145E+02 0.  0.
        254    2    1    2    0    0  0.68905600369E+03 -0.41911865129E+03 -0.15440314851E+04  0.19683990154E+04  0.91657123936E+03 0.  0.
         23    2    4    4    0    0  0.67684886458E+03 -0.12965029706E+03 -0.15105324183E+04  0.16630454413E+04  0.95280470184E+02 0.  0.
         23    2    4    4    0    0  0.12207139108E+02 -0.28946835424E+03 -0.33499066761E+02  0.30535357411E+03  0.90430500354E+02 0.  0.
          2    1    3    3  502    0 -0.54176125763E+03  0.36573589592E+03 -0.56879351837E+03  0.86648374040E+03  0.00000000000E+00 0. -1.
         -1    1    3    3    0  502 -0.14729474605E+03  0.53382755369E+02 -0.14880158458E+03  0.21607260900E+03  0.00000000000E+00 0.  1.
         11    1    5    5    0    0  0.14641789380E+03  0.72241943803E+01 -0.27890060347E+03  0.31508083919E+03  0.00000000000E+00 0.  1.
        -11    1    5    5    0    0  0.53043097078E+03 -0.13687449144E+03 -0.12316318148E+04  0.13479646021E+04  0.00000000000E+00 0. -1.
          4    1    6    6  503    0  0.34218601364E+02 -0.18667972349E+03  0.13367643689E+02  0.19026015279E+03  0.00000000000E+00 0. -1.
         -4    1    6    6    0  503 -0.22011462256E+02 -0.10278863075E+03 -0.46866710450E+02  0.11509342132E+03  0.00000000000E+00 0.  1.
<mgrwt>
<rscale>  0 0.20477729E+04</rscale>
<asrwt>0</asrwt>
<pdfrwt beam="1">  1        2 0.40866016E+00 0.20477729E+04</pdfrwt>
<pdfrwt beam="2">  1       -1 0.60717597E-01 0.20477729E+04</pdfrwt>
<totfact> 0.81757290E+00</totfact>
</mgrwt>
</event>
<event>
12    6  0.9533401E-008  0.1812531E+04  0.7818608E-02  0.8699664E-01
          2   -1    0    0  501    0  0.00000000000E+00  0.00000000000E+00  0.36992445238E+04  0.36992445238E+04  0.00000000000E+00 0. -1.
         -1   -1    0    0    0  501 -0.00000000000E+00 -0.00000000000E+00 -0.22202282651E+03  0.22202282651E+03  0.00000000000E+00 0.  1.
         24    2    1    2    0    0  0.42975132419E+03 -0.19419287881E+03  0.25421163241E+03  0.54158666433E+03  0.79344099408E+02 0.  0.
        254    2    1    2    0    0 -0.42975132419E+03  0.19419287881E+03  0.32230100649E+04  0.33796806860E+04  0.90113849433E+03 0.  0.
         23    2    4    4    0    0 -0.22301514744E+03 -0.15273836318E+03  0.26879461532E+04  0.27031624760E+04  0.94699976516E+02 0.  0.
         23    2    4    4    0    0 -0.20673617675E+03  0.34693124199E+03  0.53506391164E+03  0.67651820993E+03  0.91007501823E+02 0.  0.
          2    1    3    3  502    0  0.75243646869E+02 -0.52492396382E+02  0.80871002088E+02  0.12229953823E+03  0.00000000000E+00 0. -1.
         -1    1    3    3    0  502  0.35450767732E+03 -0.14170048243E+03  0.17334063032E+03  0.41928712611E+03  0.00000000000E+00 0.  1.
         11    1    5    5    0    0 -0.62365398946E+02 -0.94848408776E+01  0.92031788785E+03  0.92247732758E+03  0.00000000000E+00 0. -1.
        -11    1    5    5    0    0 -0.16064974849E+03 -0.14325352230E+03  0.17676282654E+04  0.17806851485E+04  0.00000000000E+00 0.  1.
          1    1    6    6  503    0 -0.20857505837E+03  0.35152977682E+03  0.53105548687E+03  0.67014675191E+03  0.00000000000E+00 0.  1.
         -1    1    6    6    0  503  0.18388816168E+01 -0.45985348300E+01  0.40084247625E+01  0.63714580167E+01  0.00000000000E+00 0. -1.
<mgrwt>
<rscale>  0 0.18125305E+04</rscale>
<asrwt>0</asrwt>
<pdfrwt beam="1">  1        2 0.56911450E+00 0.18125305E+04</pdfrwt>
<pdfrwt beam="2">  1       -1 0.34157361E-01 0.18125305E+04</pdfrwt>
<totfact> 0.51394092E+00</totfact>
</mgrwt>
</event>
<event>
12    6  0.9533401E-008  0.1652886E+04  0.7818608E-02  0.8788701E-01
          2   -1    0    0  501    0  0.00000000000E+00  0.00000000000E+00  0.23140617189E+04  0.23140617189E+04  0.00000000000E+00 0. -1.
         -1   -1    0    0    0  501 -0.00000000000E+00 -0.00000000000E+00 -0.29515560865E+03  0.29515560865E+03  0.00000000000E+00 0.  1.
         24    2    1    2    0    0 -0.27652465097E+03 -0.84804810769E+02 -0.77620514570E+02  0.31025555479E+03  0.81091469795E+02 0.  0.
        254    2    1    2    0    0  0.27652465097E+03  0.84804810769E+02  0.20965266248E+04  0.22989617727E+04  0.89785500249E+03 0.  0.
         23    2    4    4    0    0 -0.27412197289E+03  0.18386495801E+02  0.12473531062E+04  0.12805971955E+04  0.92512088035E+02 0.  0.
         23    2    4    4    0    0  0.55064662386E+03  0.66418314968E+02  0.84917351860E+03  0.10183645772E+04  0.91365477462E+02 0.  0.
          4    1    3    3  502    0 -0.79801669607E+02  0.99665425427E+01 -0.35316179447E+02  0.87834338234E+02  0.00000000000E+00 0. -1.
         -3    1    3    3    0  502 -0.19672298136E+03 -0.94771353312E+02 -0.42304335123E+02  0.22242121656E+03  0.00000000000E+00 0.  1.
         11    1    5    5    0    0 -0.97550143710E+02  0.21506726413E+02  0.65186596758E+03  0.65947540478E+03  0.00000000000E+00 0.  1.
        -11    1    5    5    0    0 -0.17657182918E+03 -0.31202306125E+01  0.59548713863E+03  0.62112179077E+03  0.00000000000E+00 0. -1.
          4    1    6    6  503    0  0.36159831525E+03  0.86865961869E+02  0.55391391966E+03  0.66717289162E+03  0.00000000000E+00 0. -1.
         -4    1    6    6    0  503  0.18904830861E+03 -0.20447646901E+02  0.29525959894E+03  0.35119168558E+03  0.00000000000E+00 0.  1.
<mgrwt>
<rscale>  0 0.16528863E+04</rscale>
<asrwt>0</asrwt>
<pdfrwt beam="1">  1        2 0.35600948E+00 0.16528863E+04</pdfrwt>
<pdfrwt beam="2">  1       -1 0.45408557E-01 0.16528863E+04</pdfrwt>
<totfact> 0.23334586E+01</totfact>
</mgrwt>
</event>
<event>
12    6  0.9533401E-008  0.1904050E+04  0.7818608E-02  0.8652843E-01
         -1   -1    0    0    0  501 -0.00000000000E+00  0.00000000000E+00  0.85843338847E+03  0.85843338847E+03  0.00000000000E+00 0.  1.
          2   -1    0    0  501    0  0.00000000000E+00 -0.00000000000E+00 -0.10558205613E+04  0.10558205613E+04  0.00000000000E+00 0. -1.
         24    2    1    2    0    0 -0.34942131767E+03  0.56317157045E+03  0.24999205891E+03  0.71287637228E+03  0.80244735816E+02 0.  0.
        254    2    1    2    0    0  0.34942131767E+03 -0.56317157045E+03 -0.44737923174E+03  0.12013775775E+04  0.89660606271E+03 0.  0.
         23    2    4    4    0    0 -0.96212749784E+02 -0.41309523037E+03  0.12894679539E+03  0.45203212213E+03  0.88324406717E+02 0.  0.
         23    2    4    4    0    0  0.44563406746E+03 -0.15007634009E+03 -0.57632602713E+03  0.74934545536E+03  0.90853134182E+02 0.  0.
          2    1    3    3  502    0 -0.93274193696E+02  0.21412146269E+03  0.68222458505E+02  0.24331539170E+03  0.00000000000E+00 0. -1.
         -1    1    3    3    0  502 -0.25614712398E+03  0.34905010776E+03  0.18176960040E+03  0.46956098058E+03  0.00000000000E+00 0.  1.
         11    1    5    5    0    0 -0.10341441832E+02 -0.91394848755E+02  0.65906039485E+02  0.11315286050E+03  0.00000000000E+00 0.  1.
        -11    1    5    5    0    0 -0.85871307953E+02 -0.32170038161E+03  0.63040755905E+02  0.33887926163E+03  0.00000000000E+00 0. -1.
          4    1    6    6  503    0  0.41304573056E+03 -0.11051815169E+03 -0.50995474448E+03  0.66548845130E+03  0.00000000000E+00 0. -1.
         -4    1    6    6    0  503  0.32588336899E+02 -0.39558188393E+02 -0.66371282643E+02  0.83857004063E+02  0.00000000000E+00 0.  1.
<mgrwt>
<rscale>  0 0.19040500E+04</rscale>
<asrwt>0</asrwt>
<pdfrwt beam="1">  1        2 0.16243393E+00 0.19040500E+04</pdfrwt>
<pdfrwt beam="2">  1       -1 0.13206668E+00 0.19040500E+04</pdfrwt>
<totfact> 0.12079341E+01</totfact>
</mgrwt>
</event>
<event>
12    6  0.9533401E-008  0.3415206E+04  0.7818608E-02  0.8134184E-01
          2   -1    0    0  501    0  0.00000000000E+00  0.00000000000E+00  0.19497408861E+04  0.19497408861E+04  0.00000000000E+00 0. -1.
         -1   -1    0    0    0  501 -0.00000000000E+00 -0.00000000000E+00 -0.14955357620E+04  0.14955357620E+04  0.00000000000E+00 0.  1.
         24    2    1    2    0    0  0.24994576457E+03  0.81643457363E+03 -0.11441704934E+04  0.14299042344E+04  0.80384721524E+02 0.  0.
        254    2    1    2    0    0 -0.24994576457E+03 -0.81643457363E+03  0.15983756175E+04  0.20153724137E+04  0.88197678716E+03 0.  0.
         23    2    4    4    0    0 -0.17878711706E+03 -0.61763857883E+03  0.16555240362E+04  0.17782562101E+04  0.89403953099E+02 0.  0.
         23    2    4    4    0    0 -0.71158647512E+02 -0.19879599480E+03 -0.57148418725E+02  0.23711620364E+03  0.91513668942E+02 0.  0.
          2    1    3    3  502    0  0.13932008228E+03  0.32801689976E+03 -0.45308107683E+03  0.57644395568E+03  0.00000000000E+00 0. -1.
         -1    1    3    3    0  502  0.11062568229E+03  0.48841767387E+03 -0.69108941652E+03  0.85346027873E+03  0.00000000000E+00 0.  1.
         11    1    5    5    0    0 -0.64894458474E+02 -0.22988052661E+03  0.73736363935E+03  0.77508804912E+03  0.00000000000E+00 0.  1.
        -11    1    5    5    0    0 -0.11389265859E+03 -0.38775805222E+03  0.91816039689E+03  0.10031681610E+04  0.00000000000E+00 0. -1.
          1    1    6    6  503    0 -0.22971924048E+02 -0.16231819642E+03 -0.64635323545E+02  0.17621756789E+03  0.00000000000E+00 0. -1.
         -1    1    6    6    0  503 -0.48186723465E+02 -0.36477798384E+02  0.74869048203E+01  0.60898635757E+02  0.00000000000E+00 0.  1.
<mgrwt>
<rscale>  0 0.34152055E+04</rscale>
<asrwt>0</asrwt>
<pdfrwt beam="1">  1        2 0.29996014E+00 0.34152055E+04</pdfrwt>
<pdfrwt beam="2">  1       -1 0.23008243E+00 0.34152055E+04</pdfrwt>
<totfact> 0.63227955E-01</totfact>
</mgrwt>
</event>
<event>
12    6  0.9533401E-008  0.1312420E+04  0.7818608E-02  0.9019773E-01
          2   -1    0    0  501    0  0.00000000000E+00  0.00000000000E+00  0.12225852892E+04  0.12225852892E+04  0.00000000000E+00 0. -1.
         -1   -1    0    0    0  501 -0.00000000000E+00 -0.00000000000E+00 -0.35221417068E+03  0.35221417068E+03  0.00000000000E+00 0.  1.
         24    2    1    2    0    0 -0.34535386437E+02  0.27554314464E+03  0.46490871535E+03  0.54744305472E+03  0.80231334806E+02 0.  0.
        254    2    1    2    0    0  0.34535386437E+02 -0.27554314464E+03  0.40546240315E+03  0.10273564051E+04  0.90218884128E+03 0.  0.
         23    2    4    4    0    0  0.19074726074E+03 -0.12742691787E+03 -0.23782819863E+03  0.34300406365E+03  0.92018469536E+02 0.  0.
         23    2    4    4    0    0 -0.15621187430E+03 -0.14811622677E+03  0.64329060178E+03  0.68435234149E+03  0.90414394088E+02 0.  0.
          2    1    3    3  502    0 -0.10322067127E+02  0.78842009367E+02  0.21004235024E+03  0.22458939513E+03  0.00000000000E+00 0. -1.
         -1    1    3    3    0  502 -0.24213319310E+02  0.19670113527E+03  0.25486636511E+03  0.32285365959E+03  0.00000000000E+00 0.  1.
         11    1    5    5    0    0  0.18643763619E+02  0.88330628215E+01 -0.50038625050E+02  0.54124642425E+02  0.00000000000E+00 0.  1.
        -11    1    5    5    0    0  0.17210349712E+03 -0.13625998069E+03 -0.18778957358E+03  0.28887942122E+03  0.00000000000E+00 0. -1.
          1    1    6    6  503    0 -0.12552096282E+03 -0.76523014602E+02  0.50115945556E+03  0.52227586941E+03  0.00000000000E+00 0. -1.
         -1    1    6    6    0  503 -0.30690911479E+02 -0.71593212164E+02  0.14213114622E+03  0.16207647208E+03  0.00000000000E+00 0.  1.
<mgrwt>
<rscale>  0 0.13124205E+04</rscale>
<asrwt>0</asrwt>
<pdfrwt beam="1">  1        2 0.18809004E+00 0.13124205E+04</pdfrwt>
<pdfrwt beam="2">  1       -1 0.54186796E-01 0.13124205E+04</pdfrwt>
<totfact> 0.70495675E+01</totfact>
</mgrwt>
</event>
<event>
12    6  0.9533401E-008  0.1623661E+04  0.7818608E-02  0.8806143E-01
          2   -1    0    0  501    0  0.00000000000E+00  0.00000000000E+00  0.16285674846E+04  0.16285674846E+04  0.00000000000E+00 0. -1.
         -1   -1    0    0    0  501 -0.00000000000E+00 -0.00000000000E+00 -0.40469228584E+03  0.40469228584E+03  0.00000000000E+00 0.  1.
         24    2    1    2    0    0 -0.17172968908E+03 -0.41520250739E+03  0.83334418368E+03  0.95009900784E+03  0.79632832212E+02 0.  0.
        254    2    1    2    0    0  0.17172968908E+03  0.41520250739E+03  0.39053101510E+03  0.10831607626E+04  0.90489698622E+03 0.  0.
         23    2    4    4    0    0  0.15503846169E+03  0.69359144299E+03  0.26535306480E+03  0.76390062524E+03  0.89587397846E+02 0.  0.
         23    2    4    4    0    0  0.16691227393E+02 -0.27838893560E+03  0.12517795029E+03  0.31926013738E+03  0.92078876740E+02 0.  0.
          4    1    3    3  502    0 -0.70388923215E+02 -0.24802917857E+03  0.52710900221E+03  0.58678528795E+03  0.00000000000E+00 0. -1.
         -3    1    3    3    0  502 -0.10134076586E+03 -0.16717332882E+03  0.30623518147E+03  0.36331371989E+03  0.00000000000E+00 0.  1.
         11    1    5    5    0    0  0.12516741626E+03  0.58537029313E+03  0.25663005569E+03  0.65129428652E+03  0.00000000000E+00 0.  1.
        -11    1    5    5    0    0  0.29871045425E+02  0.10822114986E+03  0.87230091133E+01  0.11260633872E+03  0.00000000000E+00 0. -1.
          1    1    6    6  503    0 -0.87579416634E+01  0.13018237528E+01 -0.44868220715E+01  0.99261200660E+01  0.00000000000E+00 0. -1.
         -1    1    6    6    0  503  0.25449169057E+02 -0.27969075936E+03  0.12966477236E+03  0.30933401731E+03  0.00000000000E+00 0.  1.
<mgrwt>
<rscale>  0 0.16236609E+04</rscale>
<asrwt>0</asrwt>
<pdfrwt beam="1">  1        2 0.25054884E+00 0.16236609E+04</pdfrwt>
<pdfrwt beam="2">  1       -1 0.62260352E-01 0.16236609E+04</pdfrwt>
<totfact> 0.30670879E+01</totfact>
</mgrwt>
</event>
<event>
12    6  0.1265203E-007  0.2929970E+04  0.7818608E-02  0.8264016E-01
         -1   -1    0    0    0  501 -0.00000000000E+00  0.00000000000E+00  0.90432307014E+03  0.90432307014E+03  0.00000000000E+00 0.  1.
          2   -1    0    0  501    0  0.00000000000E+00 -0.00000000000E+00 -0.23732454822E+04  0.23732454822E+04  0.00000000000E+00 0. -1.
         24    2    1    2    0    0 -0.11421700906E+04  0.52053264413E+03 -0.35426136228E+03  0.13080426981E+04  0.99839059758E+02 0.  0.
        254    2    1    2    0    0  0.11421700906E+04 -0.52053264413E+03 -0.11146610498E+04  0.19695258542E+04  0.10300757667E+04 0.  0.
         23    2    4    4    0    0  0.10437001083E+04 -0.39669831664E+02 -0.45625377211E+03  0.11433211364E+04  0.90178182838E+02 0.  0.
         23    2    4    4    0    0  0.98469982252E+02 -0.48086281247E+03 -0.65840727765E+03  0.82620471786E+03  0.90491495338E+02 0.  0.
          2    1    3    3  502    0 -0.20981537478E+03  0.11081396714E+03 -0.29506620715E+02  0.23910848474E+03  0.00000000000E+00 0. -1.
         -1    1    3    3    0  502 -0.93235471578E+03  0.40971867699E+03 -0.32475474157E+03  0.10689342134E+04  0.00000000000E+00 0.  1.
         11    1    5    5    0    0  0.70630950432E+03 -0.25715300811E+02 -0.26213897450E+03  0.75382440564E+03  0.00000000000E+00 0. -1.
        -11    1    5    5    0    0  0.33739060399E+03 -0.13954530853E+02 -0.19411479761E+03  0.38949673073E+03  0.00000000000E+00 0.  1.
          2    1    6    6  503    0  0.61390305320E+02 -0.14289011197E+03 -0.25437514319E+03  0.29814940409E+03  0.00000000000E+00 0. -1.
         -2    1    6    6    0  503  0.37079676932E+02 -0.33797270049E+03 -0.40403213446E+03  0.52805531377E+03  0.00000000000E+00 0.  1.
<mgrwt>
<rscale>  0 0.29299697E+04</rscale>
<asrwt>0</asrwt>
<pdfrwt beam="1">  1        2 0.36511468E+00 0.29299697E+04</pdfrwt>
<pdfrwt beam="2">  1       -1 0.13912663E+00 0.29299697E+04</pdfrwt>
<totfact> 0.17171870E+00</totfact>
</mgrwt>
</event>
<event>
12    6  0.9533401E-008  0.1239019E+04  0.7818608E-02  0.9079373E-01
          2   -1    0    0  501    0  0.00000000000E+00  0.00000000000E+00  0.28370888600E+04  0.28370888600E+04  0.00000000000E+00 0. -1.
         -1   -1    0    0    0  501 -0.00000000000E+00 -0.00000000000E+00 -0.13527664833E+03  0.13527664833E+03  0.00000000000E+00 0.  1.
         24    2    1    2    0    0  0.64471808983E+02 -0.27332366620E+03  0.58805209369E+03  0.65650811321E+03  0.79593951737E+02 0.  0.
        254    2    1    2    0    0 -0.64471808983E+02  0.27332366620E+03  0.21137601180E+04  0.23158573951E+04  0.90352155342E+03 0.  0.
         23    2    4    4    0    0 -0.30911556320E+03  0.46403203638E+03  0.92392637831E+03  0.10827947252E+04  0.89029782112E+02 0.  0.
         23    2    4    4    0    0  0.24464375422E+03 -0.19070837017E+03  0.11898337397E+04  0.12330626700E+04  0.92298272159E+02 0.  0.
          4    1    3    3  502    0  0.37345596757E+02 -0.89751163372E+02  0.13025094569E+03  0.16252776309E+03  0.00000000000E+00 0. -1.
         -3    1    3    3    0  502  0.27126212226E+02 -0.18357250283E+03  0.45780114800E+03  0.49398035011E+03  0.00000000000E+00 0.  1.
         11    1    5    5    0    0 -0.13244188276E+03  0.27373476733E+03  0.46830596600E+03  0.55837447375E+03  0.00000000000E+00 0.  1.
        -11    1    5    5    0    0 -0.17667368045E+03  0.19029726905E+03  0.45562041232E+03  0.52442025141E+03  0.00000000000E+00 0. -1.
          2    1    6    6  503    0  0.11207927987E+03 -0.48289894627E+02  0.33995541932E+03  0.36119712904E+03  0.00000000000E+00 0. -1.
         -2    1    6    6    0  503  0.13256447434E+03 -0.14241847555E+03  0.84987832035E+03  0.87186554092E+03  0.00000000000E+00 0.  1.
<mgrwt>
<rscale>  0 0.12390188E+04</rscale>
<asrwt>0</asrwt>
<pdfrwt beam="1">  1        2 0.43647516E+00 0.12390188E+04</pdfrwt>
<pdfrwt beam="2">  1       -1 0.20811794E-01 0.12390188E+04</pdfrwt>
<totfact> 0.47580136E+01</totfact>
</mgrwt>
</event>
<event>
12    6  0.9533401E-008  0.1646160E+04  0.7818608E-02  0.8792681E-01
         -1   -1    0    0    0  501 -0.00000000000E+00  0.00000000000E+00  0.62124707970E+03  0.62124707970E+03  0.00000000000E+00 0.  1.
          2   -1    0    0  501    0  0.00000000000E+00 -0.00000000000E+00 -0.10904851791E+04  0.10904851791E+04  0.00000000000E+00 0. -1.
         24    2    1    2    0    0  0.61368179010E+03  0.10829918106E+03 -0.19986571519E+03  0.65919923713E+03  0.79140874377E+02 0.  0.
        254    2    1    2    0    0 -0.61368179010E+03 -0.10829918106E+03 -0.26937238418E+03  0.10525330216E+04  0.80431973007E+03 0.  0.
         23    2    4    4    0    0 -0.60982085342E+03  0.16371407348E+03 -0.38291630403E+03  0.74398896516E+03  0.90614089743E+02 0.  0.
         23    2    4    4    0    0 -0.38609366829E+01 -0.27201325454E+03  0.11354391985E+03  0.30854405649E+03  0.91110348380E+02 0.  0.
          4    1    3    3  502    0  0.23109360618E+03  0.20833044928E+02 -0.10900424033E+03  0.25635950341E+03  0.00000000000E+00 0. -1.
         -3    1    3    3    0  502  0.38258818392E+03  0.87466136134E+02 -0.90861474857E+02  0.40283973372E+03  0.00000000000E+00 0.  1.
         11    1    5    5    0    0 -0.34790328390E+03  0.79656483111E+02 -0.16572454796E+03  0.39350536978E+03  0.00000000000E+00 0. -1.
        -11    1    5    5    0    0 -0.26191756952E+03  0.84057590369E+02 -0.21719175607E+03  0.35048359538E+03  0.00000000000E+00 0.  1.
          1    1    6    6  503    0  0.61048988974E+01 -0.25451073898E+03  0.12681848913E+03  0.28442207234E+03  0.00000000000E+00 0.  1.
         -1    1    6    6    0  503 -0.99658355802E+01 -0.17502515558E+02 -0.13274569283E+02  0.24121984150E+02  0.00000000000E+00 0. -1.
<mgrwt>
<rscale>  0 0.16461601E+04</rscale>
<asrwt>0</asrwt>
<pdfrwt beam="1">  1        2 0.16776695E+00 0.16461601E+04</pdfrwt>
<pdfrwt beam="2">  1       -1 0.95576475E-01 0.16461601E+04</pdfrwt>
<totfact> 0.25427995E+01</totfact>
</mgrwt>
</event>
<event>
12    6  0.9533401E-008  0.1409161E+04  0.7818608E-02  0.8947214E-01
          2   -1    0    0  501    0  0.00000000000E+00  0.00000000000E+00  0.29562063842E+04  0.29562063842E+04  0.00000000000E+00 0. -1.
         -1   -1    0    0    0  501 -0.00000000000E+00 -0.00000000000E+00 -0.16792932097E+03  0.16792932097E+03  0.00000000000E+00 0.  1.
         24    2    1    2    0    0 -0.37747458211E+03  0.15427890949E+03  0.98746550871E+03  0.10713396711E+04  0.79946969618E+02 0.  0.
        254    2    1    2    0    0  0.37747458211E+03 -0.15427890949E+03  0.18008115546E+04  0.20527960341E+04  0.89708431074E+03 0.  0.
         23    2    4    4    0    0 -0.25890142688E+03  0.81803614267E+02  0.38103953746E+03  0.47647247395E+03  0.90072799338E+02 0.  0.
         23    2    4    4    0    0  0.63637600899E+03 -0.23608252375E+03  0.14197720171E+04  0.15763235602E+04  0.91290760273E+02 0.  0.
          4    1    3    3  502    0 -0.29417511841E+03  0.15145417679E+03  0.82125594899E+03  0.88540312949E+03  0.00000000000E+00 0. -1.
         -3    1    3    3    0  502 -0.83299463701E+02  0.28247326972E+01  0.16620955973E+03  0.18593654163E+03  0.00000000000E+00 0.  1.
         11    1    5    5    0    0 -0.87300414137E+02  0.73468959736E+02  0.14422133330E+03  0.18389900308E+03  0.00000000000E+00 0.  1.
        -11    1    5    5    0    0 -0.17160101275E+03  0.83346545314E+01  0.23681820416E+03  0.29257347088E+03  0.00000000000E+00 0. -1.
          1    1    6    6  503    0  0.44773041235E+03 -0.20189364210E+03  0.10735242686E+04  0.11805413674E+04  0.00000000000E+00 0. -1.
         -1    1    6    6    0  503  0.18864559664E+03 -0.34188881657E+02  0.34624774849E+03  0.39578219274E+03  0.00000000000E+00 0.  1.
<mgrwt>
<rscale>  0 0.14091611E+04</rscale>
<asrwt>0</asrwt>
<pdfrwt beam="1">  1        2 0.45480094E+00 0.14091611E+04</pdfrwt>
<pdfrwt beam="2">  1       -1 0.25835282E-01 0.14091611E+04</pdfrwt>
<totfact> 0.27418958E+01</totfact>
</mgrwt>
</event>
<event>
12    6  0.9533401E-008  0.2157158E+04  0.7818608E-02  0.8536474E-01
         -1   -1    0    0    0  501 -0.00000000000E+00  0.00000000000E+00  0.96156102688E+03  0.96156102688E+03  0.00000000000E+00 0.  1.
          2   -1    0    0  501    0  0.00000000000E+00 -0.00000000000E+00 -0.12098376967E+04  0.12098376967E+04  0.00000000000E+00 0. -1.
         24    2    1    2    0    0 -0.25120347535E+03 -0.68451601144E+03 -0.59832659481E+03  0.94657958913E+03  0.79704758612E+02 0.  0.
        254    2    1    2    0    0  0.25120347535E+03  0.68451601144E+03  0.35004992501E+03  0.12248191344E+04  0.91977258393E+03 0.  0.
         23    2    4    4    0    0  0.62016799120E+02 -0.21853022492E+03  0.53477353476E+02  0.25148083201E+03  0.93708265152E+02 0.  0.
         23    2    4    4    0    0  0.18918667623E+03  0.90304623637E+03  0.29657257153E+03  0.97333830243E+03  0.90266590223E+02 0.  0.
          2    1    3    3  502    0 -0.23400759915E+03 -0.64061200090E+03 -0.58229276676E+03  0.89677653759E+03  0.00000000000E+00 0. -1.
         -1    1    3    3    0  502 -0.17195876200E+02 -0.43904010548E+02 -0.16033828050E+02  0.49803051538E+02  0.00000000000E+00 0.  1.
         11    1    5    5    0    0  0.46412039890E+02 -0.10322618063E+03  0.71303369994E+02  0.13376805443E+03  0.00000000000E+00 0. -1.
        -11    1    5    5    0    0  0.15604759230E+02 -0.11530404430E+03 -0.17826016518E+02  0.11771277758E+03  0.00000000000E+00 0.  1.
          1    1    6    6  503    0  0.11214036887E+03  0.39954815292E+03  0.96245183136E+02  0.42600155411E+03  0.00000000000E+00 0. -1.
         -1    1    6    6    0  503  0.77046307360E+02  0.50349808345E+03  0.20032738840E+03  0.54733674831E+03  0.00000000000E+00 0.  1.
<mgrwt>
<rscale>  0 0.21571581E+04</rscale>
<asrwt>0</asrwt>
<pdfrwt beam="1">  1        2 0.18612888E+00 0.21571581E+04</pdfrwt>
<pdfrwt beam="2">  1       -1 0.14793247E+00 0.21571581E+04</pdfrwt>
<totfact> 0.70773232E+00</totfact>
</mgrwt>
</event>
<event>
12    6  0.1231999E-007  0.2596869E+04  0.7818608E-02  0.8369266E-01
         -1   -1    0    0    0  501 -0.00000000000E+00  0.00000000000E+00  0.90611044450E+03  0.90611044450E+03  0.00000000000E+00 0.  1.
          2   -1    0    0  501    0  0.00000000000E+00 -0.00000000000E+00 -0.18606247599E+04  0.18606247599E+04  0.00000000000E+00 0. -1.
         24    2    1    2    0    0 -0.54153226393E+03  0.51447539162E+03 -0.13438795387E+04  0.15396685720E+04  0.81393953368E+02 0.  0.
        254    2    1    2    0    0  0.54153226393E+03 -0.51447539162E+03  0.38936522330E+03  0.12270666324E+04  0.89226964634E+03 0.  0.
         23    2    4    4    0    0  0.51812197934E+03 -0.54589256758E+03 -0.66220720225E+02  0.76153376720E+03  0.95390848560E+02 0.  0.
         23    2    4    4    0    0  0.23410284592E+02  0.31417175961E+02  0.45558594352E+03  0.46553286520E+03  0.87333935416E+02 0.  0.
          4    1    3    3  502    0 -0.50276344711E+03  0.44448072921E+03 -0.11870253227E+04  0.13635847312E+04  0.00000000000E+00 0. -1.
         -3    1    3    3    0  502 -0.38768816819E+02  0.69994662404E+02 -0.15685421601E+03  0.17608384083E+03  0.00000000000E+00 0.  1.
         11    1    5    5    0    0  0.83428723928E+02 -0.12316185061E+03  0.16076480949E+02  0.14962502018E+03  0.00000000000E+00 0.  1.
        -11    1    5    5    0    0  0.43469325541E+03 -0.42273071696E+03 -0.82297201174E+02  0.61190874702E+03  0.00000000000E+00 0. -1.
          2    1    6    6  503    0  0.23364556015E+01  0.42149585114E+02  0.92498503503E+02  0.10167605274E+03  0.00000000000E+00 0.  1.
         -2    1    6    6    0  503  0.21073828990E+02 -0.10732409154E+02  0.36308744002E+03  0.36385681246E+03  0.00000000000E+00 0. -1.
<mgrwt>
<rscale>  0 0.25968685E+04</rscale>
<asrwt>0</asrwt>
<pdfrwt beam="1">  1        2 0.28624996E+00 0.25968685E+04</pdfrwt>
<pdfrwt beam="2">  1       -1 0.13940161E+00 0.25968685E+04</pdfrwt>
<totfact> 0.34084427E+00</totfact>
</mgrwt>
</event>
<event>
12    6  0.9533401E-008  0.1811197E+04  0.7818608E-02  0.8700367E-01
          2   -1    0    0  501    0  0.00000000000E+00  0.00000000000E+00  0.13816683783E+04  0.13816683783E+04  0.00000000000E+00 0. -1.
         -1   -1    0    0    0  501 -0.00000000000E+00 -0.00000000000E+00 -0.59356434615E+03  0.59356434615E+03  0.00000000000E+00 0.  1.
         24    2    1    2    0    0  0.47323479235E+03 -0.46736962074E+03  0.16210413269E+03  0.68917846590E+03  0.79395698486E+02 0.  0.
        254    2    1    2    0    0 -0.47323479235E+03  0.46736962074E+03  0.62599989950E+03  0.12860542586E+04  0.90535857581E+03 0.  0.
         23    2    4    4    0    0 -0.46350040334E+03  0.13942269833E+03 -0.83047610950E+02  0.49953060799E+03  0.91447306855E+02 0.  0.
         23    2    4    4    0    0 -0.97343890159E+01  0.32794692241E+03  0.70904751045E+03  0.78652365061E+03  0.90703575675E+02 0.  0.
          2    1    3    3  502    0  0.82125859540E+02 -0.81209404476E+02 -0.22122521952E+01  0.11551847575E+03  0.00000000000E+00 0. -1.
         -1    1    3    3    0  502  0.39110893281E+03 -0.38616021627E+03  0.16431638489E+03  0.57365999015E+03  0.00000000000E+00 0.  1.
         11    1    5    5    0    0 -0.40171622624E+03  0.12920213125E+03 -0.10193670535E+03  0.43412003990E+03  0.00000000000E+00 0.  1.
        -11    1    5    5    0    0 -0.61784177102E+02  0.10220567077E+02  0.18889094396E+02  0.65410568096E+02  0.00000000000E+00 0. -1.
          1    1    6    6  503    0  0.57148726884E+01 -0.46258077089E+01  0.18526987072E+02  0.19932564229E+02  0.00000000000E+00 0. -1.
         -1    1    6    6    0  503 -0.15449261704E+02  0.33257273012E+03  0.69052052338E+03  0.76659108638E+03  0.00000000000E+00 0.  1.
<mgrwt>
<rscale>  0 0.18111975E+04</rscale>
<asrwt>0</asrwt>
<pdfrwt beam="1">  1        2 0.21256436E+00 0.18111975E+04</pdfrwt>
<pdfrwt beam="2">  1       -1 0.91317592E-01 0.18111975E+04</pdfrwt>
<totfact> 0.18642913E+01</totfact>
</mgrwt>
</event>
<event>
12    6  0.9533401E-008  0.1404697E+04  0.7818608E-02  0.8950426E-01
          2   -1    0    0  501    0  0.00000000000E+00  0.00000000000E+00  0.90251477768E+03  0.90251477768E+03  0.00000000000E+00 0. -1.
         -1   -1    0    0    0  501 -0.00000000000E+00 -0.00000000000E+00 -0.54657650509E+03  0.54657650509E+03  0.00000000000E+00 0.  1.
         24    2    1    2    0    0 -0.23627723784E+03 -0.18990796495E+03  0.38748097784E+03  0.49857229491E+03  0.80875563617E+02 0.  0.
        254    2    1    2    0    0  0.23627723784E+03  0.18990796495E+03 -0.31542705241E+02  0.95051898786E+03  0.90033295828E+03 0.  0.
         23    2    4    4    0    0 -0.18960363564E+03 -0.34371343314E+02  0.29279385944E+03  0.36297788700E+03  0.94306810142E+02 0.  0.
         23    2    4    4    0    0  0.42588087348E+03  0.22427930826E+03 -0.32433656468E+03  0.58754110086E+03  0.91294093444E+02 0.  0.
          2    1    3    3  502    0 -0.13583282375E+03 -0.14020965985E+03  0.19551386319E+03  0.27628784885E+03  0.00000000000E+00 0. -1.
         -1    1    3    3    0  502 -0.10044441409E+03 -0.49698305095E+02  0.19196711465E+03  0.22228444605E+03  0.00000000000E+00 0.  1.
         11    1    5    5    0    0 -0.11851633729E+03 -0.37806605633E+02  0.10724022439E+03  0.16424350021E+03  0.00000000000E+00 0. -1.
        -11    1    5    5    0    0 -0.71087298348E+02  0.34352623185E+01  0.18555363505E+03  0.19873438679E+03  0.00000000000E+00 0.  1.
          1    1    6    6  503    0  0.59933648688E+02  0.23719606422E+02 -0.10295812318E+02  0.65273775172E+02  0.00000000000E+00 0. -1.
         -1    1    6    6    0  503  0.36594722480E+03  0.20055970184E+03 -0.31404075236E+03  0.52226732569E+03  0.00000000000E+00 0.  1.
<mgrwt>
<rscale>  0 0.14046969E+04</rscale>
<asrwt>0</asrwt>
<pdfrwt beam="1">  1        2 0.13884843E+00 0.14046969E+04</pdfrwt>
<pdfrwt beam="2">  1       -1 0.84088693E-01 0.14046969E+04</pdfrwt>
<totfact> 0.45467767E+01</totfact>
</mgrwt>
</event>
<event>
12    6  0.9533401E-008  0.2620852E+04  0.7818608E-02  0.8361153E-01
         -1   -1    0    0    0  501 -0.00000000000E+00  0.00000000000E+00  0.87079980644E+03  0.87079980644E+03  0.00000000000E+00 0.  1.
          2   -1    0    0  501    0  0.00000000000E+00 -0.00000000000E+00 -0.19719983895E+04  0.19719983895E+04  0.00000000000E+00 0. -1.
         24    2    1    2    0    0 -0.71258094536E+03 -0.38456565740E+03  0.40542224550E+03  0.90893019388E+03  0.78259514884E+02 0.  0.
        254    2    1    2    0    0  0.71258094536E+03  0.38456565740E+03 -0.15066208285E+04  0.19338680020E+04  0.90237286071E+03 0.  0.
         23    2    4    4    0    0  0.42117683777E+03  0.66661587554E+03 -0.10563710715E+04  0.13213531447E+04  0.91036466136E+02 0.  0.
         23    2    4    4    0    0  0.29140410759E+03 -0.28205021815E+03 -0.45024975706E+03  0.61251485732E+03  0.89336035451E+02 0.  0.
          4    1    3    3  502    0 -0.11957050964E+03 -0.38718891139E+02  0.44394316125E+02  0.13329334046E+03  0.00000000000E+00 0. -1.
         -3    1    3    3    0  502 -0.59301043573E+03 -0.34584676626E+03  0.36102792937E+03  0.77563685343E+03  0.00000000000E+00 0.  1.
         11    1    5    5    0    0  0.19138306142E+03  0.25159126938E+03 -0.36472582391E+03  0.48264953087E+03  0.00000000000E+00 0.  1.
        -11    1    5    5    0    0  0.22979377635E+03  0.41502460616E+03 -0.69164524755E+03  0.83870361382E+03  0.00000000000E+00 0. -1.
          4    1    6    6  503    0  0.16384831316E+03 -0.21686014807E+03 -0.28523656624E+03  0.39399808663E+03  0.00000000000E+00 0. -1.
         -4    1    6    6    0  503  0.12755579443E+03 -0.65190070074E+02 -0.16501319082E+03  0.21851677069E+03  0.00000000000E+00 0.  1.
<mgrwt>
<rscale>  0 0.26208516E+04</rscale>
<asrwt>0</asrwt>
<pdfrwt beam="1">  1        2 0.30338436E+00 0.26208516E+04</pdfrwt>
<pdfrwt beam="2">  1       -1 0.13396920E+00 0.26208516E+04</pdfrwt>
<totfact> 0.32686777E+00</totfact>
</mgrwt>
</event>
<event>
12    6  0.9533401E-008  0.3617126E+04  0.7818608E-02  0.8086580E-01
         -1   -1    0    0    0  501 -0.00000000000E+00  0.00000000000E+00  0.12186517291E+04  0.12186517291E+04  0.00000000000E+00 0.  1.
          2   -1    0    0  501    0  0.00000000000E+00 -0.00000000000E+00 -0.26840323907E+04  0.26840323907E+04  0.00000000000E+00 0. -1.
         24    2    1    2    0    0  0.64477229057E+03  0.43427521470E+03  0.93576409564E+03  0.12190293235E+04  0.77793188055E+02 0.  0.
        254    2    1    2    0    0 -0.64477229057E+03 -0.43427521470E+03 -0.24011447573E+04  0.26836547963E+04  0.91223936089E+03 0.  0.
         23    2    4    4    0    0 -0.51381207340E+03 -0.25016324372E+03 -0.23673252265E+04  0.24370293987E+04  0.91099213252E+02 0.  0.
         23    2    4    4    0    0 -0.13096021717E+03 -0.18411197097E+03 -0.33819530785E+02  0.24662539765E+03  0.92911408160E+02 0.  0.
          2    1    3    3  502    0  0.34676648087E+03  0.27451418189E+03  0.55861056891E+03  0.71249617263E+03  0.00000000000E+00 0. -1.
         -1    1    3    3    0  502  0.29800580970E+03  0.15976103281E+03  0.37715352673E+03  0.50653315088E+03  0.00000000000E+00 0.  1.
         11    1    5    5    0    0 -0.24929661326E+03 -0.83147943841E+02 -0.12066258637E+04  0.12349122872E+04  0.00000000000E+00 0.  1.
        -11    1    5    5    0    0 -0.26451546014E+03 -0.16701529988E+03 -0.11606993628E+04  0.12021171115E+04  0.00000000000E+00 0. -1.
          3    1    6    6  503    0 -0.10929347052E+03 -0.10369934736E+03  0.12766580361E+02  0.15120053874E+03  0.00000000000E+00 0. -1.
         -3    1    6    6    0  503 -0.21666746657E+02 -0.80412623611E+02 -0.46586111146E+02  0.95424858912E+02  0.00000000000E+00 0.  1.
<mgrwt>
<rscale>  0 0.36171263E+04</rscale>
<asrwt>0</asrwt>
<pdfrwt beam="1">  1        2 0.41292806E+00 0.36171263E+04</pdfrwt>
<pdfrwt beam="2">  1       -1 0.18748488E+00 0.36171263E+04</pdfrwt>
<totfact> 0.46182641E-01</totfact>
</mgrwt>
</event>
<event>
12    6  0.9533401E-008  0.1910228E+04  0.7818608E-02  0.8649782E-01
         -1   -1    0    0    0  501 -0.00000000000E+00  0.00000000000E+00  0.10231412636E+04  0.10231412636E+04  0.00000000000E+00 0.  1.
          2   -1    0    0  501    0  0.00000000000E+00 -0.00000000000E+00 -0.89160998526E+03  0.89160998526E+03  0.00000000000E+00 0. -1.
         24    2    1    2    0    0 -0.72990127564E+03  0.31635942065E+02 -0.16845965102E+03  0.75402443765E+03  0.80109259985E+02 0.  0.
        254    2    1    2    0    0  0.72990127564E+03 -0.31635942065E+02  0.29999092937E+03  0.11607268112E+04  0.85060888050E+03 0.  0.
         23    2    4    4    0    0  0.81638972458E+02  0.33628782243E+03  0.16404397096E+02  0.35818843799E+03  0.90969398849E+02 0.  0.
         23    2    4    4    0    0  0.64826230318E+03 -0.36792376450E+03  0.28358653227E+03  0.80253837323E+03  0.89635980608E+02 0.  0.
          4    1    3    3  502    0 -0.54709566251E+02  0.16617940755E+02 -0.30183025683E+02  0.64655298574E+02  0.00000000000E+00 0. -1.
         -3    1    3    3    0  502 -0.67519170939E+03  0.15018001310E+02 -0.13827662533E+03  0.68936913907E+03  0.00000000000E+00 0.  1.
         11    1    5    5    0    0  0.27345893639E+02  0.70107728839E+02  0.40504838550E+02  0.85460713125E+02  0.00000000000E+00 0.  1.
        -11    1    5    5    0    0  0.54293078819E+02  0.26618009359E+03 -0.24100441453E+02  0.27272772487E+03  0.00000000000E+00 0. -1.
          1    1    6    6  503    0  0.42797091412E+03 -0.24913905132E+03  0.23264013729E+03  0.54712960411E+03  0.00000000000E+00 0. -1.
         -1    1    6    6    0  503  0.22029138906E+03 -0.11878471318E+03  0.50946394984E+02  0.25540876912E+03  0.00000000000E+00 0.  1.
<mgrwt>
<rscale>  0 0.19102282E+04</rscale>
<asrwt>0</asrwt>
<pdfrwt beam="1">  1        2 0.13717077E+00 0.19102282E+04</pdfrwt>
<pdfrwt beam="2">  1       -1 0.15740635E+00 0.19102282E+04</pdfrwt>
<totfact> 0.97027847E+00</totfact>
</mgrwt>
</event>
<event>
12    6  0.9533401E-008  0.1627379E+04  0.7818608E-02  0.8803903E-01
          2   -1    0    0  501    0  0.00000000000E+00  0.00000000000E+00  0.76959368324E+03  0.76959368324E+03  0.00000000000E+00 0. -1.
         -1   -1    0    0    0  501 -0.00000000000E+00 -0.00000000000E+00 -0.86031149111E+03  0.86031149111E+03  0.00000000000E+00 0.  1.
         24    2    1    2    0    0 -0.46595662149E+03  0.67279657287E+02 -0.33656614118E+03  0.58454499746E+03  0.82304078112E+02 0.  0.
        254    2    1    2    0    0  0.46595662149E+03 -0.67279657287E+02  0.24584833331E+03  0.10453601769E+04  0.90038567905E+03 0.  0.
         23    2    4    4    0    0  0.27863729332E+03  0.28817506300E+03 -0.18364082742E+03  0.45032371805E+03  0.91563581044E+02 0.  0.
         23    2    4    4    0    0  0.18731932816E+03 -0.35545472029E+03  0.42948916073E+03  0.59503645884E+03  0.90392805472E+02 0.  0.
          4    1    3    3  502    0 -0.26607427266E+03  0.22972768576E+02 -0.23621361904E+03  0.35653911495E+03  0.00000000000E+00 0. -1.
         -3    1    3    3    0  502 -0.19988234883E+03  0.44306888711E+02 -0.10035252214E+03  0.22800588251E+03  0.00000000000E+00 0.  1.
         11    1    5    5    0    0  0.27695646904E+03  0.28708019520E+03 -0.19130617343E+03  0.44240024436E+03  0.00000000000E+00 0. -1.
        -11    1    5    5    0    0  0.16808242816E+01  0.10948678039E+01  0.76653460106E+01  0.79234736850E+01  0.00000000000E+00 0.  1.
          4    1    6    6  503    0  0.16251516730E+03 -0.34907400430E+03  0.39068606801E+03  0.54854301912E+03  0.00000000000E+00 0. -1.
         -4    1    6    6    0  503  0.24804160862E+02 -0.63807159873E+01  0.38803092718E+02  0.46493439721E+02  0.00000000000E+00 0.  1.
<mgrwt>
<rscale>  0 0.16273786E+04</rscale>
<asrwt>0</asrwt>
<pdfrwt beam="1">  1        2 0.11839903E+00 0.16273786E+04</pdfrwt>
<pdfrwt beam="2">  1       -1 0.13235561E+00 0.16273786E+04</pdfrwt>
<totfact> 0.19198723E+01</totfact>
</mgrwt>
</event>
<event>
12    6  0.9533401E-008  0.2347884E+04  0.7818608E-02  0.8459277E-01
          2   -1    0    0  501    0  0.00000000000E+00  0.00000000000E+00  0.19557370910E+04  0.19557370910E+04  0.00000000000E+00 0. -1.
         -1   -1    0    0    0  501 -0.00000000000E+00 -0.00000000000E+00 -0.70466533971E+03  0.70466533971E+03  0.00000000000E+00 0.  1.
         24    2    1    2    0    0  0.28726305700E+01 -0.13240835214E+03 -0.58600503865E+03  0.60609216016E+03  0.80034852178E+02 0.  0.
        254    2    1    2    0    0 -0.28726305700E+01  0.13240835214E+03  0.18370767900E+04  0.20543102706E+04  0.90983478272E+03 0.  0.
         23    2    4    4    0    0 -0.31659545648E+03  0.24764049718E+03  0.15483454146E+04  0.16021980718E+04  0.90036879016E+02 0.  0.
         23    2    4    4    0    0  0.31372282591E+03 -0.11523214504E+03  0.28873137537E+03  0.45211219874E+03  0.96639403859E+02 0.  0.
          2    1    3    3  502    0  0.86813253143E+01 -0.15084676764E+02 -0.14539082240E+02  0.22678134727E+02  0.00000000000E+00 0. -1.
         -1    1    3    3    0  502 -0.58086947443E+01 -0.11732367537E+03 -0.57146595641E+03  0.58341402544E+03  0.00000000000E+00 0.  1.
         11    1    5    5    0    0 -0.15688842366E+03  0.77444137905E+02  0.76915016245E+03  0.78879879841E+03  0.00000000000E+00 0. -1.
        -11    1    5    5    0    0 -0.15970703282E+03  0.17019635928E+03  0.77919525215E+03  0.81339927343E+03  0.00000000000E+00 0.  1.
          2    1    6    6  503    0  0.18015255535E+03 -0.98626027918E+02  0.12609379085E+03  0.24100141218E+03  0.00000000000E+00 0. -1.
         -2    1    6    6    0  503  0.13357027056E+03 -0.16606117127E+02  0.16263758452E+03  0.21111078656E+03  0.00000000000E+00 0.  1.
<mgrwt>
<rscale>  0 0.23478843E+04</rscale>
<asrwt>0</asrwt>
<pdfrwt beam="1">  1        2 0.30088263E+00 0.23478843E+04</pdfrwt>
<pdfrwt beam="2">  1       -1 0.10841005E+00 0.23478843E+04</pdfrwt>
<totfact> 0.57402151E+00</totfact>
</mgrwt>
</event>
<event>
12    6  0.9533401E-008  0.1480561E+04  0.7818608E-02  0.8897483E-01
          2   -1    0    0  501    0  0.00000000000E+00  0.00000000000E+00  0.28624402475E+03  0.28624402475E+03  0.00000000000E+00 0. -1.
         -1   -1    0    0    0  501 -0.00000000000E+00 -0.00000000000E+00 -0.19145049010E+04  0.19145049010E+04  0.00000000000E+00 0.  1.
         24    2    1    2    0    0 -0.33755760705E+03 -0.19005298908E+03 -0.91490637001E+03  0.99647807513E+03  0.76482753554E+02 0.  0.
        254    2    1    2    0    0  0.33755760705E+03  0.19005298908E+03 -0.71335450621E+03  0.12042708506E+04  0.88956638501E+03 0.  0.
         23    2    4    4    0    0  0.18433044850E+03  0.52126254065E+03 -0.57772787030E+03  0.80434301418E+03  0.86636261516E+02 0.  0.
         23    2    4    4    0    0  0.15322715855E+03 -0.33120955156E+03 -0.13562663591E+03  0.39992783642E+03  0.91484210720E+02 0.  0.
          4    1    3    3  502    0 -0.22578676597E+02 -0.96137864323E+01 -0.12178617412E+03  0.12423402808E+03  0.00000000000E+00 0. -1.
         -3    1    3    3    0  502 -0.31497893045E+03 -0.18043920265E+03 -0.79312019590E+03  0.87224404705E+03  0.00000000000E+00 0.  1.
         11    1    5    5    0    0  0.17910859181E+03  0.50770963720E+03 -0.57789570799E+03  0.78981796174E+03  0.00000000000E+00 0. -1.
        -11    1    5    5    0    0  0.52218566873E+01  0.13552903440E+02  0.16783768582E+00  0.14525052441E+02  0.00000000000E+00 0.  1.
          3    1    6    6  503    0  0.15084398603E+03 -0.29591668492E+03 -0.14635918777E+03  0.36296226303E+03  0.00000000000E+00 0. -1.
         -3    1    6    6    0  503  0.23831725207E+01 -0.35292866640E+02  0.10732551857E+02  0.36965573393E+02  0.00000000000E+00 0.  1.
<mgrwt>
<rscale>  0 0.14805615E+04</rscale>
<asrwt>0</asrwt>
<pdfrwt beam="1">  1        2 0.44037542E-01 0.14805615E+04</pdfrwt>
<pdfrwt beam="2">  1       -1 0.29453922E+00 0.14805615E+04</pdfrwt>
<totfact> 0.46051282E+00</totfact>
</mgrwt>
</event>
<event>
12    6  0.9533401E-008  0.1820214E+04  0.7818608E-02  0.8695623E-01
         -1   -1    0    0    0  501 -0.00000000000E+00  0.00000000000E+00  0.10221601531E+04  0.10221601531E+04  0.00000000000E+00 0.  1.
          2   -1    0    0  501    0  0.00000000000E+00 -0.00000000000E+00 -0.81033731014E+03  0.81033731014E+03  0.00000000000E+00 0. -1.
         24    2    1    2    0    0 -0.15796620495E+03  0.57338942613E+03 -0.25860229830E+03  0.65250028156E+03  0.71782399293E+02 0.  0.
        254    2    1    2    0    0  0.15796620495E+03 -0.57338942613E+03  0.47042514128E+03  0.11799971817E+04  0.90408228573E+03 0.  0.
         23    2    4    4    0    0 -0.35640031563E+03 -0.17090547667E+03  0.28459840624E+03  0.49483661467E+03  0.87390820159E+02 0.  0.
         23    2    4    4    0    0  0.51436652058E+03 -0.40248394946E+03  0.18582673504E+03  0.68516056703E+03  0.91362903273E+02 0.  0.
          2    1    3    3  502    0 -0.13169716573E+03  0.41743784610E+03 -0.21910020797E+03  0.48949300296E+03  0.00000000000E+00 0. -1.
         -1    1    3    3    0  502 -0.26269039218E+02  0.15595158003E+03 -0.39502090328E+02  0.16300727860E+03  0.00000000000E+00 0.  1.
         11    1    5    5    0    0 -0.17029034112E+03 -0.83128655242E+02  0.19005917274E+03  0.26838715086E+03  0.00000000000E+00 0. -1.
        -11    1    5    5    0    0 -0.18610997451E+03 -0.87776821425E+02  0.94539233500E+02  0.22644946381E+03  0.00000000000E+00 0.  1.
          4    1    6    6  503    0  0.31706539782E+03 -0.29032914088E+03  0.92364414426E+02  0.43971884380E+03  0.00000000000E+00 0. -1.
         -4    1    6    6    0  503  0.19730112275E+03 -0.11215480858E+03  0.93462320615E+02  0.24544172323E+03  0.00000000000E+00 0.  1.
<mgrwt>
<rscale>  0 0.18202137E+04</rscale>
<asrwt>0</asrwt>
<pdfrwt beam="1">  1        2 0.12466728E+00 0.18202137E+04</pdfrwt>
<pdfrwt beam="2">  1       -1 0.15725541E+00 0.18202137E+04</pdfrwt>
<totfact> 0.11171227E+01</totfact>
</mgrwt>
</event>
<event>
12    6  0.9533401E-008  0.1447771E+04  0.7818608E-02  0.8919947E-01
          2   -1    0    0  501    0  0.00000000000E+00  0.00000000000E+00  0.97862884171E+03  0.97862884171E+03  0.00000000000E+00 0. -1.
         -1   -1    0    0    0  501 -0.00000000000E+00 -0.00000000000E+00 -0.53545323164E+03  0.53545323164E+03  0.00000000000E+00 0.  1.
         24    2    1    2    0    0 -0.41953866824E+03  0.13007056908E+03  0.13483660511E+03  0.46630641412E+03  0.79559504027E+02 0.  0.
        254    2    1    2    0    0  0.41953866824E+03 -0.13007056908E+03  0.30833900495E+03  0.10477756592E+04  0.89990546338E+03 0.  0.
         23    2    4    4    0    0  0.39719176156E+03  0.22956675140E+03 -0.11598270443E+03  0.48179217775E+03  0.90606434721E+02 0.  0.
         23    2    4    4    0    0  0.22346906677E+02 -0.35963732048E+03  0.42432170939E+03  0.56598348149E+03  0.10222524999E+03 0.  0.
          2    1    3    3  502    0 -0.23766680165E+03  0.49926052564E+02  0.10788795091E+03  0.26574034185E+03  0.00000000000E+00 0. -1.
         -1    1    3    3    0  502 -0.18187186659E+03  0.80144516516E+02  0.26948654198E+02  0.20056607227E+03  0.00000000000E+00 0.  1.
         11    1    5    5    0    0  0.17072072737E+02 -0.60093948814E+01 -0.14578817688E+02  0.23240275806E+02  0.00000000000E+00 0.  1.
        -11    1    5    5    0    0  0.38011968882E+03  0.23557614629E+03 -0.10140388675E+03  0.45855190194E+03  0.00000000000E+00 0. -1.
          4    1    6    6  503    0  0.23562142360E+02 -0.31563597569E+03  0.30811587707E+03  0.44172008943E+03  0.00000000000E+00 0. -1.
         -4    1    6    6    0  503 -0.12152356824E+01 -0.44001344792E+02  0.11620583231E+03  0.12426339205E+03  0.00000000000E+00 0.  1.
<mgrwt>
<rscale>  0 0.14477707E+04</rscale>
<asrwt>0</asrwt>
<pdfrwt beam="1">  1        2 0.15055828E+00 0.14477707E+04</pdfrwt>
<pdfrwt beam="2">  1       -1 0.82377420E-01 0.14477707E+04</pdfrwt>
<totfact> 0.42171139E+01</totfact>
</mgrwt>
</event>
<event>
12    6  0.9533401E-008  0.2371264E+04  0.7818608E-02  0.8450341E-01
         -3   -1    0    0    0  501 -0.00000000000E+00  0.00000000000E+00  0.53413510271E+03  0.53413510271E+03  0.00000000000E+00 0.  1.
          4   -1    0    0  501    0  0.00000000000E+00 -0.00000000000E+00 -0.26317752717E+04  0.26317752717E+04  0.00000000000E+00 0. -1.
         24    2    1    2    0    0  0.20305607062E+03 -0.34856812267E+03 -0.21392882623E+04  0.21784553538E+04  0.79887140621E+02 0.  0.
        254    2    1    2    0    0 -0.20305607062E+03  0.34856812267E+03  0.41648093259E+02  0.98745502068E+03  0.90033402148E+03 0.  0.
         23    2    4    4    0    0  0.92311563239E+02 -0.26160701833E+03  0.78729764192E+02  0.30244444127E+03  0.91184469825E+02 0.  0.
         23    2    4    4    0    0 -0.29536763386E+03  0.61017514100E+03 -0.37081670933E+02  0.68501057942E+03  0.91152080460E+02 0.  0.
          4    1    3    3  502    0  0.19580227184E+03 -0.28752976108E+03 -0.17361252274E+04  0.17706334172E+04  0.00000000000E+00 0. -1.
         -3    1    3    3    0  502  0.72537987851E+01 -0.61038361592E+02 -0.40316303494E+03  0.40782193654E+03  0.00000000000E+00 0.  1.
         11    1    5    5    0    0 -0.54738463252E+01 -0.96458280330E+02  0.46776079856E+01  0.96726639838E+02  0.00000000000E+00 0. -1.
        -11    1    5    5    0    0  0.97785409564E+02 -0.16514873800E+03  0.74052156206E+02  0.20571780143E+03  0.00000000000E+00 0.  1.
          1    1    6    6  503    0 -0.12038424742E+03  0.35227809048E+03 -0.15323181135E+02  0.37259498109E+03  0.00000000000E+00 0. -1.
         -1    1    6    6    0  503 -0.17498338644E+03  0.25789705052E+03 -0.21758489798E+02  0.31241559832E+03  0.00000000000E+00 0.  1.
<mgrwt>
<rscale>  0 0.23712643E+04</rscale>
<asrwt>0</asrwt>
<pdfrwt beam="1">  1        4 0.40488850E+00 0.23712643E+04</pdfrwt>
<pdfrwt beam="2">  1       -3 0.82174631E-01 0.23712643E+04</pdfrwt>
<totfact> 0.17707033E-02</totfact>
</mgrwt>
</event>
<event>
12    6  0.9533401E-008  0.1573961E+04  0.7818608E-02  0.8836707E-01
          2   -1    0    0  501    0  0.00000000000E+00  0.00000000000E+00  0.11485229569E+04  0.11485229569E+04  0.00000000000E+00 0. -1.
         -1   -1    0    0    0  501 -0.00000000000E+00 -0.00000000000E+00 -0.53924733243E+03  0.53924733243E+03  0.00000000000E+00 0.  1.
         24    2    1    2    0    0 -0.34212571739E+03 -0.38458091202E+03  0.99301315281E+02  0.53215768013E+03  0.91534479385E+02 0.  0.
        254    2    1    2    0    0  0.34212571739E+03  0.38458091202E+03  0.50997430922E+03  0.11556126092E+04  0.90023009400E+03 0.  0.
         23    2    4    4    0    0 -0.52338349114E+02 -0.30034852181E+02 -0.20681402293E+03  0.23391382282E+03  0.91116635639E+02 0.  0.
         23    2    4    4    0    0  0.39446406651E+03  0.41461576420E+03  0.71678833215E+03  0.92169878641E+03  0.90746945185E+02 0.  0.
          2    1    3    3  502    0 -0.88691410802E+02 -0.11707531340E+03 -0.11606533321E+02  0.14733467675E+03  0.00000000000E+00 0. -1.
         -1    1    3    3    0  502 -0.25343430659E+03 -0.26750559863E+03  0.11090784860E+03  0.38482300338E+03  0.00000000000E+00 0.  1.
         11    1    5    5    0    0  0.21597526290E+01 -0.50233529076E+02 -0.11087392010E+03  0.12174193252E+03  0.00000000000E+00 0. -1.
        -11    1    5    5    0    0 -0.54498101743E+02  0.20198676896E+02 -0.95940102834E+02  0.11217189030E+03  0.00000000000E+00 0.  1.
          1    1    6    6  503    0  0.16156137992E+03  0.23374792967E+03  0.33462159888E+03  0.43898950847E+03  0.00000000000E+00 0. -1.
         -1    1    6    6    0  503  0.23290268658E+03  0.18086783453E+03  0.38216673328E+03  0.48270927794E+03  0.00000000000E+00 0.  1.
<mgrwt>
<rscale>  0 0.15739605E+04</rscale>
<asrwt>0</asrwt>
<pdfrwt beam="1">  1        2 0.17669584E+00 0.15739605E+04</pdfrwt>
<pdfrwt beam="2">  1       -1 0.82961128E-01 0.15739605E+04</pdfrwt>
<totfact> 0.32171695E+01</totfact>
</mgrwt>
</event>
<event>
12    6  0.9533401E-008  0.2013850E+04  0.7818608E-02  0.8600173E-01
          2   -1    0    0  501    0  0.00000000000E+00  0.00000000000E+00  0.18149144594E+04  0.18149144594E+04  0.00000000000E+00 0. -1.
         -1   -1    0    0    0  501 -0.00000000000E+00 -0.00000000000E+00 -0.55864789152E+03  0.55864789152E+03  0.00000000000E+00 0.  1.
         24    2    1    2    0    0 -0.62745366103E+02  0.17171863385E+03  0.14205704592E+04  0.14344805040E+04  0.79307102873E+02 0.  0.
        254    2    1    2    0    0  0.62745366103E+02 -0.17171863385E+03 -0.16430389134E+03  0.93908184692E+03  0.90634136854E+03 0.  0.
         23    2    4    4    0    0  0.23309170542E+03  0.31450549319E+03 -0.61094824244E+02  0.40586149106E+03  0.88008658621E+02 0.  0.
         23    2    4    4    0    0 -0.17034633932E+03 -0.48622412705E+03 -0.10320906709E+03  0.53322035586E+03  0.90774772565E+02 0.  0.
          4    1    3    3  502    0 -0.30973215410E+02  0.82532932057E+02  0.97418429134E+03  0.97816463769E+03  0.00000000000E+00 0. -1.
         -3    1    3    3    0  502 -0.31772150693E+02  0.89185701797E+02  0.44638616784E+03  0.45631586627E+03  0.00000000000E+00 0.  1.
         11    1    5    5    0    0  0.21631031969E+03  0.30666260675E+03 -0.75002900285E+02  0.38269771861E+03  0.00000000000E+00 0. -1.
        -11    1    5    5    0    0  0.16781385731E+02  0.78428864470E+01  0.13908076041E+02  0.23163772448E+02  0.00000000000E+00 0.  1.
          3    1    6    6  503    0 -0.17781206547E+03 -0.41986288321E+03 -0.83053260505E+02  0.46346500990E+03  0.00000000000E+00 0. -1.
         -3    1    6    6    0  503  0.74657261537E+01 -0.66361243838E+02 -0.20155806587E+02  0.69755345959E+02  0.00000000000E+00 0.  1.
<mgrwt>
<rscale>  0 0.20138502E+04</rscale>
<asrwt>0</asrwt>
<pdfrwt beam="1">  1        2 0.27921761E+00 0.20138502E+04</pdfrwt>
<pdfrwt beam="2">  1       -1 0.85945830E-01 0.20138502E+04</pdfrwt>
<totfact> 0.11956693E+01</totfact>
</mgrwt>
</event>
<event>
12    6  0.9533401E-008  0.2014000E+04  0.7818608E-02  0.8600103E-01
         -1   -1    0    0    0  501 -0.00000000000E+00  0.00000000000E+00  0.95310022917E+03  0.95310022917E+03  0.00000000000E+00 0.  1.
          2   -1    0    0  501    0  0.00000000000E+00 -0.00000000000E+00 -0.10639475635E+04  0.10639475635E+04  0.00000000000E+00 0. -1.
         24    2    1    2    0    0 -0.69563507914E+03  0.39909158786E+03 -0.10114175684E+03  0.81243321203E+03  0.81460482508E+02 0.  0.
        254    2    1    2    0    0  0.69563507914E+03 -0.39909158786E+03 -0.97055774943E+01  0.12046145806E+04  0.89878797880E+03 0.  0.
         23    2    4    4    0    0  0.19272661524E+03 -0.10437409227E+03  0.41460697881E+03  0.47783839702E+03  0.91613794988E+02 0.  0.
         23    2    4    4    0    0  0.50290846389E+03 -0.29471749559E+03 -0.42431255630E+03  0.72677618362E+03  0.91581386599E+02 0.  0.
          4    1    3    3  502    0 -0.49150264740E+03  0.27178398417E+03 -0.10719637872E+03  0.57178007141E+03  0.00000000000E+00 0. -1.
         -3    1    3    3    0  502 -0.20413243174E+03  0.12730760369E+03  0.60546218874E+01  0.24065314062E+03  0.00000000000E+00 0.  1.
         11    1    5    5    0    0  0.12288471440E+03 -0.26208716208E+02  0.28261020309E+03  0.30928316593E+03  0.00000000000E+00 0.  1.
        -11    1    5    5    0    0  0.69841900843E+02 -0.78165376057E+02  0.13199677572E+03  0.16855523109E+03  0.00000000000E+00 0. -1.
          3    1    6    6  503    0  0.15815614467E+03 -0.61279777807E+02 -0.16285361372E+03  0.23513799515E+03  0.00000000000E+00 0. -1.
         -3    1    6    6    0  503  0.34475231923E+03 -0.23343771779E+03 -0.26145894259E+03  0.49163818847E+03  0.00000000000E+00 0.  1.
<mgrwt>
<rscale>  0 0.20139997E+04</rscale>
<asrwt>0</asrwt>
<pdfrwt beam="1">  1        2 0.16368424E+00 0.20139997E+04</pdfrwt>
<pdfrwt beam="2">  1       -1 0.14663080E+00 0.20139997E+04</pdfrwt>
<totfact> 0.90052910E+00</totfact>
</mgrwt>
</event>
<event>
12    6  0.9533401E-008  0.1604883E+04  0.7818608E-02  0.8817554E-01
          2   -1    0    0  501    0  0.00000000000E+00  0.00000000000E+00  0.13434832165E+04  0.13434832165E+04  0.00000000000E+00 0. -1.
         -1   -1    0    0    0  501 -0.00000000000E+00 -0.00000000000E+00 -0.47928556191E+03  0.47928556191E+03  0.00000000000E+00 0.  1.
         24    2    1    2    0    0  0.47436831923E+03  0.24563476020E+03  0.15819325384E+03  0.56313744846E+03  0.82078880312E+02 0.  0.
        254    2    1    2    0    0 -0.47436831923E+03 -0.24563476020E+03  0.70600440073E+03  0.12596313299E+04  0.89602853514E+03 0.  0.
         23    2    4    4    0    0 -0.10822894097E+02  0.28186164882E+03  0.37500070318E+03  0.47795484632E+03  0.90841530278E+02 0.  0.
         23    2    4    4    0    0 -0.46354542513E+03 -0.52749640902E+03  0.33100369755E+03  0.78167648361E+03  0.91257079407E+02 0.  0.
          2    1    3    3  502    0  0.60112606781E+02  0.13782027626E+02  0.41329381506E+02  0.74240067047E+02  0.00000000000E+00 0. -1.
         -1    1    3    3    0  502  0.41425571245E+03  0.23185273257E+03  0.11686387233E+03  0.48889738141E+03  0.00000000000E+00 0.  1.
         11    1    5    5    0    0 -0.42720148654E+01  0.28708467735E+03  0.35725407647E+03  0.45832994364E+03  0.00000000000E+00 0. -1.
        -11    1    5    5    0    0 -0.65508792312E+01 -0.52230285296E+01  0.17746626712E+02  0.19624902684E+02  0.00000000000E+00 0.  1.
          2    1    6    6  503    0 -0.18356497030E+02 -0.59224533506E+02  0.30163409421E+02  0.68951704983E+02  0.00000000000E+00 0.  1.
         -2    1    6    6    0  503 -0.44518892810E+03 -0.46827187551E+03  0.30084028813E+03  0.71272477862E+03  0.00000000000E+00 0. -1.
<mgrwt>
<rscale>  0 0.16048827E+04</rscale>
<asrwt>0</asrwt>
<pdfrwt beam="1">  1        2 0.20668972E+00 0.16048827E+04</pdfrwt>
<pdfrwt beam="2">  1       -1 0.73736241E-01 0.16048827E+04</pdfrwt>
<totfact> 0.31571905E+01</totfact>
</mgrwt>
</event>
<event>
12    6  0.9533401E-008  0.1737237E+04  0.7818608E-02  0.8740407E-01
         -3   -1    0    0    0  501 -0.00000000000E+00  0.00000000000E+00  0.26855619010E+03  0.26855619010E+03  0.00000000000E+00 0.  1.
          2   -1    0    0  501    0  0.00000000000E+00 -0.00000000000E+00 -0.28094622929E+04  0.28094622929E+04  0.00000000000E+00 0. -1.
         24    2    1    2    0    0  0.17248416132E+03  0.58384280529E+03 -0.66182411684E+03  0.90285408094E+03  0.80691527713E+02 0.  0.
        254    2    1    2    0    0 -0.17248416132E+03 -0.58384280529E+03 -0.18790819860E+04  0.21751644021E+04  0.91091594497E+03 0.  0.
         23    2    4    4    0    0  0.24830245397E+03 -0.60870372047E+03 -0.11522680614E+04  0.13300407194E+04  0.95458378002E+02 0.  0.
         23    2    4    4    0    0 -0.42078661529E+03  0.24860915177E+02 -0.72681392453E+03  0.84512368264E+03  0.91083024589E+02 0.  0.
          4    1    3    3  502    0  0.58043236177E+02  0.24487185827E+03 -0.32900343403E+03  0.41421552825E+03  0.00000000000E+00 0. -1.
         -3    1    3    3    0  502  0.11444092514E+03  0.33897094702E+03 -0.33282068281E+03  0.48863855269E+03  0.00000000000E+00 0.  1.
         11    1    5    5    0    0  0.14872466584E+03 -0.30489695705E+03 -0.67711314338E+03  0.75733967913E+03  0.00000000000E+00 0. -1.
        -11    1    5    5    0    0  0.99577788128E+02 -0.30380676342E+03 -0.47515491806E+03  0.57270104028E+03  0.00000000000E+00 0.  1.
          3    1    6    6  503    0 -0.42157083981E+03  0.17534162294E+02 -0.70013891875E+03  0.81744964699E+03  0.00000000000E+00 0. -1.
         -3    1    6    6    0  503  0.78422451658E+00  0.73267528836E+01 -0.26675005780E+02  0.27674035652E+02  0.00000000000E+00 0.  1.
<mgrwt>
<rscale>  0 0.17372375E+04</rscale>
<asrwt>0</asrwt>
<pdfrwt beam="1">  1        2 0.43222497E+00 0.17372375E+04</pdfrwt>
<pdfrwt beam="2">  1       -3 0.41316337E-01 0.17372375E+04</pdfrwt>
<totfact> 0.81845396E+00</totfact>
</mgrwt>
</event>
<event>
12    6  0.9533401E-008  0.1651034E+04  0.7818608E-02  0.8789795E-01
         -1   -1    0    0    0  501 -0.00000000000E+00  0.00000000000E+00  0.34407378560E+03  0.34407378560E+03  0.00000000000E+00 0.  1.
          2   -1    0    0  501    0  0.00000000000E+00 -0.00000000000E+00 -0.19806165760E+04  0.19806165760E+04  0.00000000000E+00 0. -1.
         24    2    1    2    0    0 -0.42966040555E+03  0.28068908051E+03 -0.20304956616E+03  0.55914699348E+03  0.89564557635E+02 0.  0.
        254    2    1    2    0    0  0.42966040555E+03 -0.28068908051E+03 -0.14334932242E+04  0.17655433681E+04  0.89378192905E+03 0.  0.
         23    2    4    4    0    0  0.55434195415E+03 -0.29536622226E+03 -0.14732705339E+04  0.16038304405E+04  0.84910591276E+02 0.  0.
         23    2    4    4    0    0 -0.12468154860E+03  0.14677141746E+02  0.39777309727E+02  0.16171292752E+03  0.93850570100E+02 0.  0.
          4    1    3    3  502    0 -0.14005055619E+03  0.47740263082E+02 -0.76152288940E+02  0.16641052286E+03  0.00000000000E+00 0. -1.
         -3    1    3    3    0  502 -0.28960984936E+03  0.23294881743E+03 -0.12689727722E+03  0.39273647062E+03  0.00000000000E+00 0.  1.
         11    1    5    5    0    0  0.44336845201E+03 -0.24978200133E+03 -0.12642678449E+04  0.13628425499E+04  0.00000000000E+00 0. -1.
        -11    1    5    5    0    0  0.11097350214E+03 -0.45584220928E+02 -0.20900268907E+03  0.24098789060E+03  0.00000000000E+00 0.  1.
          3    1    6    6  503    0 -0.61029999012E+02  0.21460398216E+02  0.66109121863E+02  0.92496624071E+02  0.00000000000E+00 0. -1.
         -3    1    6    6    0  503 -0.63651549588E+02 -0.67832564706E+01 -0.26331812136E+02  0.69216303453E+02  0.00000000000E+00 0.  1.
<mgrwt>
<rscale>  0 0.16510339E+04</rscale>
<asrwt>0</asrwt>
<pdfrwt beam="1">  1        2 0.30471024E+00 0.16510339E+04</pdfrwt>
<pdfrwt beam="2">  1       -1 0.52934429E-01 0.16510339E+04</pdfrwt>
<totfact> 0.26815250E+01</totfact>
</mgrwt>
</event>
<event>
12    6  0.9533401E-008  0.2445521E+04  0.7818608E-02  0.8422655E-01
         -1   -1    0    0    0  501 -0.00000000000E+00  0.00000000000E+00  0.70395889702E+03  0.70395889702E+03  0.00000000000E+00 0.  1.
          2   -1    0    0  501    0  0.00000000000E+00 -0.00000000000E+00 -0.21239070379E+04  0.21239070379E+04  0.00000000000E+00 0. -1.
         24    2    1    2    0    0  0.57163905883E+03  0.59152137017E+03  0.16097246488E+03  0.84198343370E+03  0.79719653954E+02 0.  0.
        254    2    1    2    0    0 -0.57163905883E+03 -0.59152137017E+03 -0.15809206058E+04  0.19858825013E+04  0.87621378785E+03 0.  0.
         23    2    4    4    0    0  0.21847149720E+03 -0.59981268164E+02 -0.35025309302E+03  0.42716327004E+03  0.91998274348E+02 0.  0.
         23    2    4    4    0    0 -0.79011055603E+03 -0.53154010201E+03 -0.12306675128E+04  0.15587192312E+04  0.90849017368E+02 0.  0.
          2    1    3    3  502    0  0.11534583566E+03  0.85117154269E+02  0.47068066051E+02  0.15088072971E+03  0.00000000000E+00 0. -1.
         -1    1    3    3    0  502  0.45629322317E+03  0.50640421590E+03  0.11390439883E+03  0.69110270399E+03  0.00000000000E+00 0.  1.
         11    1    5    5    0    0  0.14378870851E+03 -0.14662947257E+01 -0.16382464773E+03  0.21798132471E+03  0.00000000000E+00 0. -1.
        -11    1    5    5    0    0  0.74682788692E+02 -0.58514973438E+02 -0.18642844528E+03  0.20918194533E+03  0.00000000000E+00 0.  1.
          2    1    6    6  503    0 -0.33041317960E+03 -0.26696833719E+03 -0.50553075302E+03  0.66030773474E+03  0.00000000000E+00 0. -1.
         -2    1    6    6    0  503 -0.45969737643E+03 -0.26457176482E+03 -0.72513675977E+03  0.89841149648E+03  0.00000000000E+00 0.  1.
<mgrwt>
<rscale>  0 0.24455210E+04</rscale>
<asrwt>0</asrwt>
<pdfrwt beam="1">  1        2 0.32675493E+00 0.24455210E+04</pdfrwt>
<pdfrwt beam="2">  1       -1 0.10830137E+00 0.24455210E+04</pdfrwt>
<totfact> 0.45976983E+00</totfact>
</mgrwt>
</event>
<event>
12    6  0.9533401E-008  0.2547997E+04  0.7818608E-02  0.8386083E-01
          2   -1    0    0  501    0  0.00000000000E+00  0.00000000000E+00  0.18145875680E+04  0.18145875680E+04  0.00000000000E+00 0. -1.
         -1   -1    0    0    0  501 -0.00000000000E+00 -0.00000000000E+00 -0.89445768887E+03  0.89445768887E+03  0.00000000000E+00 0.  1.
         24    2    1    2    0    0  0.81490936653E+03 -0.30128779211E+03 -0.31656610887E+03  0.92832472080E+03  0.81982172634E+02 0.  0.
        254    2    1    2    0    0 -0.81490936653E+03  0.30128779211E+03  0.12366959880E+04  0.17807205361E+04  0.94164592685E+03 0.  0.
         23    2    4    4    0    0 -0.40540962436E+03  0.40388343124E+03  0.13147824978E+03  0.59398649636E+03  0.89747635857E+02 0.  0.
         23    2    4    4    0    0 -0.40949974217E+03 -0.10259563913E+03  0.11052177383E+04  0.11867340397E+04  0.92819869278E+02 0.  0.
          2    1    3    3  502    0  0.28124054062E+02  0.30250151163E+01 -0.17670703841E+02  0.33352164961E+02  0.00000000000E+00 0. -1.
         -1    1    3    3    0  502  0.78678531247E+03 -0.30431280723E+03 -0.29889540503E+03  0.89497255584E+03  0.00000000000E+00 0.  1.
         11    1    5    5    0    0 -0.14242703891E+03  0.11407237120E+03  0.80101460949E+02  0.19928424757E+03  0.00000000000E+00 0.  1.
        -11    1    5    5    0    0 -0.26298258546E+03  0.28981106003E+03  0.51376788836E+02  0.39470224879E+03  0.00000000000E+00 0. -1.
          4    1    6    6  503    0 -0.29003207270E+03 -0.44140923711E+02  0.66438164524E+03  0.72627129564E+03  0.00000000000E+00 0. -1.
         -4    1    6    6    0  503 -0.11946766946E+03 -0.58454715415E+02  0.44083609302E+03  0.46046274410E+03  0.00000000000E+00 0.  1.
<mgrwt>
<rscale>  0 0.25479967E+04</rscale>
<asrwt>0</asrwt>
<pdfrwt beam="1">  1        2 0.27916732E+00 0.25479967E+04</pdfrwt>
<pdfrwt beam="2">  1       -1 0.13760888E+00 0.25479967E+04</pdfrwt>
<totfact> 0.37546687E+00</totfact>
</mgrwt>
</event>
<event>
12    6  0.9533401E-008  0.1412902E+04  0.7818608E-02  0.8944532E-01
         -1   -1    0    0    0  501 -0.00000000000E+00  0.00000000000E+00  0.50589878765E+03  0.50589878765E+03  0.00000000000E+00 0.  1.
          2   -1    0    0  501    0  0.00000000000E+00 -0.00000000000E+00 -0.98650778666E+03  0.98650778666E+03  0.00000000000E+00 0. -1.
         24    2    1    2    0    0 -0.25189736068E+03  0.33229890141E+03 -0.18844190394E+03  0.46448632910E+03  0.79764394041E+02 0.  0.
        254    2    1    2    0    0  0.25189736068E+03 -0.33229890141E+03 -0.29216709507E+03  0.10279202452E+04  0.89296336928E+03 0.  0.
         23    2    4    4    0    0 -0.11390557733E+03 -0.62382524748E+02 -0.49709363972E+03  0.52076052144E+03  0.84990435361E+02 0.  0.
         23    2    4    4    0    0  0.36580293802E+03 -0.26991637667E+03  0.20492654464E+03  0.50715972378E+03  0.92463273076E+02 0.  0.
          4    1    3    3  502    0 -0.20147221148E+02  0.46289035810E+02  0.98006647078E+00  0.50493028098E+02  0.00000000000E+00 0. -1.
         -3    1    3    3    0  502 -0.23175013954E+03  0.28600986560E+03 -0.18942197041E+03  0.41399330100E+03  0.00000000000E+00 0.  1.
         11    1    5    5    0    0 -0.12457438008E+03 -0.51895759277E+02 -0.39136718775E+03  0.41398094358E+03  0.00000000000E+00 0. -1.
        -11    1    5    5    0    0  0.10668802743E+02 -0.10486765471E+02 -0.10572645197E+03  0.10677957786E+03  0.00000000000E+00 0.  1.
          1    1    6    6  503    0  0.70848449618E+02 -0.14853913035E+02  0.17308217068E+02  0.74429267925E+02  0.00000000000E+00 0. -1.
         -1    1    6    6    0  503  0.29495448840E+03 -0.25506246363E+03  0.18761832758E+03  0.43273045585E+03  0.00000000000E+00 0.  1.
<mgrwt>
<rscale>  0 0.14129021E+04</rscale>
<asrwt>0</asrwt>
<pdfrwt beam="1">  1        2 0.15177043E+00 0.14129021E+04</pdfrwt>
<pdfrwt beam="2">  1       -1 0.77830583E-01 0.14129021E+04</pdfrwt>
<totfact> 0.47162135E+01</totfact>
</mgrwt>
</event>
<event>
12    6  0.9533401E-008  0.1903431E+04  0.7818608E-02  0.8653151E-01
         -1   -1    0    0    0  501 -0.00000000000E+00  0.00000000000E+00  0.43978600171E+03  0.43978600171E+03  0.00000000000E+00 0.  1.
          2   -1    0    0  501    0  0.00000000000E+00 -0.00000000000E+00 -0.20595517346E+04  0.20595517346E+04  0.00000000000E+00 0. -1.
         24    2    1    2    0    0  0.23756815706E+03  0.61864742906E+03 -0.10468941257E+04  0.12415402275E+04  0.79193152805E+02 0.  0.
        254    2    1    2    0    0 -0.23756815706E+03 -0.61864742906E+03 -0.57287160722E+03  0.12577975088E+04  0.90261255477E+03 0.  0.
         23    2    4    4    0    0 -0.11015791769E+03  0.21901529378E+03 -0.81747939685E+02  0.27395046548E+03  0.90904709208E+02 0.  0.
         23    2    4    4    0    0 -0.12741023937E+03 -0.83766272284E+03 -0.49112366754E+03  0.98384704331E+03  0.94023090102E+02 0.  0.
          2    1    3    3  502    0  0.20768848970E+03  0.44852008530E+03 -0.75651153452E+03  0.90366723828E+03  0.00000000000E+00 0. -1.
         -1    1    3    3    0  502  0.29879667360E+02  0.17012734376E+03 -0.29038259115E+03  0.33787298924E+03  0.00000000000E+00 0.  1.
         11    1    5    5    0    0  0.19380610870E+01  0.35328768545E+02 -0.42349295003E+02  0.55184606141E+02  0.00000000000E+00 0.  1.
        -11    1    5    5    0    0 -0.11209597878E+03  0.18368652524E+03 -0.39398644682E+02  0.21876585934E+03  0.00000000000E+00 0. -1.
          4    1    6    6  503    0 -0.50748131816E+02 -0.11840486522E+03 -0.64366484419E+02  0.14400739324E+03  0.00000000000E+00 0.  1.
         -4    1    6    6    0  503 -0.76662107555E+02 -0.71925785762E+03 -0.42675718312E+03  0.83983965007E+03  0.00000000000E+00 0. -1.
<mgrwt>
<rscale>  0 0.19034306E+04</rscale>
<asrwt>0</asrwt>
<pdfrwt beam="1">  1        2 0.31685411E+00 0.19034306E+04</pdfrwt>
<pdfrwt beam="2">  1       -1 0.67659385E-01 0.19034306E+04</pdfrwt>
<totfact> 0.14597751E+01</totfact>
</mgrwt>
</event>
<event>
12    6  0.9533401E-008  0.4133254E+04  0.7818608E-02  0.7978192E-01
         -1   -1    0    0    0  501 -0.00000000000E+00  0.00000000000E+00  0.17551918505E+04  0.17551918505E+04  0.00000000000E+00 0.  1.
          2   -1    0    0  501    0  0.00000000000E+00 -0.00000000000E+00 -0.24333216429E+04  0.24333216429E+04  0.00000000000E+00 0. -1.
         24    2    1    2    0    0 -0.14489973698E+04 -0.12578628679E+04  0.50088544539E+02  0.19211970640E+04  0.81712449484E+02 0.  0.
        254    2    1    2    0    0  0.14489973698E+04  0.12578628679E+04 -0.72821833688E+03  0.22673164294E+04  0.96364385159E+03 0.  0.
         23    2    4    4    0    0  0.12573362318E+04  0.60713632063E+03 -0.74049592002E+03  0.15830339371E+04  0.90295774494E+02 0.  0.
         23    2    4    4    0    0  0.19166113802E+03  0.65072654726E+03  0.12277583138E+02  0.68428249228E+03  0.88953690579E+02 0.  0.
          4    1    3    3  502    0 -0.13761308770E+04 -0.12102844814E+04  0.60002814553E+02  0.18336098424E+04  0.00000000000E+00 0. -1.
         -3    1    3    3    0  502 -0.72866492825E+02 -0.47578386526E+02 -0.99142700140E+01  0.87587221619E+02  0.00000000000E+00 0.  1.
         11    1    5    5    0    0  0.28470698028E+03  0.17550852341E+03 -0.15735407482E+03  0.36962360757E+03  0.00000000000E+00 0.  1.
        -11    1    5    5    0    0  0.97262925147E+03  0.43162779721E+03 -0.58314184520E+03  0.12134103295E+04  0.00000000000E+00 0. -1.
          3    1    6    6  503    0  0.19480809280E+03  0.59471673197E+03 -0.41664204807E+01  0.62582389166E+03  0.00000000000E+00 0. -1.
         -3    1    6    6    0  503 -0.31469547754E+01  0.56009815282E+02  0.16444003619E+02  0.58458600627E+02  0.00000000000E+00 0.  1.
<mgrwt>
<rscale>  0 0.41332536E+04</rscale>
<asrwt>0</asrwt>
<pdfrwt beam="1">  1        2 0.37435717E+00 0.41332536E+04</pdfrwt>
<pdfrwt beam="2">  1       -1 0.27002952E+00 0.41332536E+04</pdfrwt>
<totfact> 0.17432201E-01</totfact>
</mgrwt>
</event>
<event>
12    6  0.9533401E-008  0.1222908E+04  0.7818608E-02  0.9093038E-01
         -1   -1    0    0    0  501 -0.00000000000E+00  0.00000000000E+00  0.18873197442E+03  0.18873197442E+03  0.00000000000E+00 0.  1.
          2   -1    0    0  501    0  0.00000000000E+00 -0.00000000000E+00 -0.19809887327E+04  0.19809887327E+04  0.00000000000E+00 0. -1.
         24    2    1    2    0    0 -0.96225975686E+01 -0.37734180204E+02 -0.87830034798E+03  0.88239903516E+03  0.75498961869E+02 0.  0.
        254    2    1    2    0    0  0.96225975686E+01  0.37734180204E+02 -0.91395641027E+03  0.12873216719E+04  0.90573964495E+03 0.  0.
         23    2    4    4    0    0  0.28349662191E+03  0.33839362728E+01 -0.94834128490E+03  0.99384974482E+03  0.89466960237E+02 0.  0.
         23    2    4    4    0    0 -0.27387402434E+03  0.34350243932E+02  0.34384874631E+02  0.29347192712E+03  0.93576342817E+02 0.  0.
          2    1    3    3  502    0 -0.22937131214E+02  0.13932572091E+02 -0.44806143738E+03  0.44886443412E+03  0.00000000000E+00 0. -1.
         -1    1    3    3    0  502  0.13314533645E+02 -0.51666752296E+02 -0.43023891060E+03  0.43353460104E+03  0.00000000000E+00 0.  1.
         11    1    5    5    0    0  0.67800192958E+02  0.30472626462E+02 -0.33423774989E+03  0.34240373914E+03  0.00000000000E+00 0. -1.
        -11    1    5    5    0    0  0.21569642895E+03 -0.27088690189E+02 -0.61410353501E+03  0.65144600568E+03  0.00000000000E+00 0.  1.
          3    1    6    6  503    0 -0.19681096850E+03 -0.18630560117E+02  0.28909568306E+02  0.19979343891E+03  0.00000000000E+00 0. -1.
         -3    1    6    6    0  503 -0.77063055844E+02  0.52980804048E+02  0.54753063250E+01  0.93678488208E+02  0.00000000000E+00 0.  1.
<mgrwt>
<rscale>  0 0.12229079E+04</rscale>
<asrwt>0</asrwt>
<pdfrwt beam="1">  1        2 0.30476746E+00 0.12229079E+04</pdfrwt>
<pdfrwt beam="2">  1       -1 0.29035692E-01 0.12229079E+04</pdfrwt>
<totfact> 0.83120477E+01</totfact>
</mgrwt>
</event>
<event>
12    6  0.9533401E-008  0.1633216E+04  0.7818608E-02  0.8800398E-01
         -1   -1    0    0    0  501 -0.00000000000E+00  0.00000000000E+00  0.26837762358E+03  0.26837762358E+03  0.00000000000E+00 0.  1.
          2   -1    0    0  501    0  0.00000000000E+00 -0.00000000000E+00 -0.24847410015E+04  0.24847410015E+04  0.00000000000E+00 0. -1.
         24    2    1    2    0    0  0.25301100435E+03 -0.35026132078E+03 -0.13940374544E+04  0.14612609957E+04  0.72427290324E+02 0.  0.
        254    2    1    2    0    0 -0.25301100435E+03  0.35026132078E+03 -0.82232592353E+03  0.12918576293E+04  0.89776313620E+03 0.  0.
         23    2    4    4    0    0 -0.32458305496E+03  0.56593494588E+03 -0.81409841875E+03  0.10473360190E+04  0.92303730550E+02 0.  0.
         23    2    4    4    0    0  0.71572050605E+02 -0.21567362509E+03 -0.82275047803E+01  0.24452161034E+03  0.89919158688E+02 0.  0.
          2    1    3    3  502    0  0.50001594054E+02 -0.93541058245E+02 -0.25619634820E+03  0.27728443486E+03  0.00000000000E+00 0. -1.
         -1    1    3    3    0  502  0.20300941030E+03 -0.25672026254E+03 -0.11378411062E+04  0.11839765609E+04  0.00000000000E+00 0.  1.
         11    1    5    5    0    0 -0.23843083524E+03  0.40726797274E+03 -0.65075164445E+03  0.80386203267E+03  0.00000000000E+00 0.  1.
        -11    1    5    5    0    0 -0.86152219721E+02  0.15866697314E+03 -0.16334677430E+03  0.24347398630E+03  0.00000000000E+00 0. -1.
          4    1    6    6  503    0  0.10740317616E+02 -0.16059865368E+03 -0.17653366618E+02  0.16192258440E+03  0.00000000000E+00 0.  1.
         -4    1    6    6    0  503  0.60831732989E+02 -0.55074971416E+02  0.94258618377E+01  0.82599025940E+02  0.00000000000E+00 0. -1.
<mgrwt>
<rscale>  0 0.16332163E+04</rscale>
<asrwt>0</asrwt>
<pdfrwt beam="1">  1        2 0.38226784E+00 0.16332163E+04</pdfrwt>
<pdfrwt beam="2">  1       -1 0.41288866E-01 0.16332163E+04</pdfrwt>
<totfact> 0.22277559E+01</totfact>
</mgrwt>
</event>
<event>
12    6  0.9533401E-008  0.2793235E+04  0.7818608E-02  0.8305372E-01
          2   -1    0    0  501    0  0.00000000000E+00  0.00000000000E+00  0.24788939636E+04  0.24788939636E+04  0.00000000000E+00 0. -1.
         -1   -1    0    0    0  501 -0.00000000000E+00 -0.00000000000E+00 -0.78685895376E+03  0.78685895376E+03  0.00000000000E+00 0.  1.
         24    2    1    2    0    0  0.18712582636E+02 -0.73364106750E+03  0.19408297768E+04  0.20769600508E+04  0.91451920440E+02 0.  0.
        254    2    1    2    0    0 -0.18712582636E+02  0.73364106750E+03 -0.24879476689E+03  0.11887928665E+04  0.90152663125E+03 0.  0.
         23    2    4    4    0    0  0.55730460205E+02  0.83617725608E+03  0.57875567017E+02  0.84491715169E+03  0.90758603894E+02 0.  0.
         23    2    4    4    0    0 -0.74443042841E+02 -0.10253618858E+03 -0.30667033391E+03  0.34387571486E+03  0.90268360890E+02 0.  0.
          4    1    3    3  502    0  0.42069776773E+02 -0.20427239906E+03  0.60070718354E+03  0.63588222140E+03  0.00000000000E+00 0. -1.
         -3    1    3    3    0  502 -0.23357194137E+02 -0.52936866844E+03  0.13401225932E+04  0.14410778294E+04  0.00000000000E+00 0.  1.
         11    1    5    5    0    0  0.58666975810E+01  0.65155371871E+03  0.38924543700E+02  0.65274174572E+03  0.00000000000E+00 0.  1.
        -11    1    5    5    0    0  0.49863762624E+02  0.18462353737E+03  0.18951023317E+02  0.19217540597E+03  0.00000000000E+00 0. -1.
          3    1    6    6  503    0 -0.75552132960E+01 -0.63049264640E+01  0.49005143902E+01  0.10993106338E+02  0.00000000000E+00 0. -1.
         -3    1    6    6    0  503 -0.66887829545E+02 -0.96231262115E+02 -0.31157084830E+03  0.33288260852E+03  0.00000000000E+00 0.  1.
<mgrwt>
<rscale>  0 0.27932346E+04</rscale>
<asrwt>0</asrwt>
<pdfrwt beam="1">  1        2 0.38136830E+00 0.27932346E+04</pdfrwt>
<pdfrwt beam="2">  1       -1 0.12105523E+00 0.27932346E+04</pdfrwt>
<totfact> 0.21468591E+00</totfact>
</mgrwt>
</event>
<event>
12    6  0.9533401E-008  0.1793798E+04  0.7818608E-02  0.8709605E-01
          2   -1    0    0  501    0  0.00000000000E+00  0.00000000000E+00  0.23060010775E+04  0.23060010775E+04  0.00000000000E+00 0. -1.
         -1   -1    0    0    0  501 -0.00000000000E+00 -0.00000000000E+00 -0.34884107797E+03  0.34884107797E+03  0.00000000000E+00 0.  1.
         24    2    1    2    0    0 -0.51646520878E+03 -0.23613004152E+03  0.12932187809E+04  0.14146550193E+04  0.79626000001E+02 0.  0.
        254    2    1    2    0    0  0.51646520878E+03  0.23613004152E+03  0.66394121867E+03  0.12401871362E+04  0.88020025145E+03 0.  0.
         23    2    4    4    0    0  0.46542911997E+02  0.41299005570E+02 -0.20305729094E+03  0.23083460079E+03  0.90446111025E+02 0.  0.
         23    2    4    4    0    0  0.46992229678E+03  0.19483103595E+03  0.86699850961E+03  0.10093525354E+04  0.91214185072E+02 0.  0.
          4    1    3    3  502    0 -0.47906204288E+03 -0.23885379527E+03  0.12238054510E+04  0.13357587201E+04  0.00000000000E+00 0. -1.
         -3    1    3    3    0  502 -0.37403165892E+02  0.27237537417E+01  0.69413329902E+02  0.78896299161E+02  0.00000000000E+00 0.  1.
         11    1    5    5    0    0  0.56564965987E+02  0.49911940534E+02 -0.91909274079E+02  0.11890379240E+03  0.00000000000E+00 0. -1.
        -11    1    5    5    0    0 -0.10022053990E+02 -0.86129349643E+01 -0.11114801686E+03  0.11193080839E+03  0.00000000000E+00 0.  1.
          3    1    6    6  503    0  0.10637376646E+03  0.83986021145E+01  0.21281416669E+03  0.23806676428E+03  0.00000000000E+00 0. -1.
         -3    1    6    6    0  503  0.36354853032E+03  0.18643243384E+03  0.65418434292E+03  0.77128577116E+03  0.00000000000E+00 0.  1.
<mgrwt>
<rscale>  0 0.17937981E+04</rscale>
<asrwt>0</asrwt>
<pdfrwt beam="1">  1        2 0.35476939E+00 0.17937981E+04</pdfrwt>
<pdfrwt beam="2">  1       -1 0.53667860E-01 0.17937981E+04</pdfrwt>
<totfact> 0.16960213E+01</totfact>
</mgrwt>
</event>
<event>
12    6  0.9533401E-008  0.1943657E+04  0.7818608E-02  0.8633425E-01
          2   -1    0    0  501    0  0.00000000000E+00  0.00000000000E+00  0.93745683329E+03  0.93745683329E+03  0.00000000000E+00 0. -1.
         -1   -1    0    0    0  501 -0.00000000000E+00 -0.00000000000E+00 -0.10074607253E+04  0.10074607253E+04  0.00000000000E+00 0.  1.
         24    2    1    2    0    0  0.55406204070E+03 -0.46206456558E+03  0.21849022854E+03  0.75815512213E+03  0.81072816237E+02 0.  0.
        254    2    1    2    0    0 -0.55406204070E+03  0.46206456558E+03 -0.28849412055E+03  0.11867624365E+04  0.89704393164E+03 0.  0.
         23    2    4    4    0    0  0.21865728457E+03  0.56291977942E+02  0.46795017995E+02  0.24737023837E+03  0.89568221189E+02 0.  0.
         23    2    4    4    0    0 -0.77271932527E+03  0.40577258763E+03 -0.33528913855E+03  0.93939219809E+03  0.91062324163E+02 0.  0.
          2    1    3    3  502    0  0.36560345118E+02 -0.42889505367E+02  0.38627021763E+02  0.68324339119E+02  0.00000000000E+00 0. -1.
         -1    1    3    3    0  502  0.51750169559E+03 -0.41917506021E+03  0.17986320677E+03  0.68983078301E+03  0.00000000000E+00 0.  1.
         11    1    5    5    0    0  0.17834527675E+03  0.80594961956E+02  0.34605286851E+02  0.19874634968E+03  0.00000000000E+00 0. -1.
        -11    1    5    5    0    0  0.40312007813E+02 -0.24302984014E+02  0.12189731144E+02  0.48623888689E+02  0.00000000000E+00 0.  1.
          4    1    6    6  503    0 -0.65057205754E+03  0.35261063457E+03 -0.24937165475E+03  0.78087417928E+03  0.00000000000E+00 0. -1.
         -4    1    6    6    0  503 -0.12214726773E+03  0.53161953066E+02 -0.85917483791E+02  0.15851801881E+03  0.00000000000E+00 0.  1.
<mgrwt>
<rscale>  0 0.19436573E+04</rscale>
<asrwt>0</asrwt>
<pdfrwt beam="1">  1        2 0.14422413E+00 0.19436573E+04</pdfrwt>
<pdfrwt beam="2">  1       -1 0.15499396E+00 0.19436573E+04</pdfrwt>
<totfact> 0.94052377E+00</totfact>
</mgrwt>
</event>
<event>
12    6  0.9533401E-008  0.1530125E+04  0.7818608E-02  0.8864664E-01
          2   -1    0    0  501    0  0.00000000000E+00  0.00000000000E+00  0.90077147165E+03  0.90077147165E+03  0.00000000000E+00 0. -1.
         -1   -1    0    0    0  501 -0.00000000000E+00 -0.00000000000E+00 -0.64979897712E+03  0.64979897712E+03  0.00000000000E+00 0.  1.
         24    2    1    2    0    0  0.18595147544E+02  0.15501781286E+03 -0.39561116788E+03  0.43265036640E+03  0.79384139344E+02 0.  0.
        254    2    1    2    0    0 -0.18595147544E+02 -0.15501781286E+03  0.64658366241E+03  0.11179200824E+04  0.89849795563E+03 0.  0.
         23    2    4    4    0    0  0.21014743589E+03 -0.40926463318E+03  0.11884429321E+03  0.48376772468E+03  0.90817182451E+02 0.  0.
         23    2    4    4    0    0 -0.22874258343E+03  0.25424682032E+03  0.52773936920E+03  0.63415235770E+03  0.81705298794E+02 0.  0.
          2    1    3    3  502    0  0.44457167707E+02  0.95424581995E+02 -0.19252324900E+03  0.21942536775E+03  0.00000000000E+00 0. -1.
         -1    1    3    3    0  502 -0.25862020163E+02  0.59593230862E+02 -0.20308791888E+03  0.21322499865E+03  0.00000000000E+00 0.  1.
         11    1    5    5    0    0  0.37544261388E+02 -0.71622863837E+02 -0.13800847280E+02  0.82035782272E+02  0.00000000000E+00 0. -1.
        -11    1    5    5    0    0  0.17260317450E+03 -0.33764176934E+03  0.13264514049E+03  0.40173194241E+03  0.00000000000E+00 0.  1.
          4    1    6    6  503    0 -0.70775910083E+02  0.11719919802E+03  0.26561392923E+03  0.29882376222E+03  0.00000000000E+00 0. -1.
         -4    1    6    6    0  503 -0.15796667335E+03  0.13704762230E+03  0.26212543997E+03  0.33532859548E+03  0.00000000000E+00 0.  1.
<mgrwt>
<rscale>  0 0.15301247E+04</rscale>
<asrwt>0</asrwt>
<pdfrwt beam="1">  1        2 0.13858023E+00 0.15301247E+04</pdfrwt>
<pdfrwt beam="2">  1       -1 0.99969074E-01 0.15301247E+04</pdfrwt>
<totfact> 0.30741995E+01</totfact>
</mgrwt>
</event>
<event>
12    6  0.9533401E-008  0.1704630E+04  0.7818608E-02  0.8758728E-01
          2   -1    0    0  501    0  0.00000000000E+00  0.00000000000E+00  0.13818779793E+04  0.13818779793E+04  0.00000000000E+00 0. -1.
         -1   -1    0    0    0  501 -0.00000000000E+00 -0.00000000000E+00 -0.52569092540E+03  0.52569092540E+03  0.00000000000E+00 0.  1.
         24    2    1    2    0    0 -0.86826937424E+01  0.78110805520E+02 -0.36962389553E+03  0.38619639676E+03  0.79681526180E+02 0.  0.
        254    2    1    2    0    0  0.86826937424E+01 -0.78110805520E+02  0.12258109494E+04  0.15213725079E+04  0.89765535536E+03 0.  0.
         23    2    4    4    0    0  0.25096093329E+03 -0.16673360673E+03  0.54988157493E+02  0.31911702159E+03  0.89613003231E+02 0.  0.
         23    2    4    4    0    0 -0.24227823955E+03  0.88622801214E+02  0.11708227919E+04  0.12022554863E+04  0.89663248077E+02 0.  0.
          4    1    3    3  502    0  0.10480419173E+02  0.17804464636E+02 -0.13929361561E+02  0.24917167988E+02  0.00000000000E+00 0. -1.
         -3    1    3    3    0  502 -0.19163112915E+02  0.60306340884E+02 -0.35569453397E+03  0.36127922878E+03  0.00000000000E+00 0.  1.
         11    1    5    5    0    0  0.49572466324E+01 -0.11492110575E+02 -0.15386504543E+02  0.19833996614E+02  0.00000000000E+00 0. -1.
        -11    1    5    5    0    0  0.24600368666E+03 -0.15524149616E+03  0.70374662036E+02  0.29928302497E+03  0.00000000000E+00 0.  1.
          1    1    6    6  503    0 -0.10669117435E+03 -0.45332432965E+01  0.53030149610E+03  0.54094660896E+03  0.00000000000E+00 0. -1.
         -1    1    6    6    0  503 -0.13558706521E+03  0.93156044510E+02  0.64052129582E+03  0.66130887736E+03  0.00000000000E+00 0.  1.
<mgrwt>
<rscale>  0 0.17046298E+04</rscale>
<asrwt>0</asrwt>
<pdfrwt beam="1">  1        2 0.21259661E+00 0.17046298E+04</pdfrwt>
<pdfrwt beam="2">  1       -1 0.80875528E-01 0.17046298E+04</pdfrwt>
<totfact> 0.24490277E+01</totfact>
</mgrwt>
</event>
<event>
12    6  0.9533401E-008  0.1416326E+04  0.7818608E-02  0.8942085E-01
          2   -1    0    0  501    0  0.00000000000E+00  0.00000000000E+00  0.26798581646E+04  0.26798581646E+04  0.00000000000E+00 0. -1.
         -1   -1    0    0    0  501 -0.00000000000E+00 -0.00000000000E+00 -0.18713494773E+03  0.18713494773E+03  0.00000000000E+00 0.  1.
         24    2    1    2    0    0  0.30098966712E+03 -0.27455864992E+03  0.52430936862E+03  0.66877261523E+03  0.79870300525E+02 0.  0.
        254    2    1    2    0    0 -0.30098966712E+03  0.27455864992E+03  0.19684138483E+04  0.21982204971E+04  0.88968704830E+03 0.  0.
         23    2    4    4    0    0  0.27647440570E+03  0.26097728289E+03  0.87588028850E+03  0.95915942415E+03  0.90957583344E+02 0.  0.
         23    2    4    4    0    0 -0.57746407282E+03  0.13581367036E+02  0.10925335598E+04  0.12390610730E+04  0.89406679684E+02 0.  0.
          2    1    3    3  502    0  0.10602589076E+02 -0.38940909717E+02  0.64646585520E+02  0.76210172314E+02  0.00000000000E+00 0. -1.
         -3    1    3    3    0  502  0.29038707804E+03 -0.23561774021E+03  0.45966278310E+03  0.59256244292E+03  0.00000000000E+00 0.  1.
         11    1    5    5    0    0  0.22019319113E+03  0.15628931114E+03  0.56123204024E+03  0.62281039907E+03  0.00000000000E+00 0. -1.
        -11    1    5    5    0    0  0.56281214573E+02  0.10468797174E+03  0.31464824826E+03  0.33634902508E+03  0.00000000000E+00 0.  1.
          1    1    6    6  503    0 -0.14114476812E+03  0.19358935270E+02  0.34873424097E+03  0.37671233689E+03  0.00000000000E+00 0. -1.
         -1    1    6    6    0  503 -0.43631930470E+03 -0.57775682337E+01  0.74379931882E+03  0.86234873608E+03  0.00000000000E+00 0.  1.
<mgrwt>
<rscale>  0 0.14163264E+04</rscale>
<asrwt>0</asrwt>
<pdfrwt beam="1">  1        2 0.41228584E+00 0.14163264E+04</pdfrwt>
<pdfrwt beam="2">  1       -1 0.28789994E-01 0.14163264E+04</pdfrwt>
<totfact> 0.33319621E+01</totfact>
</mgrwt>
</event>
<event>
12    6  0.9533401E-008  0.1337536E+04  0.7818608E-02  0.9000317E-01
         -1   -1    0    0    0  501 -0.00000000000E+00  0.00000000000E+00  0.43733778738E+03  0.43733778738E+03  0.00000000000E+00 0.  1.
          2   -1    0    0  501    0  0.00000000000E+00 -0.00000000000E+00 -0.10226663332E+04  0.10226663332E+04  0.00000000000E+00 0. -1.
         24    2    1    2    0    0 -0.20144441915E+03  0.14930424139E+03 -0.45175179394E+03  0.52284810506E+03  0.80117707996E+02 0.  0.
        254    2    1    2    0    0  0.20144441915E+03 -0.14930424139E+03 -0.13357675183E+03  0.93715601547E+03  0.89305489092E+03 0.  0.
         23    2    4    4    0    0 -0.17529259031E+03 -0.23788669035E+03 -0.36367526161E+03  0.47758751306E+03  0.92263573853E+02 0.  0.
         23    2    4    4    0    0  0.37673700945E+03  0.88582448956E+02  0.23009850978E+03  0.45956850241E+03  0.92088325269E+02 0.  0.
          2    1    3    3  502    0 -0.48263389138E+02  0.60290108235E+02 -0.20513438217E+03  0.21919025214E+03  0.00000000000E+00 0. -1.
         -1    1    3    3    0  502 -0.15318103001E+03  0.89014133154E+02 -0.24661741177E+03  0.30365785293E+03  0.00000000000E+00 0.  1.
         11    1    5    5    0    0  0.89975347188E+01 -0.29337012513E+02 -0.45342969750E+02  0.54750350135E+02  0.00000000000E+00 0. -1.
        -11    1    5    5    0    0 -0.18429012503E+03 -0.20854967783E+03 -0.31833229186E+03  0.42283716292E+03  0.00000000000E+00 0.  1.
          1    1    6    6  503    0  0.86167351780E+02 -0.64038428310E+01  0.20171559347E+02  0.88728312969E+02  0.00000000000E+00 0. -1.
         -1    1    6    6    0  503  0.29056965767E+03  0.94986291787E+02  0.20992695043E+03  0.37084018944E+03  0.00000000000E+00 0.  1.
<mgrwt>
<rscale>  0 0.13375360E+04</rscale>
<asrwt>0</asrwt>
<pdfrwt beam="1">  1        2 0.15733328E+00 0.13375360E+04</pdfrwt>
<pdfrwt beam="2">  1       -1 0.67282737E-01 0.13375360E+04</pdfrwt>
<totfact> 0.60794032E+01</totfact>
</mgrwt>
</event>
<event>
12    6  0.9533401E-008  0.2725109E+04  0.7818608E-02  0.8326904E-01
         -1   -1    0    0    0  501 -0.00000000000E+00  0.00000000000E+00  0.66870746383E+03  0.66870746383E+03  0.00000000000E+00 0.  1.
          2   -1    0    0  501    0  0.00000000000E+00 -0.00000000000E+00 -0.27763342479E+04  0.27763342479E+04  0.00000000000E+00 0. -1.
         24    2    1    2    0    0  0.83977850529E+03  0.53265964480E+03 -0.18216928409E+04  0.20769444150E+04  0.78607004646E+02 0.  0.
        254    2    1    2    0    0 -0.83977850529E+03 -0.53265964480E+03 -0.28593394314E+03  0.13680972967E+04  0.89497360760E+03 0.  0.
         23    2    4    4    0    0 -0.40500765343E+03 -0.48788910623E+03  0.23507788204E+03  0.68212278417E+03  0.89235098164E+02 0.  0.
         23    2    4    4    0    0 -0.43477085186E+03 -0.44770538570E+02 -0.52101182518E+03  0.68597451255E+03  0.89875553613E+02 0.  0.
          4    1    3    3  502    0  0.21239234470E+03  0.17022800796E+03 -0.46053665979E+03  0.53495990298E+03  0.00000000000E+00 0. -1.
         -3    1    3    3    0  502  0.62738616059E+03  0.36243163684E+03 -0.13611561811E+04  0.15419845120E+04  0.00000000000E+00 0.  1.
         11    1    5    5    0    0 -0.39753133310E+03 -0.48762098837E+03  0.22217590365E+03  0.66720875389E+03  0.00000000000E+00 0.  1.
        -11    1    5    5    0    0 -0.74763203281E+01 -0.26811785566E+00  0.12901978394E+02  0.14914030284E+02  0.00000000000E+00 0. -1.
          2    1    6    6  503    0 -0.12050591200E+03 -0.52680134029E+02 -0.16591925460E+03  0.21172168145E+03  0.00000000000E+00 0. -1.
         -2    1    6    6    0  503 -0.31426493985E+03  0.79095954588E+01 -0.35509257058E+03  0.47425283110E+03  0.00000000000E+00 0.  1.
<mgrwt>
<rscale>  0 0.27251095E+04</rscale>
<asrwt>0</asrwt>
<pdfrwt beam="1">  1        2 0.42712835E+00 0.27251095E+04</pdfrwt>
<pdfrwt beam="2">  1       -1 0.10287807E+00 0.27251095E+04</pdfrwt>
<totfact> 0.21227111E+00</totfact>
</mgrwt>
</event>
<event>
12    6  0.9533401E-008  0.1927352E+04  0.7818608E-02  0.8641360E-01
          2   -1    0    0  501    0  0.00000000000E+00  0.00000000000E+00  0.73158505118E+03  0.73158505118E+03  0.00000000000E+00 0. -1.
         -1   -1    0    0    0  501 -0.00000000000E+00 -0.00000000000E+00 -0.12693957913E+04  0.12693957913E+04  0.00000000000E+00 0.  1.
         24    2    1    2    0    0 -0.69548657548E+02  0.50834695840E+03 -0.78100624353E+03  0.93743269776E+03  0.74536330186E+02 0.  0.
        254    2    1    2    0    0  0.69548657548E+02 -0.50834695840E+03  0.24319550345E+03  0.10635481447E+04  0.89929803585E+03 0.  0.
         23    2    4    4    0    0 -0.10024266164E+03 -0.31564859388E+03  0.55219862103E+03  0.65039652042E+03  0.91704365608E+02 0.  0.
         23    2    4    4    0    0  0.16979131918E+03 -0.19269836452E+03 -0.30900311758E+03  0.41315162427E+03  0.96174769019E+02 0.  0.
          4    1    3    3  502    0 -0.10275457885E+02  0.22082751550E+03 -0.27994809855E+03  0.35670900538E+03  0.00000000000E+00 0. -1.
         -3    1    3    3    0  502 -0.59273199663E+02  0.28751944290E+03 -0.50105814498E+03  0.58072369238E+03  0.00000000000E+00 0.  1.
         11    1    5    5    0    0 -0.88476475186E+02 -0.31000901833E+03  0.48792241754E+03  0.58480933957E+03  0.00000000000E+00 0.  1.
        -11    1    5    5    0    0 -0.11766186451E+02 -0.56395755410E+01  0.64276203497E+02  0.65587180850E+02  0.00000000000E+00 0. -1.
          3    1    6    6  503    0  0.57368638861E+02 -0.13457938756E+03 -0.18630628205E+03  0.23688141128E+03  0.00000000000E+00 0. -1.
         -3    1    6    6    0  503  0.11242268032E+03 -0.58118976965E+02 -0.12269683554E+03  0.17627021298E+03  0.00000000000E+00 0.  1.
<mgrwt>
<rscale>  0 0.19273515E+04</rscale>
<asrwt>0</asrwt>
<pdfrwt beam="1">  1        2 0.11255155E+00 0.19273515E+04</pdfrwt>
<pdfrwt beam="2">  1       -1 0.19529166E+00 0.19273515E+04</pdfrwt>
<totfact> 0.67025036E+00</totfact>
</mgrwt>
</event>
<event>
12    6  0.9533401E-008  0.2016327E+04  0.7818608E-02  0.8599025E-01
         -1   -1    0    0    0  501 -0.00000000000E+00  0.00000000000E+00  0.44367411690E+03  0.44367411690E+03  0.00000000000E+00 0.  1.
          2   -1    0    0  501    0  0.00000000000E+00 -0.00000000000E+00 -0.22908567737E+04  0.22908567737E+04  0.00000000000E+00 0. -1.
         24    2    1    2    0    0 -0.55894028647E+03  0.37236786719E+03 -0.14117134472E+03  0.69095045014E+03  0.80069367621E+02 0.  0.
        254    2    1    2    0    0  0.55894028647E+03 -0.37236786719E+03 -0.17060113121E+04  0.20435804404E+04  0.90259312388E+03 0.  0.
         23    2    4    4    0    0  0.18838768324E+03  0.19613442306E+03 -0.11020459978E+03  0.30721896562E+03  0.90993449881E+02 0.  0.
         23    2    4    4    0    0  0.37055260323E+03 -0.56850229025E+03 -0.15958067123E+04  0.17363614748E+04  0.88589065120E+02 0.  0.
          2    1    3    3  502    0 -0.71568018401E+02  0.18069360060E+02 -0.16949476753E+02  0.75734851904E+02  0.00000000000E+00 0. -1.
         -3    1    3    3    0  502 -0.48737226807E+03  0.35429850713E+03 -0.12422186797E+03  0.61521559824E+03  0.00000000000E+00 0.  1.
         11    1    5    5    0    0  0.96037249487E+02  0.13183614991E+03 -0.10616938314E+03  0.19461721822E+03  0.00000000000E+00 0.  1.
        -11    1    5    5    0    0  0.92350433751E+02  0.64298273146E+02 -0.40352166348E+01  0.11260174740E+03  0.00000000000E+00 0. -1.
          3    1    6    6  503    0  0.12919724472E+03 -0.17951260010E+03 -0.62642868498E+03  0.66432642504E+03  0.00000000000E+00 0. -1.
         -3    1    6    6    0  503  0.24135535850E+03 -0.38898969014E+03 -0.96937802731E+03  0.10720350498E+04  0.00000000000E+00 0.  1.
<mgrwt>
<rscale>  0 0.20163272E+04</rscale>
<asrwt>0</asrwt>
<pdfrwt beam="1">  1        2 0.35243950E+00 0.20163272E+04</pdfrwt>
<pdfrwt beam="2">  1       -1 0.68257558E-01 0.20163272E+04</pdfrwt>
<totfact> 0.10530359E+01</totfact>
</mgrwt>
</event>
<event>
12    6  0.9533401E-008  0.1538226E+04  0.7818608E-02  0.8859424E-01
         -1   -1    0    0    0  501 -0.00000000000E+00  0.00000000000E+00  0.18061124559E+04  0.18061124559E+04  0.00000000000E+00 0.  1.
          2   -1    0    0  501    0  0.00000000000E+00 -0.00000000000E+00 -0.32751811362E+03  0.32751811362E+03  0.00000000000E+00 0. -1.
         24    2    1    2    0    0 -0.42398990309E+03 -0.16248817696E+03  0.18719166860E+03  0.49797590546E+03  0.82276582638E+02 0.  0.
        254    2    1    2    0    0  0.42398990309E+03  0.16248817696E+03  0.12914026737E+04  0.16356546641E+04  0.89525162325E+03 0.  0.
         23    2    4    4    0    0  0.26205066931E+03 -0.12245239208E+03  0.43669100969E+01  0.30446784411E+03  0.94955023986E+02 0.  0.
         23    2    4    4    0    0  0.16193923378E+03  0.28494056904E+03  0.12870357636E+04  0.13311868200E+04  0.90453576884E+02 0.  0.
          2    1    3    3  502    0 -0.29796705620E+03 -0.11578618486E+03  0.17120049391E+03  0.36262986129E+03  0.00000000000E+00 0. -1.
         -1    1    3    3    0  502 -0.12602284689E+03 -0.46701992104E+02  0.15991174696E+02  0.13534604417E+03  0.00000000000E+00 0.  1.
         11    1    5    5    0    0  0.49758375618E+02 -0.61982478858E+02 -0.21180669175E+02  0.82257792191E+02  0.00000000000E+00 0. -1.
        -11    1    5    5    0    0  0.21229229369E+03 -0.60469913220E+02  0.25547579272E+02  0.22221005192E+03  0.00000000000E+00 0.  1.
          2    1    6    6  503    0  0.40925366905E+02  0.39497963533E+02  0.12449418311E+03  0.13687138637E+03  0.00000000000E+00 0. -1.
         -2    1    6    6    0  503  0.12101386687E+03  0.24544260551E+03  0.11625415805E+04  0.11943154336E+04  0.00000000000E+00 0.  1.
<mgrwt>
<rscale>  0 0.15382257E+04</rscale>
<asrwt>0</asrwt>
<pdfrwt beam="1">  1        2 0.50387403E-01 0.15382257E+04</pdfrwt>
<pdfrwt beam="2">  1       -1 0.27786345E+00 0.15382257E+04</pdfrwt>
<totfact> 0.50508405E+00</totfact>
</mgrwt>
</event>
<event>
12    6  0.9533401E-008  0.1898882E+04  0.7818608E-02  0.8655413E-01
          2   -1    0    0  501    0  0.00000000000E+00  0.00000000000E+00  0.22379684516E+04  0.22379684516E+04  0.00000000000E+00 0. -1.
         -1   -1    0    0    0  501 -0.00000000000E+00 -0.00000000000E+00 -0.40279310240E+03  0.40279310240E+03  0.00000000000E+00 0.  1.
         24    2    1    2    0    0  0.33399087760E+03 -0.63463341326E+03  0.92895007917E+03  0.11762616435E+04  0.79584727901E+02 0.  0.
        254    2    1    2    0    0 -0.33399087760E+03  0.63463341326E+03  0.90622527001E+03  0.14644999104E+04  0.89955893200E+03 0.  0.
         23    2    4    4    0    0 -0.26799819990E+03  0.68256290444E+03  0.22514173649E+03  0.77244958002E+03  0.90963720772E+02 0.  0.
         23    2    4    4    0    0 -0.65992677699E+02 -0.47929491181E+02  0.68108353353E+03  0.69205033042E+03  0.91687570404E+02 0.  0.
          2    1    3    3  502    0  0.23960346112E+03 -0.47147732212E+03  0.62644935551E+03  0.81984113027E+03  0.00000000000E+00 0. -1.
         -1    1    3    3    0  502  0.94387416476E+02 -0.16315609114E+03  0.30250072365E+03  0.35642051327E+03  0.00000000000E+00 0.  1.
         11    1    5    5    0    0 -0.46543708204E+02  0.22066844078E+03  0.49117806083E+02  0.23081039059E+03  0.00000000000E+00 0. -1.
        -11    1    5    5    0    0 -0.22145449169E+03  0.46189446366E+03  0.17602393041E+03  0.54163918943E+03  0.00000000000E+00 0.  1.
          4    1    6    6  503    0 -0.13925508503E+02 -0.60075514297E+02  0.48136949823E+03  0.48530359676E+03  0.00000000000E+00 0.  1.
         -4    1    6    6    0  503 -0.52067169197E+02  0.12146023116E+02  0.19971403530E+03  0.20674673366E+03  0.00000000000E+00 0. -1.
<mgrwt>
<rscale>  0 0.18988820E+04</rscale>
<asrwt>0</asrwt>
<pdfrwt beam="1">  1        2 0.34430283E+00 0.18988820E+04</pdfrwt>
<pdfrwt beam="2">  1       -1 0.61968171E-01 0.18988820E+04</pdfrwt>
<totfact> 0.13848826E+01</totfact>
</mgrwt>
</event>
<event>
12    6  0.9533401E-008  0.2319370E+04  0.7818608E-02  0.8470323E-01
         -1   -1    0    0    0  501 -0.00000000000E+00  0.00000000000E+00  0.74944710871E+03  0.74944710871E+03  0.00000000000E+00 0.  1.
          2   -1    0    0  501    0  0.00000000000E+00 -0.00000000000E+00 -0.17944811673E+04  0.17944811673E+04  0.00000000000E+00 0. -1.
         24    2    1    2    0    0 -0.16925186650E+03 -0.28870819852E+03 -0.14591837596E+04  0.14991756822E+04  0.79447238467E+02 0.  0.
        254    2    1    2    0    0  0.16925186650E+03  0.28870819852E+03  0.41414970105E+03  0.10447525937E+04  0.89888229988E+03 0.  0.
         23    2    4    4    0    0  0.35179926801E+02  0.56225955575E+03  0.67705481261E+02  0.57472491660E+03  0.91385241086E+02 0.  0.
         23    2    4    4    0    0  0.13407193969E+03 -0.27355135723E+03  0.34644421979E+03  0.47002767714E+03  0.89982163748E+02 0.  0.
          4    1    3    3  502    0 -0.13070855833E+03 -0.21471111304E+03 -0.12262949948E+04  0.12517927159E+04  0.00000000000E+00 0. -1.
         -3    1    3    3    0  502 -0.38543308164E+02 -0.73997085481E+02 -0.23288876477E+03  0.24738296631E+03  0.00000000000E+00 0.  1.
         11    1    5    5    0    0  0.62526281707E+02  0.40903820172E+03  0.66357699631E+02  0.41907652126E+03  0.00000000000E+00 0.  1.
        -11    1    5    5    0    0 -0.27346354906E+02  0.15322135403E+03  0.13477816297E+01  0.15564839534E+03  0.00000000000E+00 0. -1.
          2    1    6    6  503    0  0.27372369357E+02 -0.10618258943E+02  0.60165704981E+02  0.66947039390E+02  0.00000000000E+00 0. -1.
         -2    1    6    6    0  503  0.10669957034E+03 -0.26293309829E+03  0.28627851481E+03  0.40308063775E+03  0.00000000000E+00 0.  1.
<mgrwt>
<rscale>  0 0.23193695E+04</rscale>
<asrwt>0</asrwt>
<pdfrwt beam="1">  1        2 0.27607402E+00 0.23193695E+04</pdfrwt>
<pdfrwt beam="2">  1       -1 0.11529956E+00 0.23193695E+04</pdfrwt>
<totfact> 0.61082864E+00</totfact>
</mgrwt>
</event>
<event>
12    6  0.9533401E-008  0.1507451E+04  0.7818608E-02  0.8879513E-01
         -1   -1    0    0    0  501 -0.00000000000E+00  0.00000000000E+00  0.25413805419E+04  0.25413805419E+04  0.00000000000E+00 0.  1.
          2   -1    0    0  501    0  0.00000000000E+00 -0.00000000000E+00 -0.22354077015E+03  0.22354077015E+03  0.00000000000E+00 0. -1.
         24    2    1    2    0    0 -0.16417259779E+03 -0.12859089959E+03  0.16836022989E+04  0.16984467350E+04  0.81953336396E+02 0.  0.
        254    2    1    2    0    0  0.16417259779E+03  0.12859089959E+03  0.63423747286E+03  0.10664745771E+04  0.83163849736E+03 0.  0.
         23    2    4    4    0    0 -0.24646293338E+03  0.37036272601E+02 -0.35210469673E+02  0.27057264178E+03  0.99267891533E+02 0.  0.
         23    2    4    4    0    0  0.41063553117E+03  0.91554626985E+02  0.66944794253E+03  0.79590193531E+03  0.91079930241E+02 0.  0.
          4    1    3    3  502    0 -0.42544805375E+02 -0.83657645267E+02  0.76614506712E+03  0.77187235081E+03  0.00000000000E+00 0. -1.
         -3    1    3    3    0  502 -0.12162779242E+03 -0.44933254319E+02  0.91745723181E+03  0.92657438419E+03  0.00000000000E+00 0.  1.
         11    1    5    5    0    0 -0.16621680160E+03  0.63015357599E+02 -0.50624578996E+02  0.18482913306E+03  0.00000000000E+00 0. -1.
        -11    1    5    5    0    0 -0.80246131780E+02 -0.25979084998E+02  0.15414109323E+02  0.85743508729E+02  0.00000000000E+00 0.  1.
          4    1    6    6  503    0  0.13646830440E+03  0.12450747558E+01  0.27626235320E+03  0.30813314673E+03  0.00000000000E+00 0. -1.
         -4    1    6    6    0  503  0.27416722677E+03  0.90309552229E+02  0.39318558933E+03  0.48776878858E+03  0.00000000000E+00 0.  1.
<mgrwt>
<rscale>  0 0.15074510E+04</rscale>
<asrwt>0</asrwt>
<pdfrwt beam="1">  1        2 0.34390889E-01 0.15074510E+04</pdfrwt>
<pdfrwt beam="2">  1       -1 0.39098160E+00 0.15074510E+04</pdfrwt>
<totfact> 0.14010709E+00</totfact>
</mgrwt>
</event>
<event>
12    6  0.9533401E-008  0.1956365E+04  0.7818608E-02  0.8627297E-01
          2   -1    0    0  501    0  0.00000000000E+00  0.00000000000E+00  0.45706308082E+04  0.45706308082E+04  0.00000000000E+00 0. -1.
         -1   -1    0    0    0  501 -0.00000000000E+00 -0.00000000000E+00 -0.20934558355E+03  0.20934558355E+03  0.00000000000E+00 0.  1.
         24    2    1    2    0    0  0.15126060866E+03 -0.63094710685E+03  0.27267073746E+04  0.28039478114E+04  0.78842876681E+02 0.  0.
        254    2    1    2    0    0 -0.15126060866E+03  0.63094710685E+03  0.16345778501E+04  0.19760285804E+04  0.90103838929E+03 0.  0.
         23    2    4    4    0    0  0.80218068330E+02  0.16846805212E+03  0.13745535473E+04  0.13903316662E+04  0.93852355430E+02 0.  0.
         23    2    4    4    0    0 -0.23147867699E+03  0.46247905473E+03  0.26002430279E+03  0.58569691413E+03  0.89213133648E+02 0.  0.
          4    1    3    3  502    0  0.97257008677E+02 -0.48586271186E+03  0.19505859541E+04  0.20125374692E+04  0.00000000000E+00 0. -1.
         -3    1    3    3    0  502  0.54003599983E+02 -0.14508439499E+03  0.77612142044E+03  0.79141034220E+03  0.00000000000E+00 0.  1.
         11    1    5    5    0    0  0.15095589887E+02  0.44195714838E+02  0.13472991188E+03  0.14259483581E+03  0.00000000000E+00 0. -1.
        -11    1    5    5    0    0  0.65122478443E+02  0.12427233728E+03  0.12398236354E+04  0.12477368304E+04  0.00000000000E+00 0.  1.
          1    1    6    6  503    0 -0.12845546323E+03  0.16630786140E+03  0.85913677987E+02  0.22702482433E+03  0.00000000000E+00 0. -1.
         -1    1    6    6    0  503 -0.10302321376E+03  0.29617119333E+03  0.17411062480E+03  0.35867208980E+03  0.00000000000E+00 0.  1.
<mgrwt>
<rscale>  0 0.19563654E+04</rscale>
<asrwt>0</asrwt>
<pdfrwt beam="1">  1        2 0.70317390E+00 0.19563654E+04</pdfrwt>
<pdfrwt beam="2">  1       -1 0.32207016E-01 0.19563654E+04</pdfrwt>
<totfact> 0.10191657E+00</totfact>
</mgrwt>
</event>
<event>
12    6  0.9533401E-008  0.2045754E+04  0.7818608E-02  0.8585523E-01
          2   -1    0    0  501    0  0.00000000000E+00  0.00000000000E+00  0.33959212601E+04  0.33959212601E+04  0.00000000000E+00 0. -1.
         -3   -1    0    0    0  501 -0.00000000000E+00 -0.00000000000E+00 -0.30809823042E+03  0.30809823042E+03  0.00000000000E+00 0.  1.
         24    2    1    2    0    0  0.69797012383E+03 -0.15308548491E+03  0.53133808206E+03  0.89384852700E+03  0.77766138739E+02 0.  0.
        254    2    1    2    0    0 -0.69797012383E+03  0.15308548491E+03  0.25564849476E+04  0.28101709635E+04  0.92241427642E+03 0.  0.
         23    2    4    4    0    0 -0.58670330480E+03 -0.10152442686E+03  0.24087004945E+04  0.24828702070E+04  0.90985798651E+02 0.  0.
         23    2    4    4    0    0 -0.11126681903E+03  0.25460991177E+03  0.14778445307E+03  0.32730075646E+03  0.89883415697E+02 0.  0.
          2    1    3    3  502    0  0.22445514697E+03 -0.47465122940E+02  0.12656234252E+03  0.26201350622E+03  0.00000000000E+00 0. -1.
         -1    1    3    3    0  502  0.47351497686E+03 -0.10562036197E+03  0.40477573953E+03  0.63183502078E+03  0.00000000000E+00 0.  1.
         11    1    5    5    0    0 -0.45182407992E+02  0.11738565546E+02  0.25562080239E+03  0.25984849148E+03  0.00000000000E+00 0. -1.
        -11    1    5    5    0    0 -0.54152089681E+03 -0.11326299241E+03  0.21530796921E+04  0.22230217155E+04  0.00000000000E+00 0.  1.
          1    1    6    6  503    0 -0.13643382835E+02  0.19493498777E+02  0.48547070874E+02  0.54064373484E+02  0.00000000000E+00 0. -1.
         -1    1    6    6    0  503 -0.97623436193E+02  0.23511641300E+03  0.99237382195E+02  0.27323638297E+03  0.00000000000E+00 0.  1.
<mgrwt>
<rscale>  0 0.20457540E+04</rscale>
<asrwt>0</asrwt>
<pdfrwt beam="1">  1        2 0.52244940E+00 0.20457540E+04</pdfrwt>
<pdfrwt beam="2">  1       -3 0.47399730E-01 0.20457540E+04</pdfrwt>
<totfact> 0.25518183E+00</totfact>
</mgrwt>
</event>
<event>
12    6  0.9533401E-008  0.1303594E+04  0.7818608E-02  0.9026720E-01
          2   -1    0    0  501    0  0.00000000000E+00  0.00000000000E+00  0.14480970869E+04  0.14480970869E+04  0.00000000000E+00 0. -1.
         -1   -1    0    0    0  501 -0.00000000000E+00 -0.00000000000E+00 -0.29337767814E+03  0.29337767814E+03  0.00000000000E+00 0.  1.
         24    2    1    2    0    0  0.11949905549E+03  0.68181355174E+02  0.66761318566E+03  0.68652467256E+03  0.81731505053E+02 0.  0.
        254    2    1    2    0    0 -0.11949905549E+03 -0.68181355174E+02  0.48710622311E+03  0.10549500925E+04  0.92559089428E+03 0.  0.
         23    2    4    4    0    0 -0.25567863335E+03  0.29592174507E+03 -0.29833363840E+02  0.40298405737E+03  0.92546626820E+02 0.  0.
         23    2    4    4    0    0  0.13617957786E+03 -0.36410310025E+03  0.51693958695E+03  0.65196603511E+03  0.81958705117E+02 0.  0.
          4    1    3    3  502    0  0.10979842728E+03  0.86062496028E+02  0.57134484007E+03  0.58813040571E+03  0.00000000000E+00 0. -1.
         -3    1    3    3    0  502  0.97006282135E+01 -0.17881140854E+02  0.96268345590E+02  0.98394266848E+02  0.00000000000E+00 0.  1.
         11    1    5    5    0    0 -0.11355745816E+03  0.16610499367E+03 -0.55672432659E+02  0.20877160962E+03  0.00000000000E+00 0.  1.
        -11    1    5    5    0    0 -0.14212117519E+03  0.12981675140E+03  0.25839068819E+02  0.19421244774E+03  0.00000000000E+00 0. -1.
          3    1    6    6  503    0  0.92914580137E+02 -0.14091366545E+03  0.19598164034E+03  0.25864760517E+03  0.00000000000E+00 0. -1.
         -3    1    6    6    0  503  0.43264997718E+02 -0.22318943480E+03  0.32095794661E+03  0.39331842994E+03  0.00000000000E+00 0.  1.
<mgrwt>
<rscale>  0 0.13035940E+04</rscale>
<asrwt>0</asrwt>
<pdfrwt beam="1">  1        2 0.22278416E+00 0.13035940E+04</pdfrwt>
<pdfrwt beam="2">  1       -1 0.45135028E-01 0.13035940E+04</pdfrwt>
<totfact> 0.73852129E+01</totfact>
</mgrwt>
</event>
<event>
12    6  0.9533401E-008  0.2135982E+04  0.7818608E-02  0.8545557E-01
          2   -1    0    0  501    0  0.00000000000E+00  0.00000000000E+00  0.72625137849E+03  0.72625137849E+03  0.00000000000E+00 0. -1.
         -1   -1    0    0    0  501 -0.00000000000E+00 -0.00000000000E+00 -0.15705365008E+04  0.15705365008E+04  0.00000000000E+00 0.  1.
         24    2    1    2    0    0 -0.66042626401E+03  0.54177248044E+03 -0.14976428155E+03  0.87078531659E+03  0.78469464076E+02 0.  0.
        254    2    1    2    0    0  0.66042626401E+03 -0.54177248044E+03 -0.69452084073E+03  0.14260025627E+04  0.90633539035E+03 0.  0.
         23    2    4    4    0    0  0.31927753057E+02 -0.46494526037E+03 -0.62120311958E+03  0.78189330284E+03  0.90941435531E+02 0.  0.
         23    2    4    4    0    0  0.62849851096E+03 -0.76827220077E+02 -0.73317721147E+02  0.64410925984E+03  0.92673892544E+02 0.  0.
          2    1    3    3  502    0 -0.50285655416E+03  0.42704331225E+03 -0.14677164440E+03  0.67584955441E+03  0.00000000000E+00 0. -1.
         -1    1    3    3    0  502 -0.15756970985E+03  0.11472916820E+03 -0.29926371459E+01  0.19493576218E+03  0.00000000000E+00 0.  1.
         11    1    5    5    0    0 -0.19016278953E+02 -0.14544195266E+03 -0.24647643281E+03  0.28681982566E+03  0.00000000000E+00 0. -1.
        -11    1    5    5    0    0  0.50944032010E+02 -0.31950330770E+03 -0.37472668677E+03  0.49507347718E+03  0.00000000000E+00 0.  1.
          4    1    6    6  503    0  0.37707562046E+03 -0.87517098743E+02 -0.25344336549E+02  0.38792731473E+03  0.00000000000E+00 0. -1.
         -4    1    6    6    0  503  0.25142289050E+03  0.10689878666E+02 -0.47973384598E+02  0.25618194511E+03  0.00000000000E+00 0.  1.
<mgrwt>
<rscale>  0 0.21359816E+04</rscale>
<asrwt>0</asrwt>
<pdfrwt beam="1">  1        2 0.11173098E+00 0.21359816E+04</pdfrwt>
<pdfrwt beam="2">  1       -1 0.24162100E+00 0.21359816E+04</pdfrwt>
<totfact> 0.32428232E+00</totfact>
</mgrwt>
</event>
<event>
12    6  0.9533401E-008  0.1249422E+04  0.7818608E-02  0.9070665E-01
          2   -1    0    0  501    0  0.00000000000E+00  0.00000000000E+00  0.14008398705E+04  0.14008398705E+04  0.00000000000E+00 0. -1.
         -1   -1    0    0    0  501 -0.00000000000E+00 -0.00000000000E+00 -0.27859264292E+03  0.27859264292E+03  0.00000000000E+00 0.  1.
         24    2    1    2    0    0 -0.28096056117E+03  0.89726525279E+02  0.34385707763E+03  0.45963802874E+03  0.77715772870E+02 0.  0.
        254    2    1    2    0    0  0.28096056117E+03 -0.89726525279E+02  0.77839014991E+03  0.12197944846E+04  0.89163763549E+03 0.  0.
         23    2    4    4    0    0 -0.54753638732E+02  0.41175458242E+02  0.83592483056E+03  0.84351032501E+03  0.89699312978E+02 0.  0.
         23    2    4    4    0    0  0.33571419990E+03 -0.13090198352E+03 -0.57534680645E+02  0.37628415963E+03  0.91870430527E+02 0.  0.
          2    1    3    3  502    0 -0.26991060641E+03  0.67297352255E+02  0.29976193541E+03  0.40894729122E+03  0.00000000000E+00 0. -1.
         -1    1    3    3    0  502 -0.11049954758E+02  0.22429173024E+02  0.44095142221E+02  0.50690737518E+02  0.00000000000E+00 0.  1.
         11    1    5    5    0    0  0.16475468369E+02  0.17275718321E+02  0.43189541095E+03  0.43255466418E+03  0.00000000000E+00 0. -1.
        -11    1    5    5    0    0 -0.71229107101E+02  0.23899739921E+02  0.40402941960E+03  0.41095566083E+03  0.00000000000E+00 0.  1.
          3    1    6    6  503    0  0.26771082700E+03 -0.83379713071E+02 -0.77589273809E+02  0.29093188010E+03  0.00000000000E+00 0. -1.
         -3    1    6    6    0  503  0.68003372899E+02 -0.47522270450E+02  0.20054593164E+02  0.85352279532E+02  0.00000000000E+00 0.  1.
<mgrwt>
<rscale>  0 0.12494218E+04</rscale>
<asrwt>0</asrwt>
<pdfrwt beam="1">  1        2 0.21551382E+00 0.12494218E+04</pdfrwt>
<pdfrwt beam="2">  1       -1 0.42860407E-01 0.12494218E+04</pdfrwt>
<totfact> 0.86844151E+01</totfact>
</mgrwt>
</event>
<event>
12    6  0.9533401E-008  0.1812737E+04  0.7818608E-02  0.8699555E-01
         -1   -1    0    0    0  501 -0.00000000000E+00  0.00000000000E+00  0.19851938404E+03  0.19851938404E+03  0.00000000000E+00 0.  1.
          2   -1    0    0  501    0  0.00000000000E+00 -0.00000000000E+00 -0.41381552688E+04  0.41381552688E+04  0.00000000000E+00 0. -1.
         24    2    1    2    0    0 -0.61528120019E+03  0.15300954995E+03 -0.20755888197E+04  0.21717305218E+04  0.79759846716E+02 0.  0.
        254    2    1    2    0    0  0.61528120019E+03 -0.15300954995E+03 -0.18640470650E+04  0.21649441310E+04  0.90018262150E+03 0.  0.
         23    2    4    4    0    0  0.77782415148E+03  0.65790695581E+02 -0.11305596925E+04  0.13768381501E+04  0.90439188381E+02 0.  0.
         23    2    4    4    0    0 -0.16254295130E+03 -0.21880024553E+03 -0.73348737248E+03  0.78810598095E+03  0.93880525952E+02 0.  0.
          2    1    3    3  502    0 -0.11909655677E+03  0.43252374590E+02 -0.32336484586E+03  0.34730329869E+03  0.00000000000E+00 0. -1.
         -1    1    3    3    0  502 -0.49618464341E+03  0.10975717536E+03 -0.17522239739E+04  0.18244272231E+04  0.00000000000E+00 0.  1.
         11    1    5    5    0    0  0.74097649888E+03  0.72476405792E+02 -0.10416620902E+04  0.12803745200E+04  0.00000000000E+00 0. -1.
        -11    1    5    5    0    0  0.36847652604E+02 -0.66857102100E+01 -0.88897602314E+02  0.96463630041E+02  0.00000000000E+00 0.  1.
          4    1    6    6  503    0 -0.13468876732E+03 -0.11249988197E+03 -0.50367512030E+03  0.53337220990E+03  0.00000000000E+00 0. -1.
         -4    1    6    6    0  503 -0.27854183979E+02 -0.10630036356E+03 -0.22981225218E+03  0.25473377104E+03  0.00000000000E+00 0.  1.
<mgrwt>
<rscale>  0 0.18127372E+04</rscale>
<asrwt>0</asrwt>
<pdfrwt beam="1">  1        2 0.63663926E+00 0.18127372E+04</pdfrwt>
<pdfrwt beam="2">  1       -1 0.30541444E-01 0.18127372E+04</pdfrwt>
<totfact> 0.28356207E+00</totfact>
</mgrwt>
</event>
<event>
12    6  0.9533401E-008  0.4050746E+04  0.7818608E-02  0.7994387E-01
         -1   -1    0    0    0  501 -0.00000000000E+00  0.00000000000E+00  0.22148708819E+04  0.22148708819E+04  0.00000000000E+00 0.  1.
          2   -1    0    0  501    0  0.00000000000E+00 -0.00000000000E+00 -0.18520882047E+04  0.18520882047E+04  0.00000000000E+00 0. -1.
         24    2    1    2    0    0  0.15476665563E+04 -0.11240220956E+04 -0.40640707638E+02  0.19148517399E+04  0.79423408547E+02 0.  0.
        254    2    1    2    0    0 -0.15476665563E+04  0.11240220956E+04  0.40342338486E+03  0.21521073467E+04  0.90006564395E+03 0.  0.
         23    2    4    4    0    0 -0.29410046639E+03 -0.10933080274E+03  0.18947851427E+03  0.37809339869E+03  0.92758837871E+02 0.  0.
         23    2    4    4    0    0 -0.12535660899E+04  0.12333528983E+04  0.21394487059E+03  0.17740139480E+04  0.93625672221E+02 0.  0.
          2    1    3    3  502    0  0.13023697281E+04 -0.97545417612E+03 -0.49714166971E+02  0.16279279028E+04  0.00000000000E+00 0. -1.
         -1    1    3    3    0  502  0.24529682824E+03 -0.14856791947E+03  0.90734593328E+01  0.28692383712E+03  0.00000000000E+00 0.  1.
         11    1    5    5    0    0 -0.23676765938E+03 -0.95956471568E+02  0.19135462522E+03  0.31919141836E+03  0.00000000000E+00 0. -1.
        -11    1    5    5    0    0 -0.57332807010E+02 -0.13374331176E+02 -0.18761109493E+01  0.58901980326E+02  0.00000000000E+00 0.  1.
          3    1    6    6  503    0 -0.10808060962E+04  0.10815847742E+04  0.15676935952E+03  0.15370569519E+04  0.00000000000E+00 0. -1.
         -3    1    6    6    0  503 -0.17275999375E+03  0.15176812409E+03  0.57175511073E+02  0.23695699609E+03  0.00000000000E+00 0.  1.
<mgrwt>
<rscale>  0 0.40507462E+04</rscale>
<asrwt>0</asrwt>
<pdfrwt beam="1">  1        2 0.28493665E+00 0.40507462E+04</pdfrwt>
<pdfrwt beam="2">  1       -1 0.34074936E+00 0.40507462E+04</pdfrwt>
<totfact> 0.12910703E-01</totfact>
</mgrwt>
</event>
<event>
12    6  0.9533401E-008  0.1417444E+04  0.7818608E-02  0.8941287E-01
         -1   -1    0    0    0  501 -0.00000000000E+00  0.00000000000E+00  0.52685356181E+03  0.52685356181E+03  0.00000000000E+00 0.  1.
          2   -1    0    0  501    0  0.00000000000E+00 -0.00000000000E+00 -0.95337123512E+03  0.95337123512E+03  0.00000000000E+00 0. -1.
         24    2    1    2    0    0 -0.37598039637E+03 -0.12463533372E+03 -0.92330402226E+02  0.41436875247E+03  0.79254873515E+02 0.  0.
        254    2    1    2    0    0  0.37598039637E+03  0.12463533372E+03 -0.33418727108E+03  0.10658560445E+04  0.93138217210E+03 0.  0.
         23    2    4    4    0    0  0.22377575932E+03 -0.14271947733E+03 -0.59215492692E+03  0.65382730189E+03  0.79989021462E+02 0.  0.
         23    2    4    4    0    0  0.15220463705E+03  0.26735481105E+03  0.25796765584E+03  0.41202874257E+03  0.92604139815E+02 0.  0.
          2    1    3    3  502    0 -0.33508770619E+03 -0.88989049535E+02 -0.96726136500E+02  0.35994272775E+03  0.00000000000E+00 0. -1.
         -1    1    3    3    0  502 -0.40892690185E+02 -0.35646284187E+02  0.43957342740E+01  0.54426024719E+02  0.00000000000E+00 0.  1.
         11    1    5    5    0    0  0.97826327349E+02 -0.40792119175E+02 -0.31995983775E+03  0.33705828143E+03  0.00000000000E+00 0. -1.
        -11    1    5    5    0    0  0.12594943197E+03 -0.10192735815E+03 -0.27219508917E+03  0.31676902046E+03  0.00000000000E+00 0.  1.
          1    1    6    6  503    0  0.13569789348E+03  0.15413950744E+03  0.18443779880E+03  0.27602573734E+03  0.00000000000E+00 0. -1.
         -1    1    6    6    0  503  0.16506743577E+02  0.11321530361E+03  0.73529857047E+02  0.13600300523E+03  0.00000000000E+00 0.  1.
<mgrwt>
<rscale>  0 0.14174442E+04</rscale>
<asrwt>0</asrwt>
<pdfrwt beam="1">  1        2 0.14667250E+00 0.14174442E+04</pdfrwt>
<pdfrwt beam="2">  1       -1 0.81054394E-01 0.14174442E+04</pdfrwt>
<totfact> 0.45460057E+01</totfact>
</mgrwt>
</event>
<event>
12    6  0.9533401E-008  0.1518901E+04  0.7818608E-02  0.8871981E-01
          2   -1    0    0  501    0  0.00000000000E+00  0.00000000000E+00  0.51670853353E+03  0.51670853353E+03  0.00000000000E+00 0. -1.
         -1   -1    0    0    0  501 -0.00000000000E+00 -0.00000000000E+00 -0.11162284691E+04  0.11162284691E+04  0.00000000000E+00 0.  1.
         24    2    1    2    0    0  0.69608712391E+02  0.20979151804E+03 -0.68941319479E+03  0.72835409543E+03  0.79694926415E+02 0.  0.
        254    2    1    2    0    0 -0.69608712391E+02 -0.20979151804E+03  0.89893259235E+02  0.90458290718E+03  0.87254317029E+03 0.  0.
         23    2    4    4    0    0 -0.26759535624E+03  0.21569873330E+03 -0.12952444017E+03  0.37864866712E+03  0.92005512223E+02 0.  0.
         23    2    4    4    0    0  0.19798664385E+03 -0.42549025134E+03  0.21941769941E+03  0.52593424006E+03  0.90675426235E+02 0.  0.
          2    1    3    3  502    0  0.16939918123E+02  0.21489839848E+01 -0.94905015448E+02  0.96428942312E+02  0.00000000000E+00 0. -1.
         -1    1    3    3    0  502  0.52668794268E+02  0.20764253406E+03 -0.59450817934E+03  0.63192515312E+03  0.00000000000E+00 0.  1.
         11    1    5    5    0    0 -0.16470968268E+02  0.53112334524E+02 -0.31090326870E+02  0.63708879280E+02  0.00000000000E+00 0.  1.
        -11    1    5    5    0    0 -0.25112438797E+03  0.16258639878E+03 -0.98434113301E+02  0.31493978784E+03  0.00000000000E+00 0. -1.
          3    1    6    6  503    0  0.18966661727E+03 -0.40792342555E+03  0.22840069755E+03  0.50452138256E+03  0.00000000000E+00 0. -1.
         -3    1    6    6    0  503  0.83200265753E+01 -0.17566825791E+02 -0.89829981408E+01  0.21412857497E+02  0.00000000000E+00 0.  1.
<mgrwt>
<rscale>  0 0.15189006E+04</rscale>
<asrwt>0</asrwt>
<pdfrwt beam="1">  1        2 0.79493621E-01 0.15189006E+04</pdfrwt>
<pdfrwt beam="2">  1       -1 0.17172746E+00 0.15189006E+04</pdfrwt>
<totfact> 0.15618007E+01</totfact>
</mgrwt>
</event>
<event>
12    6  0.9533401E-008  0.2305867E+04  0.7818608E-02  0.8475611E-01
         -1   -1    0    0    0  501 -0.00000000000E+00  0.00000000000E+00  0.10830242179E+04  0.10830242179E+04  0.00000000000E+00 0.  1.
          2   -1    0    0  501    0  0.00000000000E+00 -0.00000000000E+00 -0.12273559080E+04  0.12273559080E+04  0.00000000000E+00 0. -1.
         24    2    1    2    0    0 -0.55260648899E+03  0.54260027847E+03 -0.65473229190E+03  0.10172002855E+04  0.78949685479E+02 0.  0.
        254    2    1    2    0    0  0.55260648899E+03 -0.54260027847E+03  0.51040060180E+03  0.12931798405E+04  0.90111948803E+03 0.  0.
         23    2    4    4    0    0 -0.17437416651E+03 -0.23094882654E+03  0.37856113152E+03  0.48532385050E+03  0.92124910523E+02 0.  0.
         23    2    4    4    0    0  0.72698065550E+03 -0.31165145193E+03  0.13183947028E+03  0.80785599001E+03  0.98092577191E+02 0.  0.
          4    1    3    3  502    0 -0.44418825802E+03  0.44809834817E+03 -0.49258985362E+03  0.80046243015E+03  0.00000000000E+00 0. -1.
         -3    1    3    3    0  502 -0.10841823097E+03  0.94501930302E+02 -0.16214243828E+03  0.21673785532E+03  0.00000000000E+00 0.  1.
         11    1    5    5    0    0 -0.92318075277E+02 -0.89711120321E+02  0.23459053589E+03  0.26758817549E+03  0.00000000000E+00 0.  1.
        -11    1    5    5    0    0 -0.82056091237E+02 -0.14123770622E+03  0.14397059563E+03  0.21773567501E+03  0.00000000000E+00 0. -1.
          1    1    6    6  503    0  0.62983976573E+03 -0.27763273136E+03  0.14695120246E+03  0.70382719465E+03  0.00000000000E+00 0. -1.
         -1    1    6    6    0  503  0.97140889770E+02 -0.34018720570E+02 -0.15111732177E+02  0.10402879536E+03  0.00000000000E+00 0.  1.
<mgrwt>
<rscale>  0 0.23058674E+04</rscale>
<asrwt>0</asrwt>
<pdfrwt beam="1">  1        2 0.18882399E+00 0.23058674E+04</pdfrwt>
<pdfrwt beam="2">  1       -1 0.16661911E+00 0.23058674E+04</pdfrwt>
<totfact> 0.49114005E+00</totfact>
</mgrwt>
</event>
<event>
12    6  0.9533401E-008  0.1799460E+04  0.7818608E-02  0.8706587E-01
          2   -1    0    0  501    0  0.00000000000E+00  0.00000000000E+00  0.96936085696E+03  0.96936085696E+03  0.00000000000E+00 0. -1.
         -1   -1    0    0    0  501 -0.00000000000E+00 -0.00000000000E+00 -0.83510044167E+03  0.83510044167E+03  0.00000000000E+00 0.  1.
         24    2    1    2    0    0 -0.43525335282E+03 -0.36486583075E+03 -0.30494566203E+03  0.64951799133E+03  0.79430527371E+02 0.  0.
        254    2    1    2    0    0  0.43525335282E+03  0.36486583075E+03  0.43920607731E+03  0.11549433073E+04  0.90466541282E+03 0.  0.
         23    2    4    4    0    0 -0.38330595886E+02  0.18169681773E+02  0.54217137384E+03  0.55203648805E+03  0.94842572736E+02 0.  0.
         23    2    4    4    0    0  0.47358394871E+03  0.34669614898E+03 -0.10296529653E+03  0.60290681926E+03  0.91732242064E+02 0.  0.
          2    1    3    3  502    0 -0.20631789960E+02 -0.30794451939E+02 -0.24906996759E+01  0.37150674450E+02  0.00000000000E+00 0. -1.
         -1    1    3    3    0  502 -0.41462156286E+03 -0.33407137881E+03 -0.30245496235E+03  0.61236731688E+03  0.00000000000E+00 0.  1.
         11    1    5    5    0    0  0.10719221758E+02 -0.30470426914E+02  0.23393965162E+03  0.23615907612E+03  0.00000000000E+00 0. -1.
        -11    1    5    5    0    0 -0.49049817644E+02  0.48640108687E+02  0.30823172222E+03  0.31587741193E+03  0.00000000000E+00 0.  1.
          2    1    6    6  503    0  0.65810466246E+02  0.86998952302E+02 -0.24148130489E+01  0.10911309038E+03  0.00000000000E+00 0. -1.
         -2    1    6    6    0  503  0.40777348246E+03  0.25969719668E+03 -0.10055048348E+03  0.49379372889E+03  0.00000000000E+00 0.  1.
<mgrwt>
<rscale>  0 0.17994596E+04</rscale>
<asrwt>0</asrwt>
<pdfrwt beam="1">  1        2 0.14913244E+00 0.17994596E+04</pdfrwt>
<pdfrwt beam="2">  1       -1 0.12847699E+00 0.17994596E+04</pdfrwt>
<totfact> 0.14840868E+01</totfact>
</mgrwt>
</event>
<event>
12    6  0.9533401E-008  0.1435504E+04  0.7818608E-02  0.8928512E-01
         -1   -1    0    0    0  501 -0.00000000000E+00  0.00000000000E+00  0.34863079455E+03  0.34863079455E+03  0.00000000000E+00 0.  1.
          2   -1    0    0  501    0  0.00000000000E+00 -0.00000000000E+00 -0.14776889914E+04  0.14776889914E+04  0.00000000000E+00 0. -1.
         24    2    1    2    0    0  0.36359375687E+03  0.14164410763E+03 -0.56521109673E+03  0.69139124156E+03  0.79339723791E+02 0.  0.
        254    2    1    2    0    0 -0.36359375687E+03 -0.14164410763E+03 -0.56384710010E+03  0.11349285444E+04  0.90436484635E+03 0.  0.
         23    2    4    4    0    0  0.12168329086E+03  0.84297453474E+02  0.15624897358E+03  0.23346127916E+03  0.90429769368E+02 0.  0.
         23    2    4    4    0    0 -0.48527704773E+03 -0.22594156110E+03 -0.72009607368E+03  0.90146726522E+03  0.86956729791E+02 0.  0.
          4    1    3    3  502    0  0.98878834367E+02  0.47064259053E+02 -0.10255584584E+03  0.15003256274E+03  0.00000000000E+00 0. -1.
         -3    1    3    3    0  502  0.26471492250E+03  0.94579848574E+02 -0.46265525090E+03  0.54135867882E+03  0.00000000000E+00 0.  1.
         11    1    5    5    0    0  0.10934435793E+03  0.34182509828E+02  0.74079225049E+02  0.13642713870E+03  0.00000000000E+00 0. -1.
        -11    1    5    5    0    0  0.12338932927E+02  0.50114943646E+02  0.82169748528E+02  0.97034140464E+02  0.00000000000E+00 0.  1.
          1    1    6    6  503    0 -0.48253415513E+03 -0.23210147289E+03 -0.71308066336E+03  0.89173669715E+03  0.00000000000E+00 0. -1.
         -1    1    6    6    0  503 -0.27428925968E+01  0.61599117910E+01 -0.70154103215E+01  0.97305680744E+01  0.00000000000E+00 0.  1.
<mgrwt>
<rscale>  0 0.14355039E+04</rscale>
<asrwt>0</asrwt>
<pdfrwt beam="1">  1        2 0.22733677E+00 0.14355039E+04</pdfrwt>
<pdfrwt beam="2">  1       -1 0.53635505E-01 0.14355039E+04</pdfrwt>
<totfact> 0.50707923E+01</totfact>
</mgrwt>
</event>
<event>
12    6  0.9533401E-008  0.1742245E+04  0.7818608E-02  0.8737631E-01
          2   -1    0    0  501    0  0.00000000000E+00  0.00000000000E+00  0.10907014377E+04  0.10907014377E+04  0.00000000000E+00 0. -1.
         -1   -1    0    0    0  501 -0.00000000000E+00 -0.00000000000E+00 -0.69574879199E+03  0.69574879199E+03  0.00000000000E+00 0.  1.
         24    2    1    2    0    0  0.57487325305E+03 -0.25767204481E+03  0.19729222459E+03  0.66474066060E+03  0.77985795009E+02 0.  0.
        254    2    1    2    0    0 -0.57487325305E+03  0.25767204481E+03  0.19766042114E+03  0.11217095691E+04  0.90680128783E+03 0.  0.
         23    2    4    4    0    0  0.12547396509E+03  0.32526942644E+03  0.19598704264E+03  0.41197688420E+03  0.98843899901E+02 0.  0.
         23    2    4    4    0    0 -0.70034721814E+03 -0.67597381627E+02  0.16733785066E+01  0.70973268491E+03  0.93070144940E+02 0.  0.
          2    1    3    3  502    0  0.22049299483E+03 -0.11589841883E+03  0.41724791944E+02  0.25256793644E+03  0.00000000000E+00 0. -1.
         -1    1    3    3    0  502  0.35438025821E+03 -0.14177362598E+03  0.15556743265E+03  0.41217272415E+03  0.00000000000E+00 0.  1.
         11    1    5    5    0    0  0.90962467819E+02  0.23018899575E+03  0.18742285883E+03  0.31046492930E+03  0.00000000000E+00 0. -1.
        -11    1    5    5    0    0  0.34511497271E+02  0.95080430688E+02  0.85641838085E+01  0.10151195490E+03  0.00000000000E+00 0.  1.
          3    1    6    6  503    0 -0.14450485897E+03 -0.30276349808E+02  0.34683567210E+02  0.15166166773E+03  0.00000000000E+00 0. -1.
         -3    1    6    6    0  503 -0.55584235917E+03 -0.37321031819E+02 -0.33010188704E+02  0.55807101718E+03  0.00000000000E+00 0.  1.
<mgrwt>
<rscale>  0 0.17422448E+04</rscale>
<asrwt>0</asrwt>
<pdfrwt beam="1">  1        2 0.16780022E+00 0.17422448E+04</pdfrwt>
<pdfrwt beam="2">  1       -1 0.10703828E+00 0.17422448E+04</pdfrwt>
<totfact> 0.19440267E+01</totfact>
</mgrwt>
</event>
<event>
12    6  0.9533401E-008  0.2641375E+04  0.7818608E-02  0.8354281E-01
         -3   -1    0    0    0  501 -0.00000000000E+00  0.00000000000E+00  0.72578776268E+03  0.72578776268E+03  0.00000000000E+00 0.  1.
          2   -1    0    0  501    0  0.00000000000E+00 -0.00000000000E+00 -0.24032035513E+04  0.24032035513E+04  0.00000000000E+00 0. -1.
         24    2    1    2    0    0 -0.72597120630E+03  0.78934738402E+03 -0.12817060253E+04  0.16732360783E+04  0.82735441422E+02 0.  0.
        254    2    1    2    0    0  0.72597120630E+03 -0.78934738402E+03 -0.39570976332E+03  0.14557552357E+04  0.90140645911E+03 0.  0.
         23    2    4    4    0    0  0.13553571511E+03 -0.78360501278E+03 -0.27352193475E+03  0.84586718900E+03  0.90941225564E+02 0.  0.
         23    2    4    4    0    0  0.59043549119E+03 -0.57423712416E+01 -0.12218782857E+03  0.60988804673E+03  0.91577945009E+02 0.  0.
          2    1    3    3  502    0 -0.65629282494E+03  0.72695834509E+03 -0.11336806818E+04  0.14981390442E+04  0.00000000000E+00 0. -1.
         -1    1    3    3    0  502 -0.69678381356E+02  0.62389038931E+02 -0.14802534350E+03  0.17509703403E+03  0.00000000000E+00 0.  1.
         11    1    5    5    0    0 -0.53054201991E+01 -0.99705968793E+02 -0.13419499327E+02  0.10074477981E+03  0.00000000000E+00 0.  1.
        -11    1    5    5    0    0  0.14084113531E+03 -0.68389904399E+03 -0.26010243542E+03  0.74512240919E+03  0.00000000000E+00 0. -1.
          3    1    6    6  503    0  0.22295394385E+03 -0.26942056438E+02 -0.84195705390E+02  0.23984005564E+03  0.00000000000E+00 0.  1.
         -3    1    6    6    0  503  0.36748154734E+03  0.21199685197E+02 -0.37992123184E+02  0.37004799109E+03  0.00000000000E+00 0. -1.
<mgrwt>
<rscale>  0 0.26413752E+04</rscale>
<asrwt>0</asrwt>
<pdfrwt beam="1">  1        2 0.36972363E+00 0.26413752E+04</pdfrwt>
<pdfrwt beam="2">  1       -3 0.11165965E+00 0.26413752E+04</pdfrwt>
<totfact> 0.14977338E+00</totfact>
</mgrwt>
</event>
<event>
12    6  0.9533401E-008  0.2916567E+04  0.7818608E-02  0.8267965E-01
          2   -1    0    0  501    0  0.00000000000E+00  0.00000000000E+00  0.13715756383E+04  0.13715756383E+04  0.00000000000E+00 0. -1.
         -1   -1    0    0    0  501 -0.00000000000E+00 -0.00000000000E+00 -0.15504730743E+04  0.15504730743E+04  0.00000000000E+00 0.  1.
         24    2    1    2    0    0  0.98260424944E+03 -0.45671798958E+03  0.61629115567E+03  0.12488522833E+04  0.75596322653E+02 0.  0.
        254    2    1    2    0    0 -0.98260424944E+03  0.45671798958E+03 -0.79518859169E+03  0.16731964292E+04  0.99657361062E+03 0.  0.
         23    2    4    4    0    0  0.97439465514E+02  0.35679369660E+03 -0.17279677574E+03  0.41943575280E+03  0.96288284028E+02 0.  0.
         23    2    4    4    0    0 -0.10800437150E+04  0.99924292979E+02 -0.62239181595E+03  0.12537606764E+04  0.89805181692E+02 0.  0.
          4    1    3    3  502    0  0.89419451663E+03 -0.42843926450E+03  0.58305219447E+03  0.11502581877E+04  0.00000000000E+00 0. -1.
         -3    1    3    3    0  502  0.88409732814E+02 -0.28278725089E+02  0.33238961192E+02  0.98594095615E+02  0.00000000000E+00 0.  1.
         11    1    5    5    0    0  0.11589898874E+03  0.30951837492E+03 -0.15945111387E+03  0.36695893193E+03  0.00000000000E+00 0. -1.
        -11    1    5    5    0    0 -0.18459523225E+02  0.47275321681E+02 -0.13345661864E+02  0.52476820867E+02  0.00000000000E+00 0.  1.
          1    1    6    6  503    0 -0.88557658733E+03  0.74412215358E+02 -0.46962223165E+03  0.10051507898E+04  0.00000000000E+00 0. -1.
         -1    1    6    6    0  503 -0.19446712763E+03  0.25512077621E+02 -0.15276958431E+03  0.24860988661E+03  0.00000000000E+00 0.  1.
<mgrwt>
<rscale>  0 0.29165672E+04</rscale>
<asrwt>0</asrwt>
<pdfrwt beam="1">  1        2 0.21101164E+00 0.29165672E+04</pdfrwt>
<pdfrwt beam="2">  1       -1 0.23853432E+00 0.29165672E+04</pdfrwt>
<totfact> 0.12226485E+00</totfact>
</mgrwt>
</event>
<event>
12    6  0.9533401E-008  0.1532585E+04  0.7818608E-02  0.8863069E-01
         -1   -1    0    0    0  501 -0.00000000000E+00  0.00000000000E+00  0.36776746498E+03  0.36776746498E+03  0.00000000000E+00 0.  1.
          2   -1    0    0  501    0  0.00000000000E+00 -0.00000000000E+00 -0.15966724026E+04  0.15966724026E+04  0.00000000000E+00 0. -1.
         24    2    1    2    0    0  0.35300223774E+03  0.22143911031E+03 -0.76913954875E+03  0.87852762055E+03  0.81174350560E+02 0.  0.
        254    2    1    2    0    0 -0.35300223774E+03 -0.22143911031E+03 -0.45976538883E+03  0.10859122470E+04  0.89116515639E+03 0.  0.
         23    2    4    4    0    0  0.14505702621E+03  0.24177782538E+03 -0.11987161708E+03  0.31972844475E+03  0.91427655011E+02 0.  0.
         23    2    4    4    0    0 -0.49805926395E+03 -0.46321693569E+03 -0.33989377175E+03  0.76618380224E+03  0.94217210839E+02 0.  0.
          4    1    3    3  502    0  0.32089356733E+03  0.22398205533E+03 -0.69304404809E+03  0.79589615858E+03  0.00000000000E+00 0. -1.
         -3    1    3    3    0  502  0.32108670415E+02 -0.25429450163E+01 -0.76095500662E+02  0.82631461963E+02  0.00000000000E+00 0.  1.
         11    1    5    5    0    0  0.49749008014E+02  0.15717007787E+03 -0.93703190615E+02  0.18962511729E+03  0.00000000000E+00 0.  1.
        -11    1    5    5    0    0  0.95308018200E+02  0.84607747505E+02 -0.26168426465E+02  0.13010332745E+03  0.00000000000E+00 0. -1.
          3    1    6    6  503    0 -0.40718638675E+02 -0.83042338154E+01 -0.22710193875E+02  0.47357372611E+02  0.00000000000E+00 0. -1.
         -3    1    6    6    0  503 -0.45734062528E+03 -0.45491270187E+03 -0.31718357787E+03  0.71882642963E+03  0.00000000000E+00 0.  1.
<mgrwt>
<rscale>  0 0.15325850E+04</rscale>
<asrwt>0</asrwt>
<pdfrwt beam="1">  1        2 0.24564191E+00 0.15325850E+04</pdfrwt>
<pdfrwt beam="2">  1       -1 0.56579610E-01 0.15325850E+04</pdfrwt>
<totfact> 0.38883071E+01</totfact>
</mgrwt>
</event>
<event>
12    6  0.9533401E-008  0.2347760E+04  0.7818608E-02  0.8459324E-01
         -1   -1    0    0    0  501 -0.00000000000E+00  0.00000000000E+00  0.87974970841E+03  0.87974970841E+03  0.00000000000E+00 0.  1.
          2   -1    0    0  501    0  0.00000000000E+00 -0.00000000000E+00 -0.15663484271E+04  0.15663484271E+04  0.00000000000E+00 0. -1.
         24    2    1    2    0    0 -0.32197951330E+03 -0.52014715757E+03 -0.11123719342E+04  0.12719737176E+04  0.79510664252E+02 0.  0.
        254    2    1    2    0    0  0.32197951330E+03  0.52014715757E+03  0.42577321546E+03  0.11741244180E+04  0.90722733939E+03 0.  0.
         23    2    4    4    0    0  0.16146539443E+03  0.34307177064E+03 -0.24155984505E+03  0.45959124887E+03  0.95413017371E+02 0.  0.
         23    2    4    4    0    0  0.16051411887E+03  0.17707538693E+03  0.66733306051E+03  0.71453316910E+03  0.90020892413E+02 0.  0.
          4    1    3    3  502    0 -0.16149072738E+03 -0.32056936325E+03 -0.60031754367E+03  0.69944629881E+03  0.00000000000E+00 0. -1.
         -3    1    3    3    0  502 -0.16048878592E+03 -0.19957779433E+03 -0.51205439051E+03  0.57252741877E+03  0.00000000000E+00 0.  1.
         11    1    5    5    0    0  0.80235563056E+02  0.23622828626E+03 -0.19793203784E+03  0.31846293413E+03  0.00000000000E+00 0.  1.
        -11    1    5    5    0    0  0.81229831372E+02  0.10684348438E+03 -0.43627807213E+02  0.14112831474E+03  0.00000000000E+00 0. -1.
          1    1    6    6  503    0  0.41185204736E+02  0.67196968696E+02  0.11918291631E+03  0.14288534296E+03  0.00000000000E+00 0. -1.
         -1    1    6    6    0  503  0.11932891414E+03  0.10987841824E+03  0.54815014420E+03  0.57164782614E+03  0.00000000000E+00 0.  1.
<mgrwt>
<rscale>  0 0.23477603E+04</rscale>
<asrwt>0</asrwt>
<pdfrwt beam="1">  1        2 0.24097668E+00 0.23477603E+04</pdfrwt>
<pdfrwt beam="2">  1       -1 0.13534611E+00 0.23477603E+04</pdfrwt>
<totfact> 0.54824050E+00</totfact>
</mgrwt>
</event>
<event>
12    6  0.9533401E-008  0.3177842E+04  0.7818608E-02  0.8194694E-01
         -1   -1    0    0    0  501 -0.00000000000E+00  0.00000000000E+00  0.77969280527E+03  0.77969280527E+03  0.00000000000E+00 0.  1.
          2   -1    0    0  501    0  0.00000000000E+00 -0.00000000000E+00 -0.32380322360E+04  0.32380322360E+04  0.00000000000E+00 0. -1.
         24    2    1    2    0    0 -0.97004890585E+03  0.16734046250E+03  0.24878119184E+03  0.10183711138E+04  0.78676132785E+02 0.  0.
        254    2    1    2    0    0  0.97004890585E+03 -0.16734046250E+03 -0.27071206225E+04  0.29993539274E+04  0.83583742857E+03 0.  0.
         23    2    4    4    0    0  0.77021009924E+03 -0.80957776895E+02 -0.96489965018E+03  0.12411989479E+04  0.98821732592E+02 0.  0.
         23    2    4    4    0    0  0.19983880661E+03 -0.86382685604E+02 -0.17422209724E+04  0.17581549795E+04  0.91528675556E+02 0.  0.
          4    1    3    3  502    0 -0.20357861896E+02 -0.75682556905E+01  0.79609865367E+01  0.23132192759E+02  0.00000000000E+00 0. -1.
         -3    1    3    3    0  502 -0.94969104395E+03  0.17490871819E+03  0.24082020530E+03  0.99523892104E+03  0.00000000000E+00 0.  1.
         11    1    5    5    0    0  0.62643266353E+03 -0.10129935854E+03 -0.76059220434E+03  0.99054527574E+03  0.00000000000E+00 0. -1.
        -11    1    5    5    0    0  0.14377743571E+03  0.20341581643E+02 -0.20430744584E+03  0.25065367220E+03  0.00000000000E+00 0.  1.
          4    1    6    6  503    0  0.17307597475E+03 -0.10299203397E+03 -0.15903541413E+04  0.16030561272E+04  0.00000000000E+00 0. -1.
         -4    1    6    6    0  503  0.26762831852E+02  0.16609348367E+02 -0.15186683103E+03  0.15509885232E+03  0.00000000000E+00 0.  1.
<mgrwt>
<rscale>  0 0.31778423E+04</rscale>
<asrwt>0</asrwt>
<pdfrwt beam="1">  1        2 0.49815880E+00 0.31778423E+04</pdfrwt>
<pdfrwt beam="2">  1       -1 0.11995274E+00 0.31778423E+04</pdfrwt>
<totfact> 0.72625710E-01</totfact>
</mgrwt>
</event>
<event>
12    6  0.9533401E-008  0.1994963E+04  0.7818608E-02  0.8608979E-01
          2   -1    0    0  501    0  0.00000000000E+00  0.00000000000E+00  0.22602155762E+04  0.22602155762E+04  0.00000000000E+00 0. -1.
         -1   -1    0    0    0  501 -0.00000000000E+00 -0.00000000000E+00 -0.44020985580E+03  0.44020985580E+03  0.00000000000E+00 0.  1.
         24    2    1    2    0    0 -0.27731448562E+03  0.58509575366E+01 -0.27754322591E+03  0.40051472194E+03  0.80276040030E+02 0.  0.
        254    2    1    2    0    0  0.27731448562E+03 -0.58509575366E+01  0.20975489463E+04  0.22999107100E+04  0.90163192846E+03 0.  0.
         23    2    4    4    0    0  0.12648570123E+03  0.43883730590E+03  0.97334232013E+03  0.10789505122E+04  0.90344463228E+02 0.  0.
         23    2    4    4    0    0  0.15082878439E+03 -0.44468826343E+03  0.11242066262E+04  0.12209601978E+04  0.80039318329E+02 0.  0.
          2    1    3    3  502    0  0.48935639505E+01  0.13801533556E+01 -0.64750105173E+00  0.51255291468E+01  0.00000000000E+00 0. -1.
         -1    1    3    3    0  502 -0.28220804957E+03  0.44708041811E+01 -0.27689572485E+03  0.39538919279E+03  0.00000000000E+00 0.  1.
         11    1    5    5    0    0  0.12558404278E+03  0.33144858580E+03  0.68519909038E+03  0.77144494961E+03  0.00000000000E+00 0. -1.
        -11    1    5    5    0    0  0.90165845295E+00  0.10738872010E+03  0.28814322975E+03  0.30750556263E+03  0.00000000000E+00 0.  1.
          2    1    6    6  503    0  0.10222958918E+03 -0.25229078543E+03  0.74103936673E+03  0.78945606107E+03  0.00000000000E+00 0. -1.
         -2    1    6    6    0  503  0.48599195213E+02 -0.19239747801E+03  0.38316725943E+03  0.43150413674E+03  0.00000000000E+00 0.  1.
<mgrwt>
<rscale>  0 0.19949628E+04</rscale>
<asrwt>0</asrwt>
<pdfrwt beam="1">  1        2 0.34772547E+00 0.19949628E+04</pdfrwt>
<pdfrwt beam="2">  1       -1 0.67724594E-01 0.19949628E+04</pdfrwt>
<totfact> 0.11156227E+01</totfact>
</mgrwt>
</event>
<event>
12    6  0.9533401E-008  0.1330108E+04  0.7818608E-02  0.9006024E-01
         -1   -1    0    0    0  501 -0.00000000000E+00  0.00000000000E+00  0.35658863497E+03  0.35658863497E+03  0.00000000000E+00 0.  1.
          2   -1    0    0  501    0  0.00000000000E+00 -0.00000000000E+00 -0.12403556197E+04  0.12403556197E+04  0.00000000000E+00 0. -1.
         24    2    1    2    0    0 -0.27784901711E+03 -0.17206913946E+03 -0.40674214792E+03  0.52767407042E+03  0.78694883166E+02 0.  0.
        254    2    1    2    0    0  0.27784901711E+03  0.17206913946E+03 -0.47702483677E+03  0.10692701842E+04  0.89943213579E+03 0.  0.
         23    2    4    4    0    0  0.33281835489E+03 -0.49384849086E+02 -0.67105707852E+03  0.75652867750E+03  0.93867548114E+02 0.  0.
         23    2    4    4    0    0 -0.54969337777E+02  0.22145398854E+03  0.19403224175E+03  0.31274150671E+03  0.89973563030E+02 0.  0.
          4    1    3    3  502    0 -0.25073967908E+03 -0.17799678455E+03 -0.36139310414E+03  0.47450839581E+03  0.00000000000E+00 0. -1.
         -3    1    3    3    0  502 -0.27109338024E+02  0.59276450936E+01 -0.45349043784E+02  0.53165674609E+02  0.00000000000E+00 0.  1.
         11    1    5    5    0    0  0.81065144614E+02 -0.54172638446E+02 -0.19015450586E+03  0.21369363240E+03  0.00000000000E+00 0. -1.
        -11    1    5    5    0    0  0.25175321027E+03  0.47877893600E+01 -0.48090257265E+03  0.54283504511E+03  0.00000000000E+00 0.  1.
          1    1    6    6  503    0 -0.11429712002E+02  0.18660148164E+03  0.12935877368E+03  0.22734212895E+03  0.00000000000E+00 0. -1.
         -1    1    6    6    0  503 -0.43539625774E+02  0.34852506899E+02  0.64673468067E+02  0.85399377758E+02  0.00000000000E+00 0.  1.
<mgrwt>
<rscale>  0 0.13301078E+04</rscale>
<asrwt>0</asrwt>
<pdfrwt beam="1">  1        2 0.19082394E+00 0.13301078E+04</pdfrwt>
<pdfrwt beam="2">  1       -1 0.54859790E-01 0.13301078E+04</pdfrwt>
<totfact> 0.67093067E+01</totfact>
</mgrwt>
</event>
<event>
12    6  0.9533401E-008  0.1319015E+04  0.7818608E-02  0.9014621E-01
         -1   -1    0    0    0  501 -0.00000000000E+00  0.00000000000E+00  0.29332660893E+03  0.29332660893E+03  0.00000000000E+00 0.  1.
          2   -1    0    0  501    0  0.00000000000E+00 -0.00000000000E+00 -0.14828177067E+04  0.14828177067E+04  0.00000000000E+00 0. -1.
         24    2    1    2    0    0 -0.53269962352E+02 -0.41783782399E+02  0.12928634430E+03  0.16633241604E+03  0.79799376217E+02 0.  0.
        254    2    1    2    0    0  0.53269962352E+02  0.41783782399E+02 -0.13187774420E+04  0.16098118996E+04  0.92072625518E+03 0.  0.
         23    2    4    4    0    0  0.86795237482E+02 -0.42408902498E+03 -0.54944399813E+03  0.70504635389E+03  0.88412327781E+02 0.  0.
         23    2    4    4    0    0 -0.33525275130E+02  0.46587280738E+03 -0.76933344391E+03  0.90476554566E+03  0.92549057149E+02 0.  0.
          4    1    3    3  502    0 -0.65731490251E+01  0.14807575949E+02  0.70439468921E+02  0.72278554049E+02  0.00000000000E+00 0. -1.
         -3    1    3    3    0  502 -0.46696813326E+02 -0.56591358348E+02  0.58846875378E+02  0.94053861995E+02  0.00000000000E+00 0.  1.
         11    1    5    5    0    0  0.43413483726E+02 -0.17710485371E+03 -0.30180359936E+03  0.35261348863E+03  0.00000000000E+00 0.  1.
        -11    1    5    5    0    0  0.43381753755E+02 -0.24698417127E+03 -0.24764039877E+03  0.35243286527E+03  0.00000000000E+00 0. -1.
          3    1    6    6  503    0  0.62015884958E+01  0.45274257959E+01 -0.10810334914E+01  0.77540903798E+01  0.00000000000E+00 0. -1.
         -3    1    6    6    0  503 -0.39726863626E+02  0.46134538158E+03 -0.76825241042E+03  0.89701145528E+03  0.00000000000E+00 0.  1.
<mgrwt>
<rscale>  0 0.13190146E+04</rscale>
<asrwt>0</asrwt>
<pdfrwt beam="1">  1        2 0.22812580E+00 0.13190146E+04</pdfrwt>
<pdfrwt beam="2">  1       -1 0.45127171E-01 0.13190146E+04</pdfrwt>
<totfact> 0.70522378E+01</totfact>
</mgrwt>
</event>
<event>
12    6  0.9533401E-008  0.1150448E+04  0.7818608E-02  0.9157371E-01
          2   -1    0    0  501    0  0.00000000000E+00  0.00000000000E+00  0.19471497776E+03  0.19471497776E+03  0.00000000000E+00 0. -1.
         -1   -1    0    0    0  501 -0.00000000000E+00 -0.00000000000E+00 -0.16993166864E+04  0.16993166864E+04  0.00000000000E+00 0.  1.
         24    2    1    2    0    0 -0.52248769198E+02  0.10120895473E+03 -0.71237195889E+01  0.14503107214E+03  0.89499039689E+02 0.  0.
        254    2    1    2    0    0  0.52248769198E+02 -0.10120895473E+03 -0.14974779891E+04  0.17490005920E+04  0.89643156837E+03 0.  0.
         23    2    4    4    0    0 -0.44388220992E+02  0.18995899195E+03 -0.13960083915E+04  0.14124369959E+04  0.89911653526E+02 0.  0.
         23    2    4    4    0    0  0.96636990189E+02 -0.29116794668E+03 -0.10146959755E+03  0.33656359613E+03  0.94135508498E+02 0.  0.
          2    1    3    3  502    0 -0.29097768543E+02 -0.21180814280E+01  0.20429147633E+02  0.35616238938E+02  0.00000000000E+00 0. -1.
         -1    1    3    3    0  502 -0.23151000655E+02  0.10332703616E+03 -0.27552867222E+02  0.10941483320E+03  0.00000000000E+00 0.  1.
         11    1    5    5    0    0 -0.13859097762E+02  0.22765742442E+01 -0.27948594522E+03  0.27983861592E+03  0.00000000000E+00 0.  1.
        -11    1    5    5    0    0 -0.30529123230E+02  0.18768241771E+03 -0.11165224463E+04  0.11325983800E+04  0.00000000000E+00 0. -1.
          3    1    6    6  503    0  0.43062280064E+02 -0.24490723896E+03 -0.92055567511E+02  0.26515682750E+03  0.00000000000E+00 0. -1.
         -3    1    6    6    0  503  0.53574710125E+02 -0.46260707725E+02 -0.94140300422E+01  0.71406768628E+02  0.00000000000E+00 0.  1.
<mgrwt>
<rscale>  0 0.11504476E+04</rscale>
<asrwt>0</asrwt>
<pdfrwt beam="1">  1        2 0.29956150E-01 0.11504476E+04</pdfrwt>
<pdfrwt beam="2">  1       -1 0.26143334E+00 0.11504476E+04</pdfrwt>
<totfact> 0.11948653E+01</totfact>
</mgrwt>
</event>
<event>
12    6  0.9533401E-008  0.2240531E+04  0.7818608E-02  0.8501745E-01
          2   -1    0    0  501    0  0.00000000000E+00  0.00000000000E+00  0.10634406975E+04  0.10634406975E+04  0.00000000000E+00 0. -1.
         -1   -1    0    0    0  501 -0.00000000000E+00 -0.00000000000E+00 -0.11801264824E+04  0.11801264824E+04  0.00000000000E+00 0.  1.
         24    2    1    2    0    0 -0.80220879403E+02 -0.72211387468E+03 -0.64133866529E+03  0.97169707106E+03  0.70682931540E+02 0.  0.
        254    2    1    2    0    0  0.80220879403E+02  0.72211387468E+03  0.52465288043E+03  0.12718701088E+04  0.90250157406E+03 0.  0.
         23    2    4    4    0    0  0.45649662952E+01 -0.64531513148E+02 -0.17627046070E+03  0.21154259300E+03  0.97436329107E+02 0.  0.
         23    2    4    4    0    0  0.75655913108E+02  0.78664538782E+03  0.70092334113E+03  0.10603275158E+04  0.92011560206E+02 0.  0.
          4    1    3    3  502    0  0.18206178821E+00 -0.13205787883E+02 -0.27554458089E+02  0.30556081893E+02  0.00000000000E+00 0. -1.
         -3    1    3    3    0  502 -0.80402941191E+02 -0.70890808679E+03 -0.61378420721E+03  0.94114098916E+03  0.00000000000E+00 0.  1.
         11    1    5    5    0    0 -0.94383311395E+01 -0.71136790262E+02 -0.58015916838E+02  0.92278771286E+02  0.00000000000E+00 0. -1.
        -11    1    5    5    0    0  0.14003297435E+02  0.66052771144E+01 -0.11825454386E+03  0.11926382171E+03  0.00000000000E+00 0.  1.
          1    1    6    6  503    0  0.35017827150E+02  0.57508290870E+03  0.46101630344E+03  0.73789066408E+03  0.00000000000E+00 0. -1.
         -1    1    6    6    0  503  0.40638085957E+02  0.21156247912E+03  0.23990703769E+03  0.32243685170E+03  0.00000000000E+00 0.  1.
<mgrwt>
<rscale>  0 0.22405308E+04</rscale>
<asrwt>0</asrwt>
<pdfrwt beam="1">  1        2 0.16360626E+00 0.22405308E+04</pdfrwt>
<pdfrwt beam="2">  1       -1 0.18155792E+00 0.22405308E+04</pdfrwt>
<totfact> 0.48369985E+00</totfact>
</mgrwt>
</event>
<event>
12    6  0.9533401E-008  0.1587592E+04  0.7818608E-02  0.8828207E-01
          2   -1    0    0  501    0  0.00000000000E+00  0.00000000000E+00  0.19485640514E+04  0.19485640514E+04  0.00000000000E+00 0. -1.
         -1   -1    0    0    0  501 -0.00000000000E+00 -0.00000000000E+00 -0.32337259356E+03  0.32337259356E+03  0.00000000000E+00 0.  1.
         24    2    1    2    0    0 -0.45892851933E+03 -0.63004384027E+02  0.88752968623E+03  0.10043517469E+04  0.80178234621E+02 0.  0.
        254    2    1    2    0    0  0.45892851933E+03  0.63004384027E+02  0.73766177159E+03  0.12675848980E+04  0.92089176681E+03 0.  0.
         23    2    4    4    0    0 -0.26071443110E+02  0.19503034420E+03 -0.13528168303E+03  0.25611794636E+03  0.92621344081E+02 0.  0.
         23    2    4    4    0    0  0.48499996244E+03 -0.13202596017E+03  0.87294345462E+03  0.10114669517E+04  0.91538525293E+02 0.  0.
          2    1    3    3  502    0 -0.37023594050E+03 -0.28196353521E+02  0.65260980508E+03  0.75084568566E+03  0.00000000000E+00 0. -1.
         -1    1    3    3    0  502 -0.88692578837E+02 -0.34808030506E+02  0.23491988115E+03  0.25350606125E+03  0.00000000000E+00 0.  1.
         11    1    5    5    0    0  0.53767281665E+01  0.18130461290E+03 -0.12504656870E+03  0.22031095344E+03  0.00000000000E+00 0. -1.
        -11    1    5    5    0    0 -0.31448171276E+02  0.13725731302E+02 -0.10235114338E+02  0.35806992919E+02  0.00000000000E+00 0.  1.
          1    1    6    6  503    0  0.48239890511E+03 -0.12316641243E+03  0.86880275643E+03  0.10013475413E+04  0.00000000000E+00 0. -1.
         -1    1    6    6    0  503  0.26010573299E+01 -0.88595477441E+01  0.41406981944E+01  0.10119410408E+02  0.00000000000E+00 0.  1.
<mgrwt>
<rscale>  0 0.15875922E+04</rscale>
<asrwt>0</asrwt>
<pdfrwt beam="1">  1        2 0.29977908E+00 0.15875922E+04</pdfrwt>
<pdfrwt beam="2">  1       -1 0.49749631E-01 0.15875922E+04</pdfrwt>
<totfact> 0.31622484E+01</totfact>
</mgrwt>
</event>
<event>
12    6  0.9533401E-008  0.1765172E+04  0.7818608E-02  0.8725043E-01
         -1   -1    0    0    0  501 -0.00000000000E+00  0.00000000000E+00  0.55630428863E+03  0.55630428863E+03  0.00000000000E+00 0.  1.
          2   -1    0    0  501    0  0.00000000000E+00 -0.00000000000E+00 -0.14002368855E+04  0.14002368855E+04  0.00000000000E+00 0. -1.
         24    2    1    2    0    0 -0.31003054773E+02  0.61946668399E+03 -0.15515428263E+03  0.64404514191E+03  0.77595949751E+02 0.  0.
        254    2    1    2    0    0  0.31003054773E+02 -0.61946668399E+03 -0.68877831429E+03  0.13124960323E+04  0.92926320626E+03 0.  0.
         23    2    4    4    0    0 -0.14831172744E+03 -0.23231521267E+03 -0.80992035137E+03  0.85996322688E+03  0.87172527141E+02 0.  0.
         23    2    4    4    0    0  0.17931478221E+03 -0.38715147132E+03  0.12114203708E+03  0.45253280539E+03  0.89835927899E+02 0.  0.
          2    1    3    3  502    0 -0.23432196064E+02  0.52323579886E+02 -0.65236580015E+01  0.57700805351E+02  0.00000000000E+00 0. -1.
         -1    1    3    3    0  502 -0.75708587087E+01  0.56714310410E+03 -0.14863062463E+03  0.58634433655E+03  0.00000000000E+00 0.  1.
         11    1    5    5    0    0 -0.98095510827E+02 -0.81804620028E+02 -0.30392602386E+03  0.32967522364E+03  0.00000000000E+00 0.  1.
        -11    1    5    5    0    0 -0.50216216610E+02 -0.15051059264E+03 -0.50599432751E+03  0.53028800323E+03  0.00000000000E+00 0. -1.
          3    1    6    6  503    0 -0.76089067643E+01 -0.18733666960E+02  0.17167242347E+02  0.26524704517E+02  0.00000000000E+00 0. -1.
         -3    1    6    6    0  503  0.18692368897E+03 -0.36841780436E+03  0.10397479473E+03  0.42600810087E+03  0.00000000000E+00 0.  1.
<mgrwt>
<rscale>  0 0.17651717E+04</rscale>
<asrwt>0</asrwt>
<pdfrwt beam="1">  1        2 0.21542106E+00 0.17651717E+04</pdfrwt>
<pdfrwt beam="2">  1       -1 0.85585275E-01 0.17651717E+04</pdfrwt>
<totfact> 0.21053308E+01</totfact>
</mgrwt>
</event>
<event>
12    6  0.9533401E-008  0.3360319E+04  0.7818608E-02  0.8147715E-01
         -1   -1    0    0    0  501 -0.00000000000E+00  0.00000000000E+00  0.10260310358E+04  0.10260310358E+04  0.00000000000E+00 0.  1.
          2   -1    0    0  501    0  0.00000000000E+00 -0.00000000000E+00 -0.27513163979E+04  0.27513163979E+04  0.00000000000E+00 0. -1.
         24    2    1    2    0    0 -0.17368066863E+03 -0.56116491158E+02 -0.25379577374E+04  0.25458141342E+04  0.81400823311E+02 0.  0.
        254    2    1    2    0    0  0.17368066863E+03  0.56116491158E+02  0.81267237531E+03  0.12315332995E+04  0.90715149950E+03 0.  0.
         23    2    4    4    0    0 -0.27509845099E+03 -0.20198583145E+03  0.52330727331E+03  0.63135534221E+03  0.91003472389E+02 0.  0.
         23    2    4    4    0    0  0.44877911962E+03  0.25810232261E+03  0.28936510200E+03  0.60017795734E+03  0.91988646476E+02 0.  0.
          2    1    3    3  502    0 -0.18044926455E+03 -0.45324688136E+02 -0.24287510674E+04  0.24358669939E+04  0.00000000000E+00 0. -1.
         -1    1    3    3    0  502  0.67685959152E+01 -0.10791803021E+02 -0.10920666994E+03  0.10994714031E+03  0.00000000000E+00 0.  1.
         11    1    5    5    0    0 -0.37915106847E+02  0.31465532705E+01  0.39778136803E+02  0.55043222037E+02  0.00000000000E+00 0. -1.
        -11    1    5    5    0    0 -0.23718334414E+03 -0.20513238472E+03  0.48352913651E+03  0.57631212017E+03  0.00000000000E+00 0.  1.
          3    1    6    6  503    0  0.13867522113E+03  0.32846331450E+02  0.80843991120E+02  0.16384580967E+03  0.00000000000E+00 0. -1.
         -3    1    6    6    0  503  0.31010389848E+03  0.22525599116E+03  0.20852111088E+03  0.43633214767E+03  0.00000000000E+00 0.  1.
<mgrwt>
<rscale>  0 0.33603190E+04</rscale>
<asrwt>0</asrwt>
<pdfrwt beam="1">  1        2 0.42327945E+00 0.33603190E+04</pdfrwt>
<pdfrwt beam="2">  1       -1 0.15785093E+00 0.33603190E+04</pdfrwt>
<totfact> 0.70859918E-01</totfact>
</mgrwt>
</event>
<event>
12    6  0.9533401E-008  0.1820199E+04  0.7818608E-02  0.8695631E-01
         -1   -1    0    0    0  501 -0.00000000000E+00  0.00000000000E+00  0.35528593172E+03  0.35528593172E+03  0.00000000000E+00 0.  1.
          2   -1    0    0  501    0  0.00000000000E+00 -0.00000000000E+00 -0.23313079595E+04  0.23313079595E+04  0.00000000000E+00 0. -1.
         24    2    1    2    0    0  0.32853679624E+03 -0.59749686630E+03 -0.87277891027E+03  0.11103256038E+04  0.78364458894E+02 0.  0.
        254    2    1    2    0    0 -0.32853679624E+03  0.59749686630E+03 -0.11032431175E+04  0.15762682875E+04  0.89584452114E+03 0.  0.
         23    2    4    4    0    0  0.28089480718E+02  0.72441252866E+03 -0.64227094743E+03  0.97282698500E+03  0.91202205183E+02 0.  0.
         23    2    4    4    0    0 -0.35662627696E+03 -0.12691566236E+03 -0.46097217012E+03  0.60344130251E+03  0.91412128148E+02 0.  0.
          2    1    3    3  502    0  0.17768856735E+03 -0.35851244177E+03 -0.45467944275E+03  0.60567135769E+03  0.00000000000E+00 0. -1.
         -1    1    3    3    0  502  0.15084822889E+03 -0.23898442454E+03 -0.41809946752E+03  0.50465424606E+03  0.00000000000E+00 0.  1.
         11    1    5    5    0    0  0.13031512334E+01  0.40390465438E+03 -0.41426733854E+03  0.57858283401E+03  0.00000000000E+00 0.  1.
        -11    1    5    5    0    0  0.26786329485E+02  0.32050787428E+03 -0.22800360889E+03  0.39424415099E+03  0.00000000000E+00 0. -1.
          1    1    6    6  503    0 -0.12745575035E+03 -0.15577818221E+02 -0.20772056777E+03  0.24420374894E+03  0.00000000000E+00 0. -1.
         -1    1    6    6    0  503 -0.22917052661E+03 -0.11133784414E+03 -0.25325160235E+03  0.35923755357E+03  0.00000000000E+00 0.  1.
<mgrwt>
<rscale>  0 0.18201988E+04</rscale>
<asrwt>0</asrwt>
<pdfrwt beam="1">  1        2 0.35866275E+00 0.18201988E+04</pdfrwt>
<pdfrwt beam="2">  1       -1 0.54659376E-01 0.18201988E+04</pdfrwt>
<totfact> 0.15801611E+01</totfact>
</mgrwt>
</event>
<event>
12    6  0.9533401E-008  0.2486129E+04  0.7818608E-02  0.8407944E-01
         -1   -1    0    0    0  501 -0.00000000000E+00  0.00000000000E+00  0.46738822406E+03  0.46738822406E+03  0.00000000000E+00 0.  1.
          2   -1    0    0  501    0  0.00000000000E+00 -0.00000000000E+00 -0.33060514739E+04  0.33060514739E+04  0.00000000000E+00 0. -1.
         24    2    1    2    0    0  0.20011974248E+03  0.10591578033E+04 -0.11767105144E+04  0.15977923123E+04  0.80184005606E+02 0.  0.
        254    2    1    2    0    0 -0.20011974248E+03 -0.10591578033E+04 -0.16619527354E+04  0.21756473857E+04  0.89971744913E+03 0.  0.
         23    2    4    4    0    0  0.33256266957E+03 -0.35400403721E+03 -0.42367435392E+03  0.65094738434E+03  0.91190742135E+02 0.  0.
         23    2    4    4    0    0 -0.53268241205E+03 -0.70515376613E+03 -0.12382783815E+04  0.15247000014E+04  0.10190367001E+03 0.  0.
          4    1    3    3  502    0  0.62260205427E+02  0.32293397287E+03 -0.41486483991E+03  0.52941053957E+03  0.00000000000E+00 0. -1.
         -3    1    3    3    0  502  0.13785953705E+03  0.73622383047E+03 -0.76184567449E+03  0.10683817727E+04  0.00000000000E+00 0.  1.
         11    1    5    5    0    0  0.31117078711E+03 -0.34398242915E+03 -0.37363617053E+03  0.59561326231E+03  0.00000000000E+00 0. -1.
        -11    1    5    5    0    0  0.21391882465E+02 -0.10021608066E+02 -0.50038183393E+02  0.55334122030E+02  0.00000000000E+00 0.  1.
          3    1    6    6  503    0 -0.21776353775E+03 -0.24194843995E+03 -0.52589282434E+03  0.61848465515E+03  0.00000000000E+00 0. -1.
         -3    1    6    6    0  503 -0.31491887430E+03 -0.46320532618E+03 -0.71238555719E+03  0.90621534620E+03  0.00000000000E+00 0.  1.
<mgrwt>
<rscale>  0 0.24861291E+04</rscale>
<asrwt>0</asrwt>
<pdfrwt beam="1">  1        2 0.50862330E+00 0.24861291E+04</pdfrwt>
<pdfrwt beam="2">  1       -1 0.71905881E-01 0.24861291E+04</pdfrwt>
<totfact> 0.21890853E+00</totfact>
</mgrwt>
</event>
<event>
12    6  0.9533401E-008  0.3020608E+04  0.7818608E-02  0.8237871E-01
          2   -1    0    0  501    0  0.00000000000E+00  0.00000000000E+00  0.11002007791E+04  0.11002007791E+04  0.00000000000E+00 0. -1.
         -1   -1    0    0    0  501 -0.00000000000E+00 -0.00000000000E+00 -0.20732741778E+04  0.20732741778E+04  0.00000000000E+00 0.  1.
         24    2    1    2    0    0  0.12882075427E+04  0.40982450217E+03 -0.70960564511E+03  0.15288637789E+04  0.80308699718E+02 0.  0.
        254    2    1    2    0    0 -0.12882075427E+04 -0.40982450217E+03 -0.26346775358E+03  0.16446111780E+04  0.89883028100E+03 0.  0.
         23    2    4    4    0    0 -0.13059459153E+04 -0.39428309818E+03 -0.26089834311E+01  0.13673225665E+04  0.92791696579E+02 0.  0.
         23    2    4    4    0    0  0.17738372588E+02 -0.15541403990E+02 -0.26085877015E+03  0.27728861150E+03  0.91024672507E+02 0.  0.
          2    1    3    3  502    0  0.11990294365E+02 -0.12339151794E+01 -0.13673372980E+02  0.18227749018E+02  0.00000000000E+00 0. -1.
         -1    1    3    3    0  502  0.12762172483E+04  0.41105841735E+03 -0.69593227213E+03  0.15106360299E+04  0.00000000000E+00 0.  1.
         11    1    5    5    0    0 -0.55067097594E+03 -0.19415607057E+03  0.36222509279E+02  0.58501895153E+03  0.00000000000E+00 0. -1.
        -11    1    5    5    0    0 -0.75527493933E+03 -0.20012702761E+03 -0.38831492710E+02  0.78230361497E+03  0.00000000000E+00 0.  1.
          3    1    6    6  503    0  0.70318694936E+01 -0.46027925743E+02 -0.22161830246E+03  0.22645681514E+03  0.00000000000E+00 0. -1.
         -3    1    6    6    0  503  0.10706503095E+02  0.30486521753E+02 -0.39240467684E+02  0.50831796360E+02  0.00000000000E+00 0.  1.
<mgrwt>
<rscale>  0 0.30206078E+04</rscale>
<asrwt>0</asrwt>
<pdfrwt beam="1">  1        2 0.16926166E+00 0.30206078E+04</pdfrwt>
<pdfrwt beam="2">  1       -1 0.31896526E+00 0.30206078E+04</pdfrwt>
<totfact> 0.52711773E-01</totfact>
</mgrwt>
</event>
<event>
12    6  0.9533401E-008  0.1827188E+04  0.7818608E-02  0.8691973E-01
         -1   -1    0    0    0  501 -0.00000000000E+00  0.00000000000E+00  0.65042558305E+03  0.65042558305E+03  0.00000000000E+00 0.  1.
          2   -1    0    0  501    0  0.00000000000E+00 -0.00000000000E+00 -0.12832430142E+04  0.12832430142E+04  0.00000000000E+00 0. -1.
         24    2    1    2    0    0 -0.19191903542E+03 -0.11102914780E+03  0.44944674061E+03  0.50771780074E+03  0.81330220263E+02 0.  0.
        254    2    1    2    0    0  0.19191903542E+03  0.11102914780E+03 -0.10822641718E+04  0.14259507965E+04  0.90159833008E+03 0.  0.
         23    2    4    4    0    0  0.50331710220E+02  0.48900832175E+03 -0.70458047401E+03  0.86410291565E+03  0.92616330556E+02 0.  0.
         23    2    4    4    0    0  0.14158732520E+03 -0.37797917396E+03 -0.37768369775E+03  0.56184788086E+03  0.10056261276E+03 0.  0.
          4    1    3    3  502    0 -0.75794340321E+02 -0.34096256688E+01  0.11624997688E+03  0.13881809931E+03  0.00000000000E+00 0. -1.
         -3    1    3    3    0  502 -0.11612469510E+03 -0.10761952213E+03  0.33319676373E+03  0.36889970143E+03  0.00000000000E+00 0.  1.
         11    1    5    5    0    0  0.88411706279E+01  0.21897390687E+03 -0.39078444370E+03  0.44804042187E+03  0.00000000000E+00 0. -1.
        -11    1    5    5    0    0  0.41490539592E+02  0.27003441489E+03 -0.31379603031E+03  0.41606249379E+03  0.00000000000E+00 0.  1.
          1    1    6    6  503    0  0.14124113141E+03 -0.30336718911E+03 -0.26573068048E+03  0.42730961045E+03  0.00000000000E+00 0. -1.
         -1    1    6    6    0  503  0.34619379258E+00 -0.74611984849E+02 -0.11195301726E+03  0.13453827042E+03  0.00000000000E+00 0.  1.
<mgrwt>
<rscale>  0 0.18271881E+04</rscale>
<asrwt>0</asrwt>
<pdfrwt beam="1">  1        2 0.19742200E+00 0.18271881E+04</pdfrwt>
<pdfrwt beam="2">  1       -1 0.10006548E+00 0.18271881E+04</pdfrwt>
<totfact> 0.17282837E+01</totfact>
</mgrwt>
</event>
<event>
12    6  0.9533401E-008  0.2122853E+04  0.7818608E-02  0.8551243E-01
          2   -1    0    0  501    0  0.00000000000E+00  0.00000000000E+00  0.16226480706E+04  0.16226480706E+04  0.00000000000E+00 0. -1.
         -3   -1    0    0    0  501 -0.00000000000E+00 -0.00000000000E+00 -0.69431339118E+03  0.69431339118E+03  0.00000000000E+00 0.  1.
         24    2    1    2    0    0  0.21115274953E+03 -0.67456624075E+03 -0.16926969952E+03  0.73125046424E+03  0.80311353309E+02 0.  0.
        254    2    1    2    0    0 -0.21115274953E+03  0.67456624075E+03  0.10976043789E+04  0.15857109975E+04  0.90006605217E+03 0.  0.
         23    2    4    4    0    0  0.13922822478E+03  0.27300821576E+03  0.98295809415E+03  0.10329228043E+04  0.82491941020E+02 0.  0.
         23    2    4    4    0    0 -0.35038097431E+03  0.40155802499E+03  0.11464628477E+03  0.55278819323E+03  0.91735169777E+02 0.  0.
          4    1    3    3  502    0  0.11015544613E+03 -0.23390980796E+03 -0.45405665364E+02  0.26250656186E+03  0.00000000000E+00 0. -1.
         -3    1    3    3    0  502  0.10099730340E+03 -0.44065643280E+03 -0.12386403416E+03  0.46874390238E+03  0.00000000000E+00 0.  1.
         11    1    5    5    0    0  0.12679337672E+03  0.17083930134E+03  0.71067241883E+03  0.74183415542E+03  0.00000000000E+00 0. -1.
        -11    1    5    5    0    0  0.12434848059E+02  0.10216891442E+03  0.27228567532E+03  0.29108864888E+03  0.00000000000E+00 0.  1.
          2    1    6    6  503    0 -0.34191898484E+03  0.36973523420E+03  0.12383444297E+03  0.51860168229E+03  0.00000000000E+00 0. -1.
         -2    1    6    6    0  503 -0.84619894692E+01  0.31822790793E+02 -0.91881582057E+01  0.34186510948E+02  0.00000000000E+00 0.  1.
<mgrwt>
<rscale>  0 0.21228531E+04</rscale>
<asrwt>0</asrwt>
<pdfrwt beam="1">  1        2 0.24963816E+00 0.21228531E+04</pdfrwt>
<pdfrwt beam="2">  1       -3 0.10681745E+00 0.21228531E+04</pdfrwt>
<totfact> 0.47405602E+00</totfact>
</mgrwt>
</event>
<event>
12    6  0.9533401E-008  0.2372780E+04  0.7818608E-02  0.8449765E-01
         -1   -1    0    0    0  501 -0.00000000000E+00  0.00000000000E+00  0.10365680102E+04  0.10365680102E+04  0.00000000000E+00 0.  1.
          2   -1    0    0  501    0  0.00000000000E+00 -0.00000000000E+00 -0.13578665108E+04  0.13578665108E+04  0.00000000000E+00 0. -1.
         24    2    1    2    0    0 -0.29061504049E+03 -0.20758402468E+03 -0.11000135602E+04  0.11592854040E+04  0.79778357289E+02 0.  0.
        254    2    1    2    0    0  0.29061504049E+03  0.20758402468E+03  0.77871505959E+03  0.12351491170E+04  0.88974601331E+03 0.  0.
         23    2    4    4    0    0  0.42898505671E+03  0.21691465440E+03  0.54457066188E+02  0.49223272400E+03  0.90814846474E+02 0.  0.
         23    2    4    4    0    0 -0.13837001622E+03 -0.93306297198E+01  0.72425799340E+03  0.74291639303E+03  0.90231945493E+02 0.  0.
          4    1    3    3  502    0 -0.21687368133E+03 -0.16326595470E+03 -0.71550998241E+03  0.76527413425E+03  0.00000000000E+00 0. -1.
         -3    1    3    3    0  502 -0.73741359166E+02 -0.44318069974E+02 -0.38450357775E+03  0.39401126973E+03  0.00000000000E+00 0.  1.
         11    1    5    5    0    0  0.29887362461E+03  0.11545837052E+03  0.67072281746E+01  0.32047006993E+03  0.00000000000E+00 0.  1.
        -11    1    5    5    0    0  0.13011143211E+03  0.10145628388E+03  0.47749838013E+02  0.17176265407E+03  0.00000000000E+00 0. -1.
          3    1    6    6  503    0 -0.95774534945E+02 -0.44598513509E+02  0.55132502996E+03  0.56135646216E+03  0.00000000000E+00 0. -1.
         -3    1    6    6    0  503 -0.42595481277E+02  0.35267883789E+02  0.17293296344E+03  0.18155993087E+03  0.00000000000E+00 0.  1.
<mgrwt>
<rscale>  0 0.23727798E+04</rscale>
<asrwt>0</asrwt>
<pdfrwt beam="1">  1        2 0.20890254E+00 0.23727798E+04</pdfrwt>
<pdfrwt beam="2">  1       -1 0.15947200E+00 0.23727798E+04</pdfrwt>
<totfact> 0.46346842E+00</totfact>
</mgrwt>
</event>
<event>
12    6  0.9533401E-008  0.2426079E+04  0.7818608E-02  0.8429804E-01
          2   -1    0    0  501    0  0.00000000000E+00  0.00000000000E+00  0.19276118509E+04  0.19276118509E+04  0.00000000000E+00 0. -1.
         -1   -1    0    0    0  501 -0.00000000000E+00 -0.00000000000E+00 -0.76336164123E+03  0.76336164123E+03  0.00000000000E+00 0.  1.
         24    2    1    2    0    0  0.87222557865E+03  0.48967339322E+03  0.18489454152E+03  0.10203320620E+04  0.79586639254E+02 0.  0.
        254    2    1    2    0    0 -0.87222557865E+03 -0.48967339322E+03  0.97935566817E+03  0.16706414302E+04  0.91178274349E+03 0.  0.
         23    2    4    4    0    0 -0.97175629346E+03 -0.39005782960E+03  0.10527065946E+04  0.14876580885E+04  0.92086968473E+02 0.  0.
         23    2    4    4    0    0  0.99530714810E+02 -0.99615563615E+02 -0.73350926436E+02  0.18298334162E+03  0.90955600144E+02 0.  0.
          4    1    3    3  502    0  0.72271012219E+02  0.26837542184E+02  0.32451051268E+02  0.83644626881E+02  0.00000000000E+00 0. -1.
         -3    1    3    3    0  502  0.79995456643E+03  0.46283585104E+03  0.15244349025E+03  0.93668743511E+03  0.00000000000E+00 0.  1.
         11    1    5    5    0    0 -0.93040525088E+02 -0.58970092364E+02  0.84003333031E+02  0.13853003668E+03  0.00000000000E+00 0.  1.
        -11    1    5    5    0    0 -0.87871576838E+03 -0.33108773724E+03  0.96870326158E+03  0.13491280519E+04  0.00000000000E+00 0. -1.
          3    1    6    6  503    0  0.71041692878E+01 -0.70184033635E+02 -0.33949030772E+02  0.78286681428E+02  0.00000000000E+00 0. -1.
         -3    1    6    6    0  503  0.92426545522E+02 -0.29431529980E+02 -0.39401895664E+02  0.10469666020E+03  0.00000000000E+00 0.  1.
<mgrwt>
<rscale>  0 0.24260791E+04</rscale>
<asrwt>0</asrwt>
<pdfrwt beam="1">  1        2 0.29655567E+00 0.24260791E+04</pdfrwt>
<pdfrwt beam="2">  1       -1 0.11744025E+00 0.24260791E+04</pdfrwt>
<totfact> 0.48842300E+00</totfact>
</mgrwt>
</event>
<event>
12    6  0.9533401E-008  0.1790918E+04  0.7818608E-02  0.8711144E-01
         -1   -1    0    0    0  501 -0.00000000000E+00  0.00000000000E+00  0.14124577429E+04  0.14124577429E+04  0.00000000000E+00 0.  1.
          2   -1    0    0  501    0  0.00000000000E+00 -0.00000000000E+00 -0.56769623264E+03  0.56769623264E+03  0.00000000000E+00 0. -1.
         24    2    1    2    0    0 -0.55817810546E+03 -0.16768323515E+03  0.66402440016E+03  0.88730602178E+03  0.81872507735E+02 0.  0.
        254    2    1    2    0    0  0.55817810546E+03  0.16768323515E+03  0.18073711006E+03  0.10928479537E+04  0.90662576746E+03 0.  0.
         23    2    4    4    0    0  0.18976853391E+03 -0.35657450339E+03  0.16586676577E+03  0.44569128595E+03  0.89283063660E+02 0.  0.
         23    2    4    4    0    0  0.36840957154E+03  0.52425773854E+03  0.14870344293E+02  0.64715666776E+03  0.89547957358E+02 0.  0.
          4    1    3    3  502    0 -0.87645812358E+02 -0.40824632910E+01  0.13160759958E+03  0.15817400291E+03  0.00000000000E+00 0. -1.
         -3    1    3    3    0  502 -0.47053229310E+03 -0.16360077186E+03  0.53241680058E+03  0.72913201887E+03  0.00000000000E+00 0.  1.
         11    1    5    5    0    0  0.10583585107E+03 -0.15958196999E+03  0.12219682523E+03  0.22715566604E+03  0.00000000000E+00 0. -1.
        -11    1    5    5    0    0  0.83932682839E+02 -0.19699253340E+03  0.43669940541E+02  0.21853561991E+03  0.00000000000E+00 0.  1.
          4    1    6    6  503    0  0.33647321728E+03  0.50775576316E+03  0.25543673656E+02  0.60965778945E+03  0.00000000000E+00 0. -1.
         -4    1    6    6    0  503  0.31936354266E+02  0.16501975374E+02 -0.10673329363E+02  0.37498878313E+02  0.00000000000E+00 0.  1.
<mgrwt>
<rscale>  0 0.17909181E+04</rscale>
<asrwt>0</asrwt>
<pdfrwt beam="1">  1        2 0.87337882E-01 0.17909181E+04</pdfrwt>
<pdfrwt beam="2">  1       -1 0.21730119E+00 0.17909181E+04</pdfrwt>
<totfact> 0.65642278E+00</totfact>
</mgrwt>
</event>
<event>
12    6  0.9533401E-008  0.3605914E+04  0.7818608E-02  0.8089138E-01
         -1   -1    0    0    0  501 -0.00000000000E+00  0.00000000000E+00  0.19577380104E+04  0.19577380104E+04  0.00000000000E+00 0.  1.
          2   -1    0    0  501    0  0.00000000000E+00 -0.00000000000E+00 -0.16604133233E+04  0.16604133233E+04  0.00000000000E+00 0. -1.
         24    2    1    2    0    0  0.22817761415E+03 -0.78003511365E+03  0.16258076158E+04  0.18193166279E+04  0.78375933730E+02 0.  0.
        254    2    1    2    0    0 -0.22817761415E+03  0.78003511365E+03 -0.13284829287E+04  0.17988347058E+04  0.90023308351E+03 0.  0.
         23    2    4    4    0    0  0.30746952605E+03  0.51270919298E+03 -0.60470499865E+03  0.85517214902E+03  0.90791205817E+02 0.  0.
         23    2    4    4    0    0 -0.53564714020E+03  0.26732592066E+03 -0.72377793009E+03  0.94366255676E+03  0.90903917865E+02 0.  0.
          2    1    3    3  502    0  0.51279048166E+00 -0.65835452922E+02  0.15819972217E+03  0.17135262446E+03  0.00000000000E+00 0. -1.
         -1    1    3    3    0  502  0.22766482367E+03 -0.71419966073E+03  0.14676078936E+04  0.16479640035E+04  0.00000000000E+00 0.  1.
         11    1    5    5    0    0  0.33615433571E+02  0.21151275019E+02 -0.23220071562E+02  0.46005929319E+02  0.00000000000E+00 0. -1.
        -11    1    5    5    0    0  0.27385409247E+03  0.49155791797E+03 -0.58148492708E+03  0.80916621970E+03  0.00000000000E+00 0.  1.
          3    1    6    6  503    0 -0.19096117236E+02  0.12489409816E+02 -0.63411109381E+02  0.67391511661E+02  0.00000000000E+00 0. -1.
         -3    1    6    6    0  503 -0.51655102296E+03  0.25483651085E+03 -0.66036682070E+03  0.87627104510E+03  0.00000000000E+00 0.  1.
<mgrwt>
<rscale>  0 0.36059142E+04</rscale>
<asrwt>0</asrwt>
<pdfrwt beam="1">  1        2 0.25544820E+00 0.36059142E+04</pdfrwt>
<pdfrwt beam="2">  1       -1 0.30119046E+00 0.36059142E+04</pdfrwt>
<totfact> 0.31035963E-01</totfact>
</mgrwt>
</event>
<event>
12    6  0.9533401E-008  0.1710974E+04  0.7818608E-02  0.8755130E-01
          2   -1    0    0  501    0  0.00000000000E+00  0.00000000000E+00  0.13830203839E+04  0.13830203839E+04  0.00000000000E+00 0. -1.
         -1   -1    0    0    0  501 -0.00000000000E+00 -0.00000000000E+00 -0.52917352872E+03  0.52917352872E+03  0.00000000000E+00 0.  1.
         24    2    1    2    0    0 -0.43751850428E+03  0.39947573901E+03  0.12473156190E+03  0.61101745667E+03  0.82347205038E+02 0.  0.
        254    2    1    2    0    0  0.43751850428E+03 -0.39947573901E+03  0.72911529325E+03  0.13011764559E+04  0.90024871615E+03 0.  0.
         23    2    4    4    0    0  0.57756857578E+03 -0.76054909672E+01  0.63811947880E+03  0.86573364394E+03  0.93032090203E+02 0.  0.
         23    2    4    4    0    0 -0.14005007150E+03 -0.39187024804E+03  0.90995814451E+02  0.43544281198E+03  0.90298894930E+02 0.  0.
          2    1    3    3  502    0 -0.38480151732E+03  0.33153668566E+03  0.80333648865E+02  0.51423951308E+03  0.00000000000E+00 0. -1.
         -1    1    3    3    0  502 -0.52716986957E+02  0.67939053353E+02  0.44397913033E+02  0.96777943592E+02  0.00000000000E+00 0.  1.
         11    1    5    5    0    0  0.47704970514E+03 -0.26217829145E+02  0.47850238705E+03  0.67618660897E+03  0.00000000000E+00 0. -1.
        -11    1    5    5    0    0  0.10051887063E+03  0.18612338178E+02  0.15961709175E+03  0.18954703497E+03  0.00000000000E+00 0.  1.
          4    1    6    6  503    0 -0.83545059154E+02 -0.14335358927E+03  0.68794287468E+02  0.17961815736E+03  0.00000000000E+00 0. -1.
         -4    1    6    6    0  503 -0.56505012343E+02 -0.24851665878E+03  0.22201526983E+02  0.25582465462E+03  0.00000000000E+00 0.  1.
<mgrwt>
<rscale>  0 0.17109737E+04</rscale>
<asrwt>0</asrwt>
<pdfrwt beam="1">  1        2 0.21277237E+00 0.17109737E+04</pdfrwt>
<pdfrwt beam="2">  1       -1 0.81411313E-01 0.17109737E+04</pdfrwt>
<totfact> 0.24097849E+01</totfact>
</mgrwt>
</event>
<event>
12    6  0.9533401E-008  0.1267616E+04  0.7818608E-02  0.9055648E-01
          2   -1    0    0  501    0  0.00000000000E+00  0.00000000000E+00  0.66587751414E+03  0.66587751414E+03  0.00000000000E+00 0. -1.
         -1   -1    0    0    0  501 -0.00000000000E+00 -0.00000000000E+00 -0.60328272445E+03  0.60328272445E+03  0.00000000000E+00 0.  1.
         24    2    1    2    0    0  0.32267981221E+02  0.10033073289E+03 -0.27683806177E+03  0.30662333544E+03  0.79190143415E+02 0.  0.
        254    2    1    2    0    0 -0.32267981221E+02 -0.10033073289E+03  0.33943285146E+03  0.96253690315E+03  0.89451391867E+03 0.  0.
         23    2    4    4    0    0 -0.17021956107E+03  0.35795565816E+03  0.95704248039E+02  0.41760248721E+03  0.90142010433E+02 0.  0.
         23    2    4    4    0    0  0.13795157985E+03 -0.45828639106E+03  0.24372860342E+03  0.54493441594E+03  0.92156556668E+02 0.  0.
          2    1    3    3  502    0  0.28243420634E+02 -0.30093298501E+01 -0.60866220068E+02  0.67167280879E+02  0.00000000000E+00 0. -1.
         -1    1    3    3    0  502  0.40245605867E+01  0.10334006274E+03 -0.21597184170E+03  0.23945605456E+03  0.00000000000E+00 0.  1.
         11    1    5    5    0    0  0.11604389578E+01  0.23285070957E+02  0.26485523527E+02  0.35284899101E+02  0.00000000000E+00 0. -1.
        -11    1    5    5    0    0 -0.17138000003E+03  0.33467058721E+03  0.69218724512E+02  0.38231758811E+03  0.00000000000E+00 0.  1.
          3    1    6    6  503    0  0.92359135192E+02 -0.38344867062E+03  0.16646268009E+03  0.42810386206E+03  0.00000000000E+00 0. -1.
         -3    1    6    6    0  503  0.45592444661E+02 -0.74837720443E+02  0.77265923328E+02  0.11683055388E+03  0.00000000000E+00 0.  1.
<mgrwt>
<rscale>  0 0.12676157E+04</rscale>
<asrwt>0</asrwt>
<pdfrwt beam="1">  1        2 0.10244269E+00 0.12676157E+04</pdfrwt>
<pdfrwt beam="2">  1       -1 0.92812727E-01 0.12676157E+04</pdfrwt>
<totfact> 0.55269200E+01</totfact>
</mgrwt>
</event>
<event>
12    6  0.9533401E-008  0.1378377E+04  0.7818608E-02  0.8969621E-01
          2   -1    0    0  501    0  0.00000000000E+00  0.00000000000E+00  0.80832061371E+03  0.80832061371E+03  0.00000000000E+00 0. -1.
         -1   -1    0    0    0  501 -0.00000000000E+00 -0.00000000000E+00 -0.58761443879E+03  0.58761443879E+03  0.00000000000E+00 0.  1.
         24    2    1    2    0    0 -0.38753101644E+03  0.43391830110E+02  0.12174074134E+03  0.41483194158E+03  0.72122063404E+02 0.  0.
        254    2    1    2    0    0  0.38753101644E+03 -0.43391830110E+02  0.98965433580E+02  0.98110311093E+03  0.89482177980E+03 0.  0.
         23    2    4    4    0    0  0.98275511045E+02  0.19225474009E+03  0.41953433695E+03  0.48077460506E+03  0.92277840431E+02 0.  0.
         23    2    4    4    0    0  0.28925550539E+03 -0.23564657020E+03 -0.32056890337E+03  0.50032850587E+03  0.91466597885E+02 0.  0.
          4    1    3    3  502    0 -0.11697556071E+03  0.57014147629E+01  0.34867647427E+01  0.11716631539E+03  0.00000000000E+00 0. -1.
         -3    1    3    3    0  502 -0.27055545573E+03  0.37690415347E+02  0.11825397659E+03  0.29766562619E+03  0.00000000000E+00 0.  1.
         11    1    5    5    0    0  0.21154826324E+02  0.80982802838E+00  0.12986423702E+02  0.24836056426E+02  0.00000000000E+00 0. -1.
        -11    1    5    5    0    0  0.77120684721E+02  0.19144491207E+03  0.40654791324E+03  0.45593854863E+03  0.00000000000E+00 0.  1.
          4    1    6    6  503    0  0.24834503610E+03 -0.15932798134E+03 -0.22282789789E+03  0.36974712260E+03  0.00000000000E+00 0.  1.
         -4    1    6    6    0  503  0.40910469290E+02 -0.76318588865E+02 -0.97741005477E+02  0.13058138327E+03  0.00000000000E+00 0. -1.
<mgrwt>
<rscale>  0 0.13783771E+04</rscale>
<asrwt>0</asrwt>
<pdfrwt beam="1">  1        2 0.12435702E+00 0.13783771E+04</pdfrwt>
<pdfrwt beam="2">  1       -1 0.90402222E-01 0.13783771E+04</pdfrwt>
<totfact> 0.45242624E+01</totfact>
</mgrwt>
</event>
<event>
12    6  0.9533401E-008  0.1908978E+04  0.7818608E-02  0.8650400E-01
          2   -1    0    0  501    0  0.00000000000E+00  0.00000000000E+00  0.21501087542E+04  0.21501087542E+04  0.00000000000E+00 0. -1.
         -1   -1    0    0    0  501 -0.00000000000E+00 -0.00000000000E+00 -0.42372228577E+03  0.42372228577E+03  0.00000000000E+00 0.  1.
         24    2    1    2    0    0  0.26654855118E+03 -0.30349303541E+03 -0.16137077099E+03  0.44234224228E+03  0.80436191460E+02 0.  0.
        254    2    1    2    0    0 -0.26654855118E+03  0.30349303541E+03  0.18877572394E+04  0.21314887977E+04  0.90358228569E+03 0.  0.
         23    2    4    4    0    0  0.26434592800E+03 -0.25632886711E+02  0.10246018375E+04  0.10623958474E+04  0.91324677781E+02 0.  0.
         23    2    4    4    0    0 -0.53089447918E+03  0.32912592212E+03  0.86315540191E+03  0.10690929502E+04  0.88032197106E+02 0.  0.
          2    1    3    3  502    0  0.12733179304E+02 -0.49904278333E+02 -0.33540106002E+02  0.61461447768E+02  0.00000000000E+00 0. -1.
         -1    1    3    3    0  502  0.25381537188E+03 -0.25358875708E+03 -0.12783066499E+03  0.38088079451E+03  0.00000000000E+00 0.  1.
         11    1    5    5    0    0  0.20772607024E+03 -0.46001123707E+02  0.88793757443E+03  0.91307138807E+03  0.00000000000E+00 0.  1.
        -11    1    5    5    0    0  0.56619857756E+02  0.20368236996E+02  0.13666426305E+03  0.14932445937E+03  0.00000000000E+00 0. -1.
          3    1    6    6  503    0 -0.19600694227E+01 -0.18511210132E+01 -0.12880751822E+01  0.29879188112E+01  0.00000000000E+00 0. -1.
         -3    1    6    6    0  503 -0.52893440976E+03  0.33097704313E+03  0.86444347709E+03  0.10661050314E+04  0.00000000000E+00 0.  1.
<mgrwt>
<rscale>  0 0.19089777E+04</rscale>
<asrwt>0</asrwt>
<pdfrwt beam="1">  1        2 0.33078596E+00 0.19089777E+04</pdfrwt>
<pdfrwt beam="2">  1       -1 0.65188045E-01 0.19089777E+04</pdfrwt>
<totfact> 0.14004182E+01</totfact>
</mgrwt>
</event>
<event>
12    6  0.9533401E-008  0.1891350E+04  0.7818608E-02  0.8659174E-01
          2   -1    0    0  501    0  0.00000000000E+00  0.00000000000E+00  0.17455998122E+04  0.17455998122E+04  0.00000000000E+00 0. -1.
         -1   -1    0    0    0  501 -0.00000000000E+00 -0.00000000000E+00 -0.51231767593E+03  0.51231767593E+03  0.00000000000E+00 0.  1.
         24    2    1    2    0    0  0.93608870827E+02 -0.58367815117E+03 -0.45876635550E+02  0.59683378348E+03  0.68286854924E+02 0.  0.
        254    2    1    2    0    0 -0.93608870827E+02  0.58367815117E+03  0.12791587718E+04  0.16610837047E+04  0.87949366428E+03 0.  0.
         23    2    4    4    0    0 -0.16781716990E+02  0.77839502753E+03  0.75143443314E+03  0.10860043331E+04  0.92581096150E+02 0.  0.
         23    2    4    4    0    0 -0.76827153837E+02 -0.19471687636E+03  0.52772433868E+03  0.57507937153E+03  0.91685508227E+02 0.  0.
          2    1    3    3  502    0  0.86974085544E+02 -0.48100152661E+03 -0.61890912366E+02  0.49270421674E+03  0.00000000000E+00 0. -1.
         -1    1    3    3    0  502  0.66347852832E+01 -0.10267662456E+03  0.16014276816E+02  0.10412956673E+03  0.00000000000E+00 0.  1.
         11    1    5    5    0    0  0.25398794443E+02  0.97999204312E+02  0.78439313455E+02  0.12806899976E+03  0.00000000000E+00 0. -1.
        -11    1    5    5    0    0 -0.42180511433E+02  0.68039582322E+03  0.67299511969E+03  0.95793533337E+03  0.00000000000E+00 0.  1.
          1    1    6    6  503    0  0.12703596531E+02 -0.18110001895E+02  0.11755742124E+03  0.11962065383E+03  0.00000000000E+00 0. -1.
         -1    1    6    6    0  503 -0.89530750368E+02 -0.17660687446E+03  0.41016691743E+03  0.45545871770E+03  0.00000000000E+00 0.  1.
<mgrwt>
<rscale>  0 0.18913505E+04</rscale>
<asrwt>0</asrwt>
<pdfrwt beam="1">  1        2 0.26855381E+00 0.18913505E+04</pdfrwt>
<pdfrwt beam="2">  1       -1 0.78818105E-01 0.18913505E+04</pdfrwt>
<totfact> 0.15898261E+01</totfact>
</mgrwt>
</event>
<event>
12    6  0.9533401E-008  0.1879731E+04  0.7818608E-02  0.8665012E-01
          2   -1    0    0  501    0  0.00000000000E+00  0.00000000000E+00  0.21243657427E+04  0.21243657427E+04  0.00000000000E+00 0. -1.
         -1   -1    0    0    0  501 -0.00000000000E+00 -0.00000000000E+00 -0.41581676850E+03  0.41581676850E+03  0.00000000000E+00 0.  1.
         24    2    1    2    0    0 -0.24748017812E+03  0.51175375470E+03  0.12178187389E+04  0.13463708851E+04  0.80583716080E+02 0.  0.
        254    2    1    2    0    0  0.24748017812E+03 -0.51175375470E+03  0.49073023527E+03  0.11938116261E+04  0.92802569514E+03 0.  0.
         23    2    4    4    0    0  0.44592238730E+03 -0.87235411346E+02  0.54223333811E+03  0.71349193725E+03  0.92719787980E+02 0.  0.
         23    2    4    4    0    0 -0.19844220917E+03 -0.42451834336E+03 -0.51503102836E+02  0.48031968887E+03  0.91974451250E+02 0.  0.
          2    1    3    3  502    0 -0.79115923584E+02  0.14130951312E+03  0.26914654388E+03  0.31411394421E+03  0.00000000000E+00 0. -1.
         -1    1    3    3    0  502 -0.16836425454E+03  0.37044424158E+03  0.94867219505E+03  0.10322569409E+04  0.00000000000E+00 0.  1.
         11    1    5    5    0    0  0.31459908761E+03 -0.90951496448E+02  0.33778210031E+03  0.47046945482E+03  0.00000000000E+00 0. -1.
        -11    1    5    5    0    0  0.13132329969E+03  0.37160851024E+01  0.20445123780E+03  0.24302248244E+03  0.00000000000E+00 0.  1.
          4    1    6    6  503    0 -0.17281878684E+03 -0.36417816474E+03 -0.10983602362E+02  0.40325266060E+03  0.00000000000E+00 0. -1.
         -4    1    6    6    0  503 -0.25623422338E+02 -0.60340178617E+02 -0.40519500473E+02  0.77067028270E+02  0.00000000000E+00 0.  1.
<mgrwt>
<rscale>  0 0.18797307E+04</rscale>
<asrwt>0</asrwt>
<pdfrwt beam="1">  1        2 0.32682549E+00 0.18797307E+04</pdfrwt>
<pdfrwt beam="2">  1       -1 0.63971812E-01 0.18797307E+04</pdfrwt>
<totfact> 0.15073595E+01</totfact>
</mgrwt>
</event>
<event>
12    6  0.9533401E-008  0.1397711E+04  0.7818608E-02  0.8955477E-01
         -1   -1    0    0    0  501 -0.00000000000E+00  0.00000000000E+00  0.35854282498E+03  0.35854282498E+03  0.00000000000E+00 0.  1.
          2   -1    0    0  501    0  0.00000000000E+00 -0.00000000000E+00 -0.13621768598E+04  0.13621768598E+04  0.00000000000E+00 0. -1.
         24    2    1    2    0    0  0.16734502365E+02  0.80405500064E+02 -0.78416250925E+03  0.79239454434E+03  0.78950522342E+02 0.  0.
        254    2    1    2    0    0 -0.16734502365E+02 -0.80405500064E+02 -0.21947152555E+03  0.92832514041E+03  0.89826205964E+03 0.  0.
         23    2    4    4    0    0 -0.41917514093E+03  0.78486496887E+01  0.45692047312E+02  0.43162339598E+03  0.91878140485E+02 0.  0.
         23    2    4    4    0    0  0.40244063856E+03 -0.88254149752E+02 -0.26516357286E+03  0.49670174443E+03  0.81569847555E+02 0.  0.
          4    1    3    3  502    0  0.16135759195E+02  0.96400100927E+02 -0.65765260625E+03  0.66487614839E+03  0.00000000000E+00 0. -1.
         -3    1    3    3    0  502  0.59874317030E+00 -0.15994600863E+02 -0.12650990300E+03  0.12751839596E+03  0.00000000000E+00 0.  1.
         11    1    5    5    0    0 -0.18937359680E+03 -0.54420106411E+01  0.65819186239E+02  0.20055956702E+03  0.00000000000E+00 0. -1.
        -11    1    5    5    0    0 -0.22980154413E+03  0.13290660330E+02 -0.20127138926E+02  0.23106382897E+03  0.00000000000E+00 0.  1.
          1    1    6    6  503    0  0.16533421785E+03 -0.60912977269E-01 -0.83262788995E+02  0.18511644804E+03  0.00000000000E+00 0.  1.
         -1    1    6    6    0  503  0.23710642071E+03 -0.88193236775E+02 -0.18190078387E+03  0.31158529639E+03  0.00000000000E+00 0. -1.
<mgrwt>
<rscale>  0 0.13977106E+04</rscale>
<asrwt>0</asrwt>
<pdfrwt beam="1">  1        2 0.20956567E+00 0.13977106E+04</pdfrwt>
<pdfrwt beam="2">  1       -1 0.55160435E-01 0.13977106E+04</pdfrwt>
<totfact> 0.56072587E+01</totfact>
</mgrwt>
</event>
<event>
12    6  0.9533401E-008  0.2808812E+04  0.7818608E-02  0.8300538E-01
          2   -1    0    0  501    0  0.00000000000E+00  0.00000000000E+00  0.30086165939E+04  0.30086165939E+04  0.00000000000E+00 0. -1.
         -1   -1    0    0    0  501 -0.00000000000E+00 -0.00000000000E+00 -0.65556915853E+03  0.65556915853E+03  0.00000000000E+00 0.  1.
         24    2    1    2    0    0 -0.10108282354E+04 -0.39270565095E+03  0.22774182271E+03  0.11110455510E+04  0.81021162584E+02 0.  0.
        254    2    1    2    0    0  0.10108282354E+04  0.39270565095E+03  0.21253056126E+04  0.25531402014E+04  0.90863055813E+03 0.  0.
         23    2    4    4    0    0  0.34127545172E+03 -0.15337006426E+03  0.12964312797E+04  0.13523915697E+04  0.90761138733E+02 0.  0.
         23    2    4    4    0    0  0.66955278370E+03  0.54607571521E+03  0.82887433292E+03  0.12007486317E+04  0.90912044360E+02 0.  0.
          2    1    3    3  502    0 -0.32580007438E+03 -0.16264057147E+03  0.57747802053E+02  0.36869018512E+03  0.00000000000E+00 0. -1.
         -1    1    3    3    0  502 -0.68502816103E+03 -0.23006507947E+03  0.16999402066E+03  0.74235536588E+03  0.00000000000E+00 0.  1.
         11    1    5    5    0    0  0.21019256322E+03 -0.14082107098E+03  0.87838792888E+03  0.91409892313E+03  0.00000000000E+00 0.  1.
        -11    1    5    5    0    0  0.13108288850E+03 -0.12548993286E+02  0.41804335082E+03  0.43829264659E+03  0.00000000000E+00 0. -1.
          1    1    6    6  503    0  0.88311745533E+02  0.59573861581E+02  0.14453550897E+03  0.17955089177E+03  0.00000000000E+00 0. -1.
         -1    1    6    6    0  503  0.58124103816E+03  0.48650185363E+03  0.68433882396E+03  0.10211977399E+04  0.00000000000E+00 0.  1.
<mgrwt>
<rscale>  0 0.28088120E+04</rscale>
<asrwt>0</asrwt>
<pdfrwt beam="1">  1        2 0.46286408E+00 0.28088120E+04</pdfrwt>
<pdfrwt beam="2">  1       -1 0.10085680E+00 0.28088120E+04</pdfrwt>
<totfact> 0.15876188E+00</totfact>
</mgrwt>
</event>
<event>
12    6  0.9533401E-008  0.3509419E+04  0.7818608E-02  0.8111561E-01
         -1   -1    0    0    0  501 -0.00000000000E+00  0.00000000000E+00  0.82602445288E+03  0.82602445288E+03  0.00000000000E+00 0.  1.
          2   -1    0    0  501    0  0.00000000000E+00 -0.00000000000E+00 -0.37274990962E+04  0.37274990962E+04  0.00000000000E+00 0. -1.
         24    2    1    2    0    0 -0.24343346573E+03 -0.13769542576E+04 -0.24598595159E+04  0.28306543471E+04  0.80201713270E+02 0.  0.
        254    2    1    2    0    0  0.24343346573E+03  0.13769542576E+04 -0.44161512736E+03  0.17228692020E+04  0.90442881794E+03 0.  0.
         23    2    4    4    0    0  0.24005093869E+03  0.14883665184E+04 -0.44216789900E+03  0.15737511869E+04  0.91219521702E+02 0.  0.
         23    2    4    4    0    0  0.33825270304E+01 -0.11141226084E+03  0.55277164773E+00  0.14911801505E+03  0.99054245252E+02 0.  0.
          2    1    3    3  502    0 -0.12047738014E+03 -0.90100623156E+03 -0.15924712410E+04  0.18336552789E+04  0.00000000000E+00 0. -1.
         -1    1    3    3    0  502 -0.12295608558E+03 -0.47594802602E+03 -0.86738827493E+03  0.99699906817E+03  0.00000000000E+00 0.  1.
         11    1    5    5    0    0  0.13482251654E+03  0.71052116427E+03 -0.25474442312E+03  0.76675430026E+03  0.00000000000E+00 0.  1.
        -11    1    5    5    0    0  0.10522842215E+03  0.77784535414E+03 -0.18742347588E+03  0.80699688667E+03  0.00000000000E+00 0. -1.
          4    1    6    6  503    0  0.37682737647E+02 -0.79287447652E+02 -0.30336504968E+02  0.92880523283E+02  0.00000000000E+00 0. -1.
         -4    1    6    6    0  503 -0.34300210616E+02 -0.32124813184E+02  0.30889276616E+02  0.56237491767E+02  0.00000000000E+00 0.  1.
<mgrwt>
<rscale>  0 0.35094190E+04</rscale>
<asrwt>0</asrwt>
<pdfrwt beam="1">  1        2 0.57346139E+00 0.35094190E+04</pdfrwt>
<pdfrwt beam="2">  1       -1 0.12708069E+00 0.35094190E+04</pdfrwt>
<totfact> 0.27812499E-01</totfact>
</mgrwt>
</event>
<event>
12    6  0.9533401E-008  0.3433990E+04  0.7818608E-02  0.8129614E-01
         -1   -1    0    0    0  501 -0.00000000000E+00  0.00000000000E+00  0.95716660067E+03  0.95716660067E+03  0.00000000000E+00 0.  1.
          2   -1    0    0  501    0  0.00000000000E+00 -0.00000000000E+00 -0.30799984934E+04  0.30799984934E+04  0.00000000000E+00 0. -1.
         24    2    1    2    0    0  0.52161676051E+03 -0.40196022417E+03  0.72230965268E+03  0.98084583310E+03  0.81677703815E+02 0.  0.
        254    2    1    2    0    0 -0.52161676051E+03  0.40196022417E+03 -0.28451415454E+04  0.30563192609E+04  0.90144381128E+03 0.  0.
         23    2    4    4    0    0  0.14784221077E+03  0.22408148440E+03 -0.29231598632E+03  0.40963591937E+03  0.10140571799E+03 0.  0.
         23    2    4    4    0    0 -0.66945897128E+03  0.17787873977E+03 -0.25528255591E+04  0.26466833416E+04  0.90543996378E+02 0.  0.
          4    1    3    3  502    0  0.27557580300E+02 -0.34589545389E+02  0.78046627643E+02  0.89705813460E+02  0.00000000000E+00 0. -1.
         -3    1    3    3    0  502  0.49405918021E+03 -0.36737067878E+03  0.64426302503E+03  0.89114001964E+03  0.00000000000E+00 0.  1.
         11    1    5    5    0    0  0.12260590335E+03  0.21775121131E+03 -0.22055952673E+03  0.33330811931E+03  0.00000000000E+00 0.  1.
        -11    1    5    5    0    0  0.25236307421E+02  0.63302730926E+01 -0.71756459590E+02  0.76327800064E+02  0.00000000000E+00 0. -1.
          3    1    6    6  503    0 -0.59090041511E+03  0.18320895873E+03 -0.22122333100E+04  0.22971079733E+04  0.00000000000E+00 0. -1.
         -3    1    6    6    0  503 -0.78558556174E+02 -0.53302189618E+01 -0.34059224906E+03  0.34957536827E+03  0.00000000000E+00 0.  1.
<mgrwt>
<rscale>  0 0.34339899E+04</rscale>
<asrwt>0</asrwt>
<pdfrwt beam="1">  1        2 0.47384592E+00 0.34339899E+04</pdfrwt>
<pdfrwt beam="2">  1       -1 0.14725640E+00 0.34339899E+04</pdfrwt>
<totfact> 0.53263341E-01</totfact>
</mgrwt>
</event>
<event>
12    6  0.9533401E-008  0.2122234E+04  0.7818608E-02  0.8551512E-01
          2   -1    0    0  501    0  0.00000000000E+00  0.00000000000E+00  0.21969387692E+04  0.21969387692E+04  0.00000000000E+00 0. -1.
         -1   -1    0    0    0  501 -0.00000000000E+00 -0.00000000000E+00 -0.51251739880E+03  0.51251739880E+03  0.00000000000E+00 0.  1.
         24    2    1    2    0    0 -0.54257800159E+03 -0.83120842328E+02 -0.20967750234E+03  0.59288603682E+03  0.79052105774E+02 0.  0.
        254    2    1    2    0    0  0.54257800159E+03  0.83120842328E+02  0.18940988728E+04  0.21165701312E+04  0.76873832882E+03 0.  0.
         23    2    4    4    0    0 -0.47662771791E+02  0.26761604167E+03  0.36232945861E+03  0.46203951580E+03  0.91147089988E+02 0.  0.
         23    2    4    4    0    0  0.59024077338E+03 -0.18449519934E+03  0.15317694142E+04  0.16545306154E+04  0.93441799882E+02 0.  0.
          4    1    3    3  502    0 -0.24560727570E+03 -0.74535413888E+02 -0.11316512786E+03  0.28050812460E+03  0.00000000000E+00 0. -1.
         -3    1    3    3    0  502 -0.29697072589E+03 -0.85854284402E+01 -0.96512374485E+02  0.31237791222E+03  0.00000000000E+00 0.  1.
         11    1    5    5    0    0 -0.51976262889E+02  0.62161929734E+02  0.95316707761E+02  0.12510360583E+03  0.00000000000E+00 0.  1.
        -11    1    5    5    0    0  0.43134910974E+01  0.20545411194E+03  0.26701275084E+03  0.33693590997E+03  0.00000000000E+00 0. -1.
          3    1    6    6  503    0  0.19005358846E+03 -0.99472479313E+02  0.58773128848E+03  0.62565422407E+03  0.00000000000E+00 0. -1.
         -3    1    6    6    0  503  0.40018718492E+03 -0.85022720028E+02  0.94403812567E+03  0.10288763913E+04  0.00000000000E+00 0.  1.
<mgrwt>
<rscale>  0 0.21222341E+04</rscale>
<asrwt>0</asrwt>
<pdfrwt beam="1">  1        2 0.33799058E+00 0.21222341E+04</pdfrwt>
<pdfrwt beam="2">  1       -1 0.78848831E-01 0.21222341E+04</pdfrwt>
<totfact> 0.87323007E+00</totfact>
</mgrwt>
</event>
<event>
12    6  0.9533401E-008  0.2653574E+04  0.7818608E-02  0.8350228E-01
         -1   -1    0    0    0  501 -0.00000000000E+00  0.00000000000E+00  0.20836401964E+04  0.20836401964E+04  0.00000000000E+00 0.  1.
          2   -1    0    0  501    0  0.00000000000E+00 -0.00000000000E+00 -0.84485036260E+03  0.84485036260E+03  0.00000000000E+00 0. -1.
         24    2    1    2    0    0  0.11279794621E+04 -0.20879956642E+03  0.81347222507E+03  0.14085750929E+04  0.80073749900E+02 0.  0.
        254    2    1    2    0    0 -0.11279794621E+04  0.20879956642E+03  0.42531760876E+03  0.15199154662E+04  0.90183869402E+03 0.  0.
         23    2    4    4    0    0 -0.34447705778E+03  0.30549459500E+03  0.54144674657E+03  0.71665999492E+03  0.91899826089E+02 0.  0.
         23    2    4    4    0    0 -0.78350240434E+03 -0.96695028576E+02 -0.11612913781E+03  0.80325547123E+03  0.92235726630E+02 0.  0.
          4    1    3    3  502    0  0.28154009858E+02 -0.18652620951E+02  0.25290748525E+02  0.42192303805E+02  0.00000000000E+00 0. -1.
         -3    1    3    3    0  502  0.10998254523E+04 -0.19014694547E+03  0.78818147655E+03  0.13663827891E+04  0.00000000000E+00 0.  1.
         11    1    5    5    0    0 -0.33080723601E+03  0.28323959603E+03  0.53484118427E+03  0.68971964489E+03  0.00000000000E+00 0. -1.
        -11    1    5    5    0    0 -0.13669821773E+02  0.22254998971E+02  0.66055623003E+01  0.26940350031E+02  0.00000000000E+00 0.  1.
          1    1    6    6  503    0 -0.70888827957E+03 -0.11160678052E+03 -0.92357160981E+02  0.72353888047E+03  0.00000000000E+00 0. -1.
         -1    1    6    6    0  503 -0.74614124767E+02  0.14911751941E+02 -0.23771976825E+02  0.79716590763E+02  0.00000000000E+00 0.  1.
<mgrwt>
<rscale>  0 0.26535743E+04</rscale>
<asrwt>0</asrwt>
<pdfrwt beam="1">  1        2 0.12997698E+00 0.26535743E+04</pdfrwt>
<pdfrwt beam="2">  1       -1 0.32056003E+00 0.26535743E+04</pdfrwt>
<totfact> 0.77999685E-01</totfact>
</mgrwt>
</event>
<event>
12    6  0.9533401E-008  0.2314876E+04  0.7818608E-02  0.8472079E-01
          2   -1    0    0  501    0  0.00000000000E+00  0.00000000000E+00  0.11033461380E+04  0.11033461380E+04  0.00000000000E+00 0. -1.
         -1   -1    0    0    0  501 -0.00000000000E+00 -0.00000000000E+00 -0.12141820435E+04  0.12141820435E+04  0.00000000000E+00 0.  1.
         24    2    1    2    0    0  0.83402288391E+02 -0.89375361893E+03 -0.44099388883E+03  0.10033465949E+04  0.80481714488E+02 0.  0.
        254    2    1    2    0    0 -0.83402288391E+02  0.89375361893E+03  0.33015798334E+03  0.13141815866E+04  0.90128656684E+03 0.  0.
         23    2    4    4    0    0  0.17376926950E+03  0.21642081990E+03  0.48663042766E+03  0.56742230574E+03  0.90139722732E+02 0.  0.
         23    2    4    4    0    0 -0.25717155789E+03  0.67733279903E+03 -0.15647244432E+03  0.74675928087E+03  0.90823272954E+02 0.  0.
          2    1    3    3  502    0  0.72064340773E+02 -0.50354004236E+03 -0.28400558714E+03  0.58258477237E+03  0.00000000000E+00 0. -1.
         -1    1    3    3    0  502  0.11337947618E+02 -0.39021357657E+03 -0.15698830170E+03  0.42076182249E+03  0.00000000000E+00 0.  1.
         11    1    5    5    0    0 -0.79925141596E+01  0.49723526186E+01  0.38436518577E+02  0.39572345565E+02  0.00000000000E+00 0.  1.
        -11    1    5    5    0    0  0.18176178366E+03  0.21144846728E+03  0.44819390909E+03  0.52784996018E+03  0.00000000000E+00 0. -1.
          3    1    6    6  503    0 -0.17899548037E+03  0.35631210775E+03 -0.65768185877E+02  0.40413259507E+03  0.00000000000E+00 0. -1.
         -3    1    6    6    0  503 -0.78176077515E+02  0.32102069128E+03 -0.90704258447E+02  0.34262668580E+03  0.00000000000E+00 0.  1.
<mgrwt>
<rscale>  0 0.23148763E+04</rscale>
<asrwt>0</asrwt>
<pdfrwt beam="1">  1        2 0.16974556E+00 0.23148763E+04</pdfrwt>
<pdfrwt beam="2">  1       -1 0.18679724E+00 0.23148763E+04</pdfrwt>
<totfact> 0.41664661E+00</totfact>
</mgrwt>
</event>
<event>
12    6  0.9533401E-008  0.1705376E+04  0.7818608E-02  0.8758304E-01
         -1   -1    0    0    0  501 -0.00000000000E+00  0.00000000000E+00  0.11655105192E+04  0.11655105192E+04  0.00000000000E+00 0.  1.
          2   -1    0    0  501    0  0.00000000000E+00 -0.00000000000E+00 -0.62382692142E+03  0.62382692142E+03  0.00000000000E+00 0. -1.
         24    2    1    2    0    0 -0.47327071179E+03  0.33731679485E+03  0.36995440955E+02  0.58787750818E+03  0.80395990277E+02 0.  0.
        254    2    1    2    0    0  0.47327071179E+03 -0.33731679485E+03  0.50468815687E+03  0.12014599325E+04  0.92251181398E+03 0.  0.
         23    2    4    4    0    0  0.64273058699E+03 -0.19071821822E+03  0.63360306707E+03  0.92673959656E+03  0.88979700104E+02 0.  0.
         23    2    4    4    0    0 -0.16945987520E+03 -0.14659857663E+03 -0.12891491020E+03  0.27472033592E+03  0.92975356527E+02 0.  0.
          2    1    3    3  502    0 -0.39544615790E+03  0.30906192694E+03  0.48737136743E+02  0.50425414920E+03  0.00000000000E+00 0. -1.
         -1    1    3    3    0  502 -0.77824553890E+02  0.28254867906E+02 -0.11741695788E+02  0.83623358989E+02  0.00000000000E+00 0.  1.
         11    1    5    5    0    0  0.16921923802E+03 -0.90029416418E+02  0.16335728078E+03  0.25184528489E+03  0.00000000000E+00 0. -1.
        -11    1    5    5    0    0  0.47351134897E+03 -0.10068880180E+03  0.47024578629E+03  0.67489431168E+03  0.00000000000E+00 0.  1.
          3    1    6    6  503    0 -0.30684892823E+01  0.30237015243E+01 -0.29581904996E+02  0.29893937522E+02  0.00000000000E+00 0. -1.
         -3    1    6    6    0  503 -0.16639138592E+03 -0.14962227816E+03 -0.99333005200E+02  0.24482639839E+03  0.00000000000E+00 0.  1.
<mgrwt>
<rscale>  0 0.17053760E+04</rscale>
<asrwt>0</asrwt>
<pdfrwt beam="1">  1        2 0.95973372E-01 0.17053760E+04</pdfrwt>
<pdfrwt beam="2">  1       -1 0.17930931E+00 0.17053760E+04</pdfrwt>
<totfact> 0.10816443E+01</totfact>
</mgrwt>
</event>
<event>
12    6  0.9533401E-008  0.1116821E+04  0.7818608E-02  0.9188950E-01
          2   -1    0    0  501    0  0.00000000000E+00  0.00000000000E+00  0.10465527897E+04  0.10465527897E+04  0.00000000000E+00 0. -1.
         -1   -1    0    0    0  501 -0.00000000000E+00 -0.00000000000E+00 -0.29795200888E+03  0.29795200888E+03  0.00000000000E+00 0.  1.
         24    2    1    2    0    0  0.46860793963E+02 -0.14696536900E+01 -0.76206246001E+02  0.12013276023E+03  0.80164794374E+02 0.  0.
        254    2    1    2    0    0 -0.46860793963E+02  0.14696536900E+01  0.82480702683E+03  0.12243720384E+04  0.90364935839E+03 0.  0.
         23    2    4    4    0    0 -0.34458032031E+03 -0.22459176652E+03  0.70557219988E+03  0.82179881882E+03  0.91346103495E+02 0.  0.
         23    2    4    4    0    0  0.29771952635E+03  0.22606142021E+03  0.11923482694E+03  0.40257321954E+03  0.90042051626E+02 0.  0.
          4    1    3    3  502    0 -0.14115544472E+02 -0.80246325759E+01  0.62257973396E+01  0.17389763547E+02  0.00000000000E+00 0. -1.
         -3    1    3    3    0  502  0.60976338435E+02  0.65549788859E+01 -0.82432043341E+02  0.10274299668E+03  0.00000000000E+00 0.  1.
         11    1    5    5    0    0 -0.19422388232E+03 -0.13656959282E+03  0.49104598788E+03  0.54543591040E+03  0.00000000000E+00 0.  1.
        -11    1    5    5    0    0 -0.15035643800E+03 -0.88022173699E+02  0.21452621201E+03  0.27636290841E+03  0.00000000000E+00 0. -1.
          4    1    6    6  503    0  0.22755899173E+03  0.12028906945E+03  0.73910389868E+02  0.26779712597E+03  0.00000000000E+00 0. -1.
         -4    1    6    6    0  503  0.70160534619E+02  0.10577235076E+03  0.45324437075E+02  0.13477609357E+03  0.00000000000E+00 0.  1.
<mgrwt>
<rscale>  0 0.11168214E+04</rscale>
<asrwt>0</asrwt>
<pdfrwt beam="1">  1        2 0.16100812E+00 0.11168214E+04</pdfrwt>
<pdfrwt beam="2">  1       -1 0.45838771E-01 0.11168214E+04</pdfrwt>
<totfact> 0.12582146E+02</totfact>
</mgrwt>
</event>
<event>
12    6  0.9533401E-008  0.2310187E+04  0.7818608E-02  0.8473915E-01
          2   -1    0    0  501    0  0.00000000000E+00  0.00000000000E+00  0.12179864590E+04  0.12179864590E+04  0.00000000000E+00 0. -1.
         -1   -1    0    0    0  501 -0.00000000000E+00 -0.00000000000E+00 -0.10954478161E+04  0.10954478161E+04  0.00000000000E+00 0.  1.
         24    2    1    2    0    0  0.17146708858E+03  0.83302868802E+03 -0.43533865273E+03  0.95875007838E+03  0.79650566229E+02 0.  0.
        254    2    1    2    0    0 -0.17146708858E+03 -0.83302868802E+03  0.55787729564E+03  0.13546841966E+04  0.89476501835E+03 0.  0.
         23    2    4    4    0    0 -0.91831749500E+02  0.38361268455E+02 -0.16679144790E+03  0.21491186867E+03  0.91994929583E+02 0.  0.
         23    2    4    4    0    0 -0.79635339083E+02 -0.87138995648E+03  0.72466874353E+03  0.11397723280E+04  0.90961135889E+02 0.  0.
          2    1    3    3  502    0  0.10026345529E+03  0.29890134160E+03 -0.16750773583E+03  0.35700646218E+03  0.00000000000E+00 0. -1.
         -1    1    3    3    0  502  0.71203633297E+02  0.53412734642E+03 -0.26783091690E+03  0.60174361620E+03  0.00000000000E+00 0.  1.
         11    1    5    5    0    0 -0.86938572758E+02  0.11420350841E+02 -0.16574478374E+03  0.18751019488E+03  0.00000000000E+00 0. -1.
        -11    1    5    5    0    0 -0.48931767422E+01  0.26940917614E+02 -0.10466641558E+01  0.27401673787E+02  0.00000000000E+00 0.  1.
          1    1    6    6  503    0 -0.97332858642E+02 -0.67090339616E+03  0.57536432338E+03  0.88917329974E+03  0.00000000000E+00 0. -1.
         -1    1    6    6    0  503  0.17697519559E+02 -0.20048656032E+03  0.14930442015E+03  0.25059902822E+03  0.00000000000E+00 0.  1.
<mgrwt>
<rscale>  0 0.23101867E+04</rscale>
<asrwt>0</asrwt>
<pdfrwt beam="1">  1        2 0.18738253E+00 0.23101867E+04</pdfrwt>
<pdfrwt beam="2">  1       -1 0.16853043E+00 0.23101867E+04</pdfrwt>
<totfact> 0.48135647E+00</totfact>
</mgrwt>
</event>
<event>
12    6  0.9533401E-008  0.1515121E+04  0.7818608E-02  0.8874459E-01
          2   -1    0    0  501    0  0.00000000000E+00  0.00000000000E+00  0.23208994295E+04  0.23208994295E+04  0.00000000000E+00 0. -1.
         -1   -1    0    0    0  501 -0.00000000000E+00 -0.00000000000E+00 -0.24727401697E+03  0.24727401697E+03  0.00000000000E+00 0.  1.
         24    2    1    2    0    0 -0.33816022216E+03 -0.35860694756E+03  0.72273847971E+03  0.87851594143E+03  0.80548560517E+02 0.  0.
        254    2    1    2    0    0  0.33816022216E+03  0.35860694756E+03  0.13508869329E+04  0.16896575051E+04  0.88718414120E+03 0.  0.
         23    2    4    4    0    0 -0.12995084190E+03 -0.17038572689E+03  0.64950245647E+03  0.69000928190E+03  0.91328259030E+02 0.  0.
         23    2    4    4    0    0  0.46811106406E+03  0.52899267445E+03  0.70138447638E+03  0.99964822317E+03  0.91625151991E+02 0.  0.
          4    1    3    3  502    0 -0.14114259824E+03 -0.19139395452E+03  0.29680378498E+03  0.38032271249E+03  0.00000000000E+00 0. -1.
         -3    1    3    3    0  502 -0.19701762392E+03 -0.16721299305E+03  0.42593469473E+03  0.49819322893E+03  0.00000000000E+00 0.  1.
         11    1    5    5    0    0 -0.26905999180E+02 -0.25156876925E+02  0.37250442153E+02  0.52386989693E+02  0.00000000000E+00 0. -1.
        -11    1    5    5    0    0 -0.10304484272E+03 -0.14522884996E+03  0.61225201432E+03  0.63762229220E+03  0.00000000000E+00 0.  1.
          4    1    6    6  503    0  0.12810290617E+03  0.10378389357E+03  0.20329747464E+03  0.26174666059E+03  0.00000000000E+00 0. -1.
         -4    1    6    6    0  503  0.34000815789E+03  0.42520878088E+03  0.49808700173E+03  0.73790156259E+03  0.00000000000E+00 0.  1.
<mgrwt>
<rscale>  0 0.15151213E+04</rscale>
<asrwt>0</asrwt>
<pdfrwt beam="1">  1        2 0.35706144E+00 0.15151213E+04</pdfrwt>
<pdfrwt beam="2">  1       -1 0.38042158E-01 0.15151213E+04</pdfrwt>
<totfact> 0.32418121E+01</totfact>
</mgrwt>
</event>
<event>
12    6  0.9533401E-008  0.3543000E+04  0.7818608E-02  0.8103674E-01
          2   -1    0    0  501    0  0.00000000000E+00  0.00000000000E+00  0.18603223699E+04  0.18603223699E+04  0.00000000000E+00 0. -1.
         -1   -1    0    0    0  501 -0.00000000000E+00 -0.00000000000E+00 -0.16869184717E+04  0.16869184717E+04  0.00000000000E+00 0.  1.
         24    2    1    2    0    0 -0.56210291636E+03 -0.10536785376E+04  0.12238150054E+04  0.17118581308E+04  0.80851366825E+02 0.  0.
        254    2    1    2    0    0  0.56210291636E+03  0.10536785376E+04 -0.10504111072E+04  0.18353827108E+04  0.91600657859E+03 0.  0.
         23    2    4    4    0    0  0.24746330021E+03  0.89230870769E+03 -0.11286799317E+04  0.14632575396E+04  0.98748793710E+02 0.  0.
         23    2    4    4    0    0  0.31463961616E+03  0.16136982986E+03  0.78268824536E+02  0.37212517119E+03  0.85515051869E+02 0.  0.
          4    1    3    3  502    0 -0.29377494526E+03 -0.61471489405E+03  0.65942411086E+03  0.94816574364E+03  0.00000000000E+00 0. -1.
         -3    1    3    3    0  502 -0.26832797110E+03 -0.43896364351E+03  0.56439089450E+03  0.76369238715E+03  0.00000000000E+00 0.  1.
         11    1    5    5    0    0  0.24113626596E+03  0.73978792014E+03 -0.96075476593E+03  0.12363181572E+04  0.00000000000E+00 0.  1.
        -11    1    5    5    0    0  0.63270342458E+01  0.15252078755E+03 -0.16792516579E+03  0.22693938244E+03  0.00000000000E+00 0. -1.
          4    1    6    6  503    0  0.51914578154E+02  0.37600330538E+02  0.48105128418E+02  0.80143693835E+02  0.00000000000E+00 0.  1.
         -4    1    6    6    0  503  0.26272503800E+03  0.12376949932E+03  0.30163696118E+02  0.29198147736E+03  0.00000000000E+00 0. -1.
<mgrwt>
<rscale>  0 0.35430000E+04</rscale>
<asrwt>0</asrwt>
<pdfrwt beam="1">  1        2 0.28620344E+00 0.35430000E+04</pdfrwt>
<pdfrwt beam="2">  1       -1 0.25952592E+00 0.35430000E+04</pdfrwt>
<totfact> 0.44974967E-01</totfact>
</mgrwt>
</event>
<event>
12    6  0.9533401E-008  0.1121893E+04  0.7818608E-02  0.9184112E-01
         -1   -1    0    0    0  501 -0.00000000000E+00  0.00000000000E+00  0.10880463982E+03  0.10880463982E+03  0.00000000000E+00 0.  1.
          2   -1    0    0  501    0  0.00000000000E+00 -0.00000000000E+00 -0.28919835852E+04  0.28919835852E+04  0.00000000000E+00 0. -1.
         24    2    1    2    0    0 -0.14920828237E+03  0.10727793786E+03 -0.46516251643E+03  0.50646486873E+03  0.79742266659E+02 0.  0.
        254    2    1    2    0    0  0.14920828237E+03 -0.10727793786E+03 -0.23180164289E+04  0.24943233562E+04  0.90259468938E+03 0.  0.
         23    2    4    4    0    0  0.16485108268E+03  0.32217206350E+03 -0.50026164447E+03  0.62419411278E+03  0.91574338887E+02 0.  0.
         23    2    4    4    0    0 -0.15642800303E+02 -0.42945000136E+03 -0.18177547845E+04  0.18701292435E+04  0.92081105560E+02 0.  0.
          2    1    3    3  502    0 -0.18259367673E+02 -0.43408367119E+01 -0.11262269179E+03  0.11417582090E+03  0.00000000000E+00 0. -1.
         -1    1    3    3    0  502 -0.13094891470E+03  0.11161877457E+03 -0.35253982464E+03  0.39228904784E+03  0.00000000000E+00 0.  1.
         11    1    5    5    0    0  0.88487302116E+02  0.24030064419E+03 -0.29711343275E+03  0.39223818549E+03  0.00000000000E+00 0. -1.
        -11    1    5    5    0    0  0.76363780560E+02  0.81871419308E+02 -0.20314821171E+03  0.23195592729E+03  0.00000000000E+00 0.  1.
          4    1    6    6  503    0 -0.31042566957E+02 -0.11582566380E+03 -0.37939808195E+03  0.39789713488E+03  0.00000000000E+00 0.  1.
         -4    1    6    6    0  503  0.15399766654E+02 -0.31362433756E+03 -0.14383567025E+04  0.14722321086E+04  0.00000000000E+00 0. -1.
<mgrwt>
<rscale>  0 0.11218935E+04</rscale>
<asrwt>0</asrwt>
<pdfrwt beam="1">  1        2 0.44492048E+00 0.11218935E+04</pdfrwt>
<pdfrwt beam="2">  1       -1 0.16739178E-01 0.11218935E+04</pdfrwt>
<totfact> 0.64072380E+01</totfact>
</mgrwt>
</event>
<event>
12    6  0.9533401E-008  0.1985034E+04  0.7818608E-02  0.8613650E-01
         -1   -1    0    0    0  501 -0.00000000000E+00  0.00000000000E+00  0.54501307755E+03  0.54501307755E+03  0.00000000000E+00 0.  1.
          2   -1    0    0  501    0  0.00000000000E+00 -0.00000000000E+00 -0.18074610735E+04  0.18074610735E+04  0.00000000000E+00 0. -1.
         24    2    1    2    0    0 -0.38016363709E+02 -0.68006273303E+03 -0.97111892795E+03  0.11888334934E+04  0.79514388783E+02 0.  0.
        254    2    1    2    0    0  0.38016363709E+02  0.68006273303E+03 -0.29132906800E+03  0.11636406577E+04  0.89736079117E+03 0.  0.
         23    2    4    4    0    0 -0.36962884804E+03  0.19800421343E+03  0.64965208221E+02  0.43296944461E+03  0.86086629903E+02 0.  0.
         23    2    4    4    0    0  0.40764521175E+03  0.48205851960E+03 -0.35629427622E+03  0.73067121305E+03  0.91541112803E+02 0.  0.
          2    1    3    3  502    0 -0.44095865195E+02 -0.22169840154E+03 -0.35581741105E+03  0.42154555694E+03  0.00000000000E+00 0. -1.
         -1    1    3    3    0  502  0.60795014865E+01 -0.45836433149E+03 -0.61530151690E+03  0.76728793645E+03  0.00000000000E+00 0.  1.
         11    1    5    5    0    0 -0.32603224798E+03  0.18691466825E+03  0.82374588581E+02  0.38473327485E+03  0.00000000000E+00 0.  1.
        -11    1    5    5    0    0 -0.43596600056E+02  0.11089545180E+02 -0.17409380360E+02  0.48236169762E+02  0.00000000000E+00 0. -1.
          1    1    6    6  503    0  0.46579040311E+01  0.34927664962E+02 -0.28168454228E+02  0.45112078906E+02  0.00000000000E+00 0. -1.
         -1    1    6    6    0  503  0.40298730772E+03  0.44713085464E+03 -0.32812582199E+03  0.68555913414E+03  0.00000000000E+00 0.  1.
<mgrwt>
<rscale>  0 0.19850339E+04</rscale>
<asrwt>0</asrwt>
<pdfrwt beam="1">  1        2 0.27807094E+00 0.19850339E+04</pdfrwt>
<pdfrwt beam="2">  1       -1 0.83848163E-01 0.19850339E+04</pdfrwt>
<totfact> 0.12766552E+01</totfact>
</mgrwt>
</event>
<event>
12    6  0.9533401E-008  0.1612283E+04  0.7818608E-02  0.8813038E-01
         -1   -1    0    0    0  501 -0.00000000000E+00  0.00000000000E+00  0.63389645963E+03  0.63389645963E+03  0.00000000000E+00 0.  1.
          2   -1    0    0  501    0  0.00000000000E+00 -0.00000000000E+00 -0.10251894921E+04  0.10251894921E+04  0.00000000000E+00 0. -1.
         24    2    1    2    0    0 -0.37930784650E+03 -0.27993134583E+03  0.16890757734E+03  0.50713272812E+03  0.80111381547E+02 0.  0.
        254    2    1    2    0    0  0.37930784650E+03  0.27993134583E+03 -0.56020060981E+03  0.11519532236E+04  0.88934554891E+03 0.  0.
         23    2    4    4    0    0  0.39718551411E+03 -0.20023917761E+03 -0.46968882525E+03  0.65468158307E+03  0.10073887917E+03 0.  0.
         23    2    4    4    0    0 -0.17877667614E+02  0.48017052344E+03 -0.90511784563E+02  0.49727164054E+03  0.90572395123E+02 0.  0.
          2    1    3    3  502    0 -0.28694599377E+02 -0.10370570861E+01  0.11204010122E+01  0.28735184343E+02  0.00000000000E+00 0. -1.
         -1    1    3    3    0  502 -0.35061324712E+03 -0.27889428874E+03  0.16778717633E+03  0.47839754378E+03  0.00000000000E+00 0.  1.
         11    1    5    5    0    0  0.14619556149E+02 -0.36611984295E+02 -0.50251923840E+02  0.63870373927E+02  0.00000000000E+00 0. -1.
        -11    1    5    5    0    0  0.38256595796E+03 -0.16362719332E+03 -0.41943690141E+03  0.59081120914E+03  0.00000000000E+00 0.  1.
          4    1    6    6  503    0  0.16902834390E+02  0.51507735051E+02 -0.32759492084E+02  0.63339852400E+02  0.00000000000E+00 0. -1.
         -4    1    6    6    0  503 -0.34780502004E+02  0.42866278839E+03 -0.57752292478E+02  0.43393178814E+03  0.00000000000E+00 0.  1.
<mgrwt>
<rscale>  0 0.16122828E+04</rscale>
<asrwt>0</asrwt>
<pdfrwt beam="1">  1        2 0.15772146E+00 0.16122828E+04</pdfrwt>
<pdfrwt beam="2">  1       -1 0.97522533E-01 0.16122828E+04</pdfrwt>
<totfact> 0.26776580E+01</totfact>
</mgrwt>
</event>
<event>
12    6  0.9533401E-008  0.1083917E+04  0.7818608E-02  0.9221010E-01
         -1   -1    0    0    0  501 -0.00000000000E+00  0.00000000000E+00  0.45187396006E+03  0.45187396006E+03  0.00000000000E+00 0.  1.
          2   -1    0    0  501    0  0.00000000000E+00 -0.00000000000E+00 -0.65000257946E+03  0.65000257946E+03  0.00000000000E+00 0. -1.
         24    2    1    2    0    0 -0.96641961013E+02 -0.81619194459E+01 -0.14068463084E+03  0.18994765382E+03  0.82955773019E+02 0.  0.
        254    2    1    2    0    0  0.96641961013E+02  0.81619194459E+01 -0.57443988557E+02  0.91192888570E+03  0.90493546465E+03 0.  0.
         23    2    4    4    0    0  0.32485410271E+03 -0.84014398893E+02  0.30639682876E+03  0.46318571645E+03  0.89852011557E+02 0.  0.
         23    2    4    4    0    0 -0.22821214170E+03  0.92176318339E+02 -0.36384081732E+03  0.44874316925E+03  0.91722605290E+02 0.  0.
          2    1    3    3  502    0 -0.42950508485E+02  0.26710282661E+02 -0.10525312377E+03  0.11677502063E+03  0.00000000000E+00 0. -1.
         -1    1    3    3    0  502 -0.53691452528E+02 -0.34872202107E+02 -0.35431507071E+02  0.73172633188E+02  0.00000000000E+00 0.  1.
         11    1    5    5    0    0  0.14001328281E+03 -0.39437932141E+02  0.74899545228E+02  0.16361238257E+03  0.00000000000E+00 0.  1.
        -11    1    5    5    0    0  0.18484081990E+03 -0.44576466753E+02  0.23149728353E+03  0.29957333388E+03  0.00000000000E+00 0. -1.
          2    1    6    6  503    0 -0.11017733581E+03  0.13181592985E+02 -0.22108483124E+03  0.24736875778E+03  0.00000000000E+00 0. -1.
         -2    1    6    6    0  503 -0.11803480588E+03  0.78994725354E+02 -0.14275598607E+03  0.20137441147E+03  0.00000000000E+00 0.  1.
<mgrwt>
<rscale>  0 0.10839174E+04</rscale>
<asrwt>0</asrwt>
<pdfrwt beam="1">  1        2 0.10000040E+00 0.10839174E+04</pdfrwt>
<pdfrwt beam="2">  1       -1 0.69519071E-01 0.10839174E+04</pdfrwt>
<totfact> 0.10686629E+02</totfact>
</mgrwt>
</event>
<event>
12    6  0.9533401E-008  0.1956398E+04  0.7818608E-02  0.8627282E-01
          2   -1    0    0  501    0  0.00000000000E+00  0.00000000000E+00  0.25160017695E+04  0.25160017695E+04  0.00000000000E+00 0. -1.
         -1   -1    0    0    0  501 -0.00000000000E+00 -0.00000000000E+00 -0.38031510126E+03  0.38031510126E+03  0.00000000000E+00 0.  1.
         24    2    1    2    0    0  0.14479998285E+02  0.14435135028E+03  0.19684686011E+04  0.19753650521E+04  0.78431323798E+02 0.  0.
        254    2    1    2    0    0 -0.14479998285E+02 -0.14435135028E+03  0.16721806711E+03  0.92095181871E+03  0.89394820193E+03 0.  0.
         23    2    4    4    0    0  0.32569357536E+03  0.21356861672E+03  0.98887988276E+02  0.41224633732E+03  0.92088812179E+02 0.  0.
         23    2    4    4    0    0 -0.34017357365E+03 -0.35791996701E+03  0.68330078835E+02  0.50870548139E+03  0.10142733425E+03 0.  0.
          2    1    3    3  502    0  0.30778938335E+01  0.10711615611E+03  0.17620352872E+04  0.17652908253E+04  0.00000000000E+00 0. -1.
         -1    1    3    3    0  502  0.11402104452E+02  0.37235194175E+02  0.20643331390E+03  0.21007422678E+03  0.00000000000E+00 0.  1.
         11    1    5    5    0    0  0.22390414094E+03  0.95666240031E+02  0.46319300401E+02  0.24785191426E+03  0.00000000000E+00 0.  1.
        -11    1    5    5    0    0  0.10178943442E+03  0.11790237669E+03  0.52568687875E+02  0.16439442306E+03  0.00000000000E+00 0. -1.
          4    1    6    6  503    0 -0.51993563848E+02 -0.11002532108E+03 -0.39857942527E+01  0.12175708816E+03  0.00000000000E+00 0. -1.
         -4    1    6    6    0  503 -0.28818000980E+03 -0.24789464593E+03  0.72315873088E+02  0.38694839323E+03  0.00000000000E+00 0.  1.
<mgrwt>
<rscale>  0 0.19563982E+04</rscale>
<asrwt>0</asrwt>
<pdfrwt beam="1">  1        2 0.38707719E+00 0.19563982E+04</pdfrwt>
<pdfrwt beam="2">  1       -1 0.58510017E-01 0.19563982E+04</pdfrwt>
<totfact> 0.10712801E+01</totfact>
</mgrwt>
</event>
<event>
12    6  0.9533401E-008  0.2251542E+04  0.7818608E-02  0.8497276E-01
         -1   -1    0    0    0  501 -0.00000000000E+00  0.00000000000E+00  0.39978486382E+03  0.39978486382E+03  0.00000000000E+00 0.  1.
          2   -1    0    0  501    0  0.00000000000E+00 -0.00000000000E+00 -0.31701048077E+04  0.31701048077E+04  0.00000000000E+00 0. -1.
         24    2    1    2    0    0  0.56927516645E+02  0.67343980458E+03 -0.11921193089E+03  0.69084046460E+03  0.79291553936E+02 0.  0.
        254    2    1    2    0    0 -0.56927516645E+02 -0.67343980458E+03 -0.26511080130E+04  0.28790492070E+04  0.89654265198E+03 0.  0.
         23    2    4    4    0    0 -0.40065863153E+03 -0.56263175029E+03 -0.21137677435E+04  0.22255840429E+04  0.90157824428E+02 0.  0.
         23    2    4    4    0    0  0.34373111489E+03 -0.11080805429E+03 -0.53734026953E+03  0.65346516401E+03  0.88615185417E+02 0.  0.
          4    1    3    3  502    0  0.24181518025E+02  0.47065737157E+02 -0.15121680875E+02  0.55032669030E+02  0.00000000000E+00 0. -1.
         -3    1    3    3    0  502  0.32745998619E+02  0.62637406742E+03 -0.10409025001E+03  0.63580779557E+03  0.00000000000E+00 0.  1.
         11    1    5    5    0    0 -0.75683489487E+02 -0.16594274915E+03 -0.49498417013E+03  0.52751712318E+03  0.00000000000E+00 0. -1.
        -11    1    5    5    0    0 -0.32497514204E+03 -0.39668900114E+03 -0.16187835734E+04  0.16980669198E+04  0.00000000000E+00 0.  1.
          4    1    6    6  503    0  0.79313186116E+02 -0.23259007597E+02 -0.19727610636E+03  0.21389115238E+03  0.00000000000E+00 0. -1.
         -4    1    6    6    0  503  0.26441792877E+03 -0.87549046688E+02 -0.34006416317E+03  0.43957401163E+03  0.00000000000E+00 0.  1.
<mgrwt>
<rscale>  0 0.22515416E+04</rscale>
<asrwt>0</asrwt>
<pdfrwt beam="1">  1        2 0.48770844E+00 0.22515416E+04</pdfrwt>
<pdfrwt beam="2">  1       -1 0.61505363E-01 0.22515416E+04</pdfrwt>
<totfact> 0.37714600E+00</totfact>
</mgrwt>
</event>
<event>
12    6  0.9533401E-008  0.1806877E+04  0.7818608E-02  0.8702651E-01
         -1   -1    0    0    0  501 -0.00000000000E+00  0.00000000000E+00  0.75014259181E+03  0.75014259181E+03  0.00000000000E+00 0.  1.
          2   -1    0    0  501    0  0.00000000000E+00 -0.00000000000E+00 -0.10880614497E+04  0.10880614497E+04  0.00000000000E+00 0. -1.
         24    2    1    2    0    0 -0.50432234880E+02 -0.31480348961E+03  0.48071652641E+03  0.58269677752E+03  0.82477320378E+02 0.  0.
        254    2    1    2    0    0  0.50432234880E+02  0.31480348961E+03 -0.81863538428E+03  0.12555072640E+04  0.89693363751E+03 0.  0.
         23    2    4    4    0    0  0.42525591304E+03  0.26890726072E+03 -0.25690157409E+03  0.57236976001E+03  0.91951166134E+02 0.  0.
         23    2    4    4    0    0 -0.37482367816E+03  0.45896228886E+02 -0.56173381019E+03  0.68313750396E+03  0.92372735543E+02 0.  0.
          2    1    3    3  502    0  0.92328538791E+01 -0.64396149592E+02  0.15082364020E+03  0.16425553299E+03  0.00000000000E+00 0. -1.
         -3    1    3    3    0  502 -0.59665088759E+02 -0.25040734002E+03  0.32989288621E+03  0.41844124453E+03  0.00000000000E+00 0.  1.
         11    1    5    5    0    0  0.26878490581E+03  0.17138643088E+03 -0.21127771917E+03  0.38243549639E+03  0.00000000000E+00 0.  1.
        -11    1    5    5    0    0  0.15647100723E+03  0.97520829849E+02 -0.45623854915E+02  0.18993426362E+03  0.00000000000E+00 0. -1.
          3    1    6    6  503    0 -0.27343365904E+03  0.26620566326E+02 -0.32950609590E+03  0.42900919301E+03  0.00000000000E+00 0.  1.
         -3    1    6    6    0  503 -0.10139001912E+03  0.19275662559E+02 -0.23222771429E+03  0.25412831096E+03  0.00000000000E+00 0. -1.
<mgrwt>
<rscale>  0 0.18068771E+04</rscale>
<asrwt>0</asrwt>
<pdfrwt beam="1">  1        2 0.16739407E+00 0.18068771E+04</pdfrwt>
<pdfrwt beam="2">  1       -1 0.11540655E+00 0.18068771E+04</pdfrwt>
<totfact> 0.16233774E+01</totfact>
</mgrwt>
</event>
<event>
12    6  0.9533401E-008  0.1233484E+04  0.7818608E-02  0.9084042E-01
         -1   -1    0    0    0  501 -0.00000000000E+00  0.00000000000E+00  0.97036112820E+02  0.97036112820E+02  0.00000000000E+00 0.  1.
          2   -1    0    0  501    0  0.00000000000E+00 -0.00000000000E+00 -0.39198895644E+04  0.39198895644E+04  0.00000000000E+00 0. -1.
         24    2    1    2    0    0  0.25862249229E+03  0.43184186142E+02 -0.10328708392E+04  0.10688570449E+04  0.82962308067E+02 0.  0.
        254    2    1    2    0    0 -0.25862249229E+03 -0.43184186142E+02 -0.27899826124E+04  0.29480686323E+04  0.91561739603E+03 0.  0.
         23    2    4    4    0    0 -0.20138764255E+03 -0.12631619159E+03 -0.13703979290E+03  0.29159343625E+03  0.98661362246E+02 0.  0.
         23    2    4    4    0    0 -0.57234849742E+02  0.83132005445E+02 -0.26529428195E+04  0.26564751961E+04  0.92564061087E+02 0.  0.
          2    1    3    3  502    0  0.32686798928E+02  0.10216686697E+02 -0.28105937383E+03  0.28313809197E+03  0.00000000000E+00 0. -1.
         -1    1    3    3    0  502  0.22593569336E+03  0.32967499445E+02 -0.75181146537E+03  0.78571895294E+03  0.00000000000E+00 0.  1.
         11    1    5    5    0    0 -0.61545056891E+02 -0.17204431911E+02 -0.85769324480E+02  0.10695870010E+03  0.00000000000E+00 0.  1.
        -11    1    5    5    0    0 -0.13984258566E+03 -0.10911175968E+03 -0.51270468417E+02  0.18463473615E+03  0.00000000000E+00 0. -1.
          2    1    6    6  503    0 -0.57888802647E+02  0.69158879206E+02 -0.26042942208E+04  0.26058554167E+04  0.00000000000E+00 0. -1.
         -2    1    6    6    0  503  0.65395290460E+00  0.13973126239E+02 -0.48648598706E+02  0.50619779409E+02  0.00000000000E+00 0.  1.
<mgrwt>
<rscale>  0 0.12334842E+04</rscale>
<asrwt>0</asrwt>
<pdfrwt beam="1">  1        2 0.60305993E+00 0.12334842E+04</pdfrwt>
<pdfrwt beam="2">  1       -1 0.14928633E-01 0.12334842E+04</pdfrwt>
<totfact> 0.15274879E+01</totfact>
</mgrwt>
</event>
<event>
12    6  0.9533401E-008  0.2149124E+04  0.7818608E-02  0.8539907E-01
         -1   -1    0    0    0  501 -0.00000000000E+00  0.00000000000E+00  0.12455364272E+04  0.12455364272E+04  0.00000000000E+00 0.  1.
          2   -1    0    0  501    0  0.00000000000E+00 -0.00000000000E+00 -0.92705732270E+03  0.92705732270E+03  0.00000000000E+00 0. -1.
         24    2    1    2    0    0  0.86678141295E+03  0.89741740876E+02  0.22865943387E+03  0.90447329357E+03  0.80144894994E+02 0.  0.
        254    2    1    2    0    0 -0.86678141295E+03 -0.89741740876E+02  0.89819670617E+02  0.12681204563E+04  0.91689602498E+03 0.  0.
         23    2    4    4    0    0 -0.87076438254E+03 -0.34525415807E+03 -0.85446773723E+02  0.94509992619E+03  0.92096013942E+02 0.  0.
         23    2    4    4    0    0  0.39829695896E+01  0.25551241719E+03  0.17526644434E+03  0.32302053013E+03  0.91222129919E+02 0.  0.
          4    1    3    3  502    0  0.36896623333E+03  0.56334032256E+02  0.13446548003E+03  0.39672480367E+03  0.00000000000E+00 0. -1.
         -3    1    3    3    0  502  0.49781517962E+03  0.33407708619E+02  0.94193953842E+02  0.50774848990E+03  0.00000000000E+00 0.  1.
         11    1    5    5    0    0 -0.78814431610E+03 -0.33029852984E+03 -0.98172958304E+02  0.86017818593E+03  0.00000000000E+00 0. -1.
        -11    1    5    5    0    0 -0.82620066445E+02 -0.14955628228E+02  0.12726184581E+02  0.84921740261E+02  0.00000000000E+00 0.  1.
          3    1    6    6  503    0 -0.43876285836E+01  0.24935672847E+03  0.13946549085E+03  0.28574228328E+03  0.00000000000E+00 0. -1.
         -3    1    6    6    0  503  0.83705981732E+01  0.61556887259E+01  0.35800953486E+02  0.37278246847E+02  0.00000000000E+00 0.  1.
<mgrwt>
<rscale>  0 0.21491242E+04</rscale>
<asrwt>0</asrwt>
<pdfrwt beam="1">  1        2 0.14262420E+00 0.21491242E+04</pdfrwt>
<pdfrwt beam="2">  1       -1 0.19162099E+00 0.21491242E+04</pdfrwt>
<totfact> 0.50674048E+00</totfact>
</mgrwt>
</event>
<event>
12    6  0.9533401E-008  0.1966718E+04  0.7818608E-02  0.8622341E-01
          2   -1    0    0  501    0  0.00000000000E+00  0.00000000000E+00  0.22697319463E+04  0.22697319463E+04  0.00000000000E+00 0. -1.
         -1   -1    0    0    0  501 -0.00000000000E+00 -0.00000000000E+00 -0.42603923788E+03  0.42603923788E+03  0.00000000000E+00 0.  1.
         24    2    1    2    0    0 -0.48420277202E+02 -0.26339191208E+03 -0.26634982954E+03  0.38643548619E+03  0.81672092514E+02 0.  0.
        254    2    1    2    0    0  0.48420277202E+02  0.26339191208E+03  0.21100425380E+04  0.23093356980E+04  0.89946207891E+03 0.  0.
         23    2    4    4    0    0  0.44454472977E+03  0.16628601330E+03  0.14375538970E+04  0.15166559840E+04  0.91723018776E+02 0.  0.
         23    2    4    4    0    0 -0.39612445256E+03  0.97105898780E+02  0.67248864102E+03  0.79267971400E+03  0.98772562936E+02 0.  0.
          2    1    3    3  502    0  0.15833478529E+02 -0.23581701642E+02 -0.48169895234E+02  0.55920787740E+02  0.00000000000E+00 0. -1.
         -1    1    3    3    0  502 -0.64253755732E+02 -0.23981021044E+03 -0.21817993431E+03  0.33051469845E+03  0.00000000000E+00 0.  1.
         11    1    5    5    0    0  0.17983777973E+03  0.31686733223E+02  0.45742798201E+03  0.49253023746E+03  0.00000000000E+00 0. -1.
        -11    1    5    5    0    0  0.26470695004E+03  0.13459928008E+03  0.98012591495E+03  0.10241257465E+04  0.00000000000E+00 0.  1.
          2    1    6    6  503    0 -0.54671728660E+02  0.21188069858E+02  0.17474316560E+03  0.18431794851E+03  0.00000000000E+00 0. -1.
         -2    1    6    6    0  503 -0.34145272390E+03  0.75917828922E+02  0.49774547542E+03  0.60836176549E+03  0.00000000000E+00 0.  1.
<mgrwt>
<rscale>  0 0.19667179E+04</rscale>
<asrwt>0</asrwt>
<pdfrwt beam="1">  1        2 0.34918952E+00 0.19667179E+04</pdfrwt>
<pdfrwt beam="2">  1       -1 0.65544500E-01 0.19667179E+04</pdfrwt>
<totfact> 0.11804155E+01</totfact>
</mgrwt>
</event>
<event>
12    6  0.9533401E-008  0.2082778E+04  0.7818608E-02  0.8568868E-01
          2   -1    0    0  501    0  0.00000000000E+00  0.00000000000E+00  0.10789791475E+04  0.10789791475E+04  0.00000000000E+00 0. -1.
         -1   -1    0    0    0  501 -0.00000000000E+00 -0.00000000000E+00 -0.10051081690E+04  0.10051081690E+04  0.00000000000E+00 0.  1.
         24    2    1    2    0    0 -0.12932349654E+03 -0.76816289799E+03 -0.29866269373E+03  0.83831810634E+03  0.82334914749E+02 0.  0.
        254    2    1    2    0    0  0.12932349654E+03  0.76816289799E+03  0.37253367224E+03  0.12457692101E+04  0.89797593692E+03 0.  0.
         23    2    4    4    0    0 -0.91452927647E+02  0.85136828151E+03  0.46293542877E+03  0.97730246618E+03  0.87288661637E+02 0.  0.
         23    2    4    4    0    0  0.22077642419E+03 -0.83205383528E+02 -0.90401756523E+02  0.26846674392E+03  0.90755438874E+02 0.  0.
          4    1    3    3  502    0  0.58583784028E+01 -0.16188752918E+03 -0.68572010837E+02  0.17590910542E+03  0.00000000000E+00 0. -1.
         -3    1    3    3    0  502 -0.13518187494E+03 -0.60627536881E+03 -0.23009068289E+03  0.66240900091E+03  0.00000000000E+00 0.  1.
         11    1    5    5    0    0  0.56444467997E+01  0.34512510705E+03  0.19141033645E+03  0.39469116559E+03  0.00000000000E+00 0. -1.
        -11    1    5    5    0    0 -0.97097374447E+02  0.50624317447E+03  0.27152509232E+03  0.58261130059E+03  0.00000000000E+00 0.  1.
          3    1    6    6  503    0  0.41616507392E+02  0.19698841184E+01 -0.51619119603E+02  0.66335116187E+02  0.00000000000E+00 0. -1.
         -3    1    6    6    0  503  0.17915991679E+03 -0.85175267647E+02 -0.38782636920E+02  0.20213162773E+03  0.00000000000E+00 0.  1.
<mgrwt>
<rscale>  0 0.20827777E+04</rscale>
<asrwt>0</asrwt>
<pdfrwt beam="1">  1        2 0.16599679E+00 0.20827777E+04</pdfrwt>
<pdfrwt beam="2">  1       -1 0.15463203E+00 0.20827777E+04</pdfrwt>
<totfact> 0.75896793E+00</totfact>
</mgrwt>
</event>
<event>
12    6  0.9533401E-008  0.1939458E+04  0.7818608E-02  0.8635461E-01
         -1   -1    0    0    0  501 -0.00000000000E+00  0.00000000000E+00  0.31360195913E+03  0.31360195913E+03  0.00000000000E+00 0.  1.
          2   -1    0    0  501    0  0.00000000000E+00 -0.00000000000E+00 -0.29986236840E+04  0.29986236840E+04  0.00000000000E+00 0. -1.
         24    2    1    2    0    0  0.31889248458E+03  0.32067821575E+02 -0.22262039918E+04  0.22504979289E+04  0.77691397505E+02 0.  0.
        254    2    1    2    0    0 -0.31889248458E+03 -0.32067821575E+02 -0.45881773307E+03  0.10617277142E+04  0.90223681202E+03 0.  0.
         23    2    4    4    0    0 -0.11943925258E+03 -0.33667887669E+03  0.10554337690E+03  0.38331501885E+03  0.90402423644E+02 0.  0.
         23    2    4    4    0    0 -0.19945323200E+03  0.30461105512E+03 -0.56436110997E+03  0.67841269532E+03  0.95764482250E+02 0.  0.
          2    1    3    3  502    0  0.21914228422E+03  0.53065946550E+02 -0.14022090777E+04  0.14202216844E+04  0.00000000000E+00 0. -1.
         -1    1    3    3    0  502  0.99750200355E+02 -0.20998124974E+02 -0.82399491410E+03  0.83027624450E+03  0.00000000000E+00 0.  1.
         11    1    5    5    0    0 -0.13229627575E+03 -0.27221019416E+03  0.90178076387E+02  0.31580497121E+03  0.00000000000E+00 0. -1.
        -11    1    5    5    0    0  0.12857023168E+02 -0.64468682536E+02  0.15365300518E+02  0.67510047642E+02  0.00000000000E+00 0.  1.
          4    1    6    6  503    0 -0.79910600585E+02  0.16469143872E+03 -0.35677982573E+03  0.40099977322E+03  0.00000000000E+00 0. -1.
         -4    1    6    6    0  503 -0.11954263141E+03  0.13991961640E+03 -0.20758128424E+03  0.27741292210E+03  0.00000000000E+00 0.  1.
<mgrwt>
<rscale>  0 0.19394579E+04</rscale>
<asrwt>0</asrwt>
<pdfrwt beam="1">  1        2 0.46132671E+00 0.19394579E+04</pdfrwt>
<pdfrwt beam="2">  1       -1 0.48246457E-01 0.19394579E+04</pdfrwt>
<totfact> 0.79866195E+00</totfact>
</mgrwt>
</event>
<event>
12    6  0.9533401E-008  0.1162310E+04  0.7818608E-02  0.9146501E-01
         -1   -1    0    0    0  501 -0.00000000000E+00  0.00000000000E+00  0.17369144072E+03  0.17369144072E+03  0.00000000000E+00 0.  1.
          2   -1    0    0  501    0  0.00000000000E+00 -0.00000000000E+00 -0.19444897578E+04  0.19444897578E+04  0.00000000000E+00 0. -1.
         24    2    1    2    0    0 -0.11125757784E+03  0.78732279534E+02 -0.73618739812E+03  0.75298098173E+03  0.80196341716E+02 0.  0.
        254    2    1    2    0    0  0.11125757784E+03 -0.78732279534E+02 -0.10346109189E+04  0.13652002168E+04  0.88021296161E+03 0.  0.
         23    2    4    4    0    0  0.15739523775E+03 -0.82729439751E+02  0.10216327460E+03  0.22390157753E+03  0.89873025294E+02 0.  0.
         23    2    4    4    0    0 -0.46137659907E+02  0.39971602178E+01 -0.11367741935E+04  0.11412986392E+04  0.90345757398E+02 0.  0.
          4    1    3    3  502    0 -0.78276478302E+02  0.15548248724E+02 -0.49814814060E+03  0.50450027262E+03  0.00000000000E+00 0. -1.
         -3    1    3    3    0  502 -0.32981099536E+02  0.63184030810E+02 -0.23803925752E+03  0.24848070911E+03  0.00000000000E+00 0.  1.
         11    1    5    5    0    0  0.14532176205E+03 -0.93606932947E+02  0.11097357171E+03  0.20541617765E+03  0.00000000000E+00 0.  1.
        -11    1    5    5    0    0  0.12073475696E+02  0.10877493196E+02 -0.88102971088E+01  0.18485399881E+02  0.00000000000E+00 0. -1.
          1    1    6    6  503    0 -0.33576090903E+02 -0.62604863119E+01 -0.13055357696E+03  0.13494733797E+03  0.00000000000E+00 0. -1.
         -1    1    6    6    0  503 -0.12561569004E+02  0.10257646530E+02 -0.10062206166E+04  0.10063513013E+04  0.00000000000E+00 0.  1.
<mgrwt>
<rscale>  0 0.11623102E+04</rscale>
<asrwt>0</asrwt>
<pdfrwt beam="1">  1        2 0.29915229E+00 0.11623102E+04</pdfrwt>
<pdfrwt beam="2">  1       -1 0.26721759E-01 0.11623102E+04</pdfrwt>
<totfact> 0.10105253E+02</totfact>
</mgrwt>
</event>
<event>
12    6  0.9533401E-008  0.1431396E+04  0.7818608E-02  0.8931401E-01
          2   -1    0    0  501    0  0.00000000000E+00  0.00000000000E+00  0.12384946855E+04  0.12384946855E+04  0.00000000000E+00 0. -1.
         -1   -1    0    0    0  501 -0.00000000000E+00 -0.00000000000E+00 -0.41358567590E+03  0.41358567590E+03  0.00000000000E+00 0.  1.
         24    2    1    2    0    0  0.33887056836E+03 -0.83801132368E+02 -0.35544919182E+02  0.35926812285E+03  0.77163792872E+02 0.  0.
        254    2    1    2    0    0 -0.33887056836E+03  0.83801132368E+02  0.86045392883E+03  0.12928122386E+04  0.89951466288E+03 0.  0.
         23    2    4    4    0    0 -0.53928474946E+03  0.68985649833E+02  0.18369333668E+03  0.58088126925E+03  0.89959691749E+02 0.  0.
         23    2    4    4    0    0  0.20041418110E+03  0.14815482535E+02  0.67676059215E+03  0.71193096935E+03  0.91953594380E+02 0.  0.
          2    1    3    3  502    0  0.22831479297E+02 -0.64186484771E+01  0.17663420416E+02  0.29571471318E+02  0.00000000000E+00 0. -1.
         -1    1    3    3    0  502  0.31603908906E+03 -0.77382483891E+02 -0.53208339597E+02  0.32969665153E+03  0.00000000000E+00 0.  1.
         11    1    5    5    0    0 -0.17662801798E+03  0.64942262951E+02  0.70263785520E+02  0.20087795750E+03  0.00000000000E+00 0. -1.
        -11    1    5    5    0    0 -0.36265673148E+03  0.40433868824E+01  0.11342955116E+03  0.38000331175E+03  0.00000000000E+00 0.  1.
          3    1    6    6  503    0  0.10667354206E+03 -0.13684823976E+02  0.22127397860E+03  0.24602579659E+03  0.00000000000E+00 0. -1.
         -3    1    6    6    0  503  0.93740639047E+02  0.28500306510E+02  0.45548661355E+03  0.46590517276E+03  0.00000000000E+00 0.  1.
<mgrwt>
<rscale>  0 0.14313960E+04</rscale>
<asrwt>0</asrwt>
<pdfrwt beam="1">  1        2 0.19053764E+00 0.14313960E+04</pdfrwt>
<pdfrwt beam="2">  1       -1 0.63628566E-01 0.14313960E+04</pdfrwt>
<totfact> 0.49831583E+01</totfact>
</mgrwt>
</event>
<event>
12    6  0.1192168E-007  0.2111943E+04  0.7818608E-02  0.8556000E-01
         -1   -1    0    0    0  501 -0.00000000000E+00  0.00000000000E+00  0.51886186305E+03  0.51886186305E+03  0.00000000000E+00 0.  1.
          2   -1    0    0  501    0  0.00000000000E+00 -0.00000000000E+00 -0.21490808020E+04  0.21490808020E+04  0.00000000000E+00 0. -1.
         24    2    1    2    0    0 -0.48377285456E+03 -0.14883620410E+03  0.21039073195E+03  0.55581829409E+03  0.92094112175E+02 0.  0.
        254    2    1    2    0    0  0.48377285456E+03  0.14883620410E+03 -0.18406096709E+04  0.21121243709E+04  0.90390099421E+03 0.  0.
         23    2    4    4    0    0  0.10051870298E+03  0.26059463174E+03 -0.16201917390E+04  0.16466677951E+04  0.92086831016E+02 0.  0.
         23    2    4    4    0    0  0.38325415158E+03 -0.11175842763E+03 -0.22041793185E+03  0.46545657584E+03  0.93231263358E+02 0.  0.
          4    1    3    3  502    0 -0.74881300311E+02 -0.60118324680E+02  0.41493484648E+02  0.10460942293E+03  0.00000000000E+00 0. -1.
         -3    1    3    3    0  502 -0.40889155425E+03 -0.88717879423E+02  0.16889724730E+03  0.45120887116E+03  0.00000000000E+00 0.  1.
         11    1    5    5    0    0 -0.92982965733E+01  0.26617909469E+01 -0.12842227083E+03  0.12878595846E+03  0.00000000000E+00 0. -1.
        -11    1    5    5    0    0  0.10981699956E+03  0.25793284079E+03 -0.14917694682E+04  0.15178818366E+04  0.00000000000E+00 0.  1.
          1    1    6    6  503    0  0.70024085288E+02  0.13533060539E+02 -0.24934141525E+02  0.75552813724E+02  0.00000000000E+00 0. -1.
         -1    1    6    6    0  503  0.31323006629E+03 -0.12529148817E+03 -0.19548379032E+03  0.38990376212E+03  0.00000000000E+00 0.  1.
<mgrwt>
<rscale>  0 0.21119432E+04</rscale>
<asrwt>0</asrwt>
<pdfrwt beam="1">  1        2 0.33062781E+00 0.21119432E+04</pdfrwt>
<pdfrwt beam="2">  1       -1 0.79824903E-01 0.21119432E+04</pdfrwt>
<totfact> 0.90578884E+00</totfact>
</mgrwt>
</event>
<event>
12    6  0.9533401E-008  0.1130543E+04  0.7818608E-02  0.9175923E-01
          2   -1    0    0  501    0  0.00000000000E+00  0.00000000000E+00  0.13418996899E+04  0.13418996899E+04  0.00000000000E+00 0. -1.
         -1   -1    0    0    0  501 -0.00000000000E+00 -0.00000000000E+00 -0.23811915600E+03  0.23811915600E+03  0.00000000000E+00 0.  1.
         24    2    1    2    0    0  0.13855789951E+03 -0.61918908839E+02  0.42785778939E+02  0.17394623555E+03  0.73446764336E+02 0.  0.
        254    2    1    2    0    0 -0.13855789951E+03  0.61918908839E+02  0.10609947550E+04  0.14060726104E+04  0.91010882467E+03 0.  0.
         23    2    4    4    0    0  0.19111693300E+03 -0.25867147482E+02  0.10292374870E+04  0.10513009891E+04  0.93322952872E+02 0.  0.
         23    2    4    4    0    0 -0.32967483252E+03  0.87786056321E+02  0.31757267987E+02  0.35477162132E+03  0.91991805869E+02 0.  0.
          4    1    3    3  502    0  0.17017526388E+02 -0.31599605001E+02  0.32228739296E+02  0.48237152457E+02  0.00000000000E+00 0. -1.
         -3    1    3    3    0  502  0.12154037313E+03 -0.30319303838E+02  0.10557039643E+02  0.12570908309E+03  0.00000000000E+00 0.  1.
         11    1    5    5    0    0  0.18688267600E+03 -0.38369916363E+02  0.83074310858E+03  0.85236817017E+03  0.00000000000E+00 0. -1.
        -11    1    5    5    0    0  0.42342570028E+01  0.12502768881E+02  0.19849437844E+03  0.19893281889E+03  0.00000000000E+00 0.  1.
          3    1    6    6  503    0 -0.19781677730E+03  0.58304065510E+02 -0.25938470415E+02  0.20785486688E+03  0.00000000000E+00 0. -1.
         -3    1    6    6    0  503 -0.13185805521E+03  0.29481990810E+02  0.57695738402E+02  0.14691675444E+03  0.00000000000E+00 0.  1.
<mgrwt>
<rscale>  0 0.11305433E+04</rscale>
<asrwt>0</asrwt>
<pdfrwt beam="1">  1        2 0.20644610E+00 0.11305433E+04</pdfrwt>
<pdfrwt beam="2">  1       -1 0.36633717E-01 0.11305433E+04</pdfrwt>
<totfact> 0.12607283E+02</totfact>
</mgrwt>
</event>
<event>
12    6  0.9533401E-008  0.1183781E+04  0.7818608E-02  0.9127172E-01
         -1   -1    0    0    0  501 -0.00000000000E+00  0.00000000000E+00  0.10547638705E+04  0.10547638705E+04  0.00000000000E+00 0.  1.
          2   -1    0    0  501    0  0.00000000000E+00 -0.00000000000E+00 -0.33214507162E+03  0.33214507162E+03  0.00000000000E+00 0. -1.
         24    2    1    2    0    0  0.29448015055E+02 -0.12872415934E+02  0.48065989439E+03  0.48793168037E+03  0.77527452908E+02 0.  0.
        254    2    1    2    0    0 -0.29448015055E+02  0.12872415934E+02  0.24195890451E+03  0.89897726176E+03  0.86520698160E+03 0.  0.
         23    2    4    4    0    0 -0.42948218746E+03 -0.37912679493E+01  0.21035055333E+03  0.48678692377E+03  0.90801050723E+02 0.  0.
         23    2    4    4    0    0  0.40003417240E+03  0.16663683883E+02  0.31608351185E+02  0.41219033800E+03  0.92718765217E+02 0.  0.
          2    1    3    3  502    0  0.16333277371E+02  0.25282073097E+02  0.84085742475E+02  0.89310532735E+02  0.00000000000E+00 0. -1.
         -1    1    3    3    0  502  0.13114737684E+02 -0.38154489031E+02  0.39657415191E+03  0.39862114764E+03  0.00000000000E+00 0.  1.
         11    1    5    5    0    0 -0.29488181185E+03  0.31167619319E+02  0.11437824208E+03  0.31781926580E+03  0.00000000000E+00 0. -1.
        -11    1    5    5    0    0 -0.13460037560E+03 -0.34958887268E+02  0.95972311248E+02  0.16896765796E+03  0.00000000000E+00 0.  1.
          4    1    6    6  503    0  0.21487874509E+03  0.23126843069E+01  0.62797271075E+02  0.22387880841E+03  0.00000000000E+00 0. -1.
         -4    1    6    6    0  503  0.18515542731E+03  0.14350999576E+02 -0.31188919890E+02  0.18831152958E+03  0.00000000000E+00 0.  1.
<mgrwt>
<rscale>  0 0.11837814E+04</rscale>
<asrwt>0</asrwt>
<pdfrwt beam="1">  1        2 0.51099242E-01 0.11837814E+04</pdfrwt>
<pdfrwt beam="2">  1       -1 0.16227136E+00 0.11837814E+04</pdfrwt>
<totfact> 0.31143849E+01</totfact>
</mgrwt>
</event>
<event>
12    6  0.9533401E-008  0.1508669E+04  0.7818608E-02  0.8878709E-01
          2   -1    0    0  501    0  0.00000000000E+00  0.00000000000E+00  0.71394087682E+03  0.71394087682E+03  0.00000000000E+00 0. -1.
         -1   -1    0    0    0  501 -0.00000000000E+00 -0.00000000000E+00 -0.79701323732E+03  0.79701323732E+03  0.00000000000E+00 0.  1.
         24    2    1    2    0    0 -0.36454005703E+03  0.32480359452E+03 -0.45946972301E+02  0.49736919002E+03  0.82934665368E+02 0.  0.
        254    2    1    2    0    0  0.36454005703E+03 -0.32480359452E+03 -0.37125388198E+02  0.10135849241E+04  0.88746226723E+03 0.  0.
         23    2    4    4    0    0  0.38649465730E+03 -0.52643460315E+03  0.19849364177E+03  0.68931555596E+03  0.96149354421E+02 0.  0.
         23    2    4    4    0    0 -0.21954600264E+02  0.20163100862E+03 -0.23561902997E+03  0.32426936816E+03  0.92180408620E+02 0.  0.
          2    1    3    3  502    0 -0.82018855900E+02  0.36956888854E+02 -0.25580002562E+02  0.93526685433E+02  0.00000000000E+00 0. -1.
         -1    1    3    3    0  502 -0.28252120113E+03  0.28784670567E+03 -0.20366969738E+02  0.40384250459E+03  0.00000000000E+00 0.  1.
         11    1    5    5    0    0  0.16482102955E+03 -0.21314805125E+03  0.33293902107E+02  0.27148949787E+03  0.00000000000E+00 0.  1.
        -11    1    5    5    0    0  0.22167362774E+03 -0.31328655190E+03  0.16519973966E+03  0.41782605809E+03  0.00000000000E+00 0. -1.
          4    1    6    6  503    0 -0.15868588325E+02  0.10307359323E+03 -0.53754437668E+02  0.11732654127E+03  0.00000000000E+00 0.  1.
         -4    1    6    6    0  503 -0.60860119387E+01  0.98557415394E+02 -0.18186459230E+03  0.20694282689E+03  0.00000000000E+00 0. -1.
<mgrwt>
<rscale>  0 0.15086687E+04</rscale>
<asrwt>0</asrwt>
<pdfrwt beam="1">  1        2 0.10983706E+00 0.15086687E+04</pdfrwt>
<pdfrwt beam="2">  1       -1 0.12261742E+00 0.15086687E+04</pdfrwt>
<totfact> 0.25873748E+01</totfact>
</mgrwt>
</event>
<event>
12    6  0.9533401E-008  0.1565149E+04  0.7818608E-02  0.8842249E-01
         -1   -1    0    0    0  501 -0.00000000000E+00  0.00000000000E+00  0.47966855321E+03  0.47966855321E+03  0.00000000000E+00 0.  1.
          2   -1    0    0  501    0  0.00000000000E+00 -0.00000000000E+00 -0.12767629264E+04  0.12767629264E+04  0.00000000000E+00 0. -1.
         24    2    1    2    0    0  0.31264335299E+03 -0.28100705612E+03 -0.61599058478E+03  0.75021052034E+03  0.81612453238E+02 0.  0.
        254    2    1    2    0    0 -0.31264335299E+03  0.28100705612E+03 -0.18110378846E+03  0.10062209593E+04  0.89608660576E+03 0.  0.
         23    2    4    4    0    0  0.26785801447E+02  0.40958540117E+03 -0.39302627387E+03  0.57551191858E+03  0.90921045202E+02 0.  0.
         23    2    4    4    0    0 -0.33942915444E+03 -0.12857834505E+03  0.21192248541E+03  0.43070904074E+03  0.94098864268E+02 0.  0.
          2    1    3    3  502    0  0.29250286723E+03 -0.28369835968E+03 -0.57912824915E+03  0.70811878636E+03  0.00000000000E+00 0. -1.
         -1    1    3    3    0  502  0.20140485756E+02  0.26913035574E+01 -0.36862335628E+02  0.42091733978E+02  0.00000000000E+00 0.  1.
         11    1    5    5    0    0  0.37611059882E+02  0.39564684059E+03 -0.35219399642E+03  0.53102883670E+03  0.00000000000E+00 0. -1.
        -11    1    5    5    0    0 -0.10825258435E+02  0.13938560580E+02 -0.40832277456E+02  0.44483081879E+02  0.00000000000E+00 0.  1.
          4    1    6    6  503    0 -0.35975934735E+02 -0.15286640744E+01  0.56180215441E+02  0.66729463514E+02  0.00000000000E+00 0.  1.
         -4    1    6    6    0  503 -0.30345321970E+03 -0.12704968097E+03  0.15574226997E+03  0.36397957723E+03  0.00000000000E+00 0. -1.
<mgrwt>
<rscale>  0 0.15651492E+04</rscale>
<asrwt>0</asrwt>
<pdfrwt beam="1">  1        2 0.19642506E+00 0.15651492E+04</pdfrwt>
<pdfrwt beam="2">  1       -1 0.73795163E-01 0.15651492E+04</pdfrwt>
<totfact> 0.34581709E+01</totfact>
</mgrwt>
</event>
<event>
12    6  0.9533401E-008  0.1440702E+04  0.7818608E-02  0.8924872E-01
          2   -1    0    0  501    0  0.00000000000E+00  0.00000000000E+00  0.19380434667E+04  0.19380434667E+04  0.00000000000E+00 0. -1.
         -1   -1    0    0    0  501 -0.00000000000E+00 -0.00000000000E+00 -0.26774722843E+03  0.26774722843E+03  0.00000000000E+00 0.  1.
         24    2    1    2    0    0 -0.22522985100E+03 -0.36339071965E+03  0.57040055126E+03  0.71748808195E+03  0.81554018597E+02 0.  0.
        254    2    1    2    0    0  0.22522985100E+03  0.36339071965E+03  0.10998956870E+04  0.14883026132E+04  0.90691391277E+03 0.  0.
         23    2    4    4    0    0  0.51257032136E+03  0.46277548479E+02  0.80180468267E+03  0.95721847899E+03  0.92230805799E+02 0.  0.
         23    2    4    4    0    0 -0.28734047035E+03  0.31711317118E+03  0.29809100436E+03  0.53108413420E+03  0.10033345149E+03 0.  0.
          4    1    3    3  502    0 -0.59379970965E+02 -0.45043120043E+02  0.12388720812E+03  0.14457836613E+03  0.00000000000E+00 0. -1.
         -3    1    3    3    0  502 -0.16584988004E+03 -0.31834759961E+03  0.44651334314E+03  0.57290971583E+03  0.00000000000E+00 0.  1.
         11    1    5    5    0    0  0.20600645423E+03  0.63595089862E+02  0.34391737552E+03  0.40590904871E+03  0.00000000000E+00 0. -1.
        -11    1    5    5    0    0  0.30656386713E+03 -0.17317541383E+02  0.45788730715E+03  0.55130943028E+03  0.00000000000E+00 0.  1.
          1    1    6    6  503    0 -0.95392590356E+02  0.73194399377E+02  0.37911002099E+02  0.12607303627E+03  0.00000000000E+00 0. -1.
         -1    1    6    6    0  503 -0.19194788000E+03  0.24391877180E+03  0.26018000226E+03  0.40501109793E+03  0.00000000000E+00 0.  1.
<mgrwt>
<rscale>  0 0.14407023E+04</rscale>
<asrwt>0</asrwt>
<pdfrwt beam="1">  1        2 0.29816052E+00 0.14407023E+04</pdfrwt>
<pdfrwt beam="2">  1       -1 0.41191882E-01 0.14407023E+04</pdfrwt>
<totfact> 0.46157702E+01</totfact>
</mgrwt>
</event>
<event>
12    6  0.9533401E-008  0.1639202E+04  0.7818608E-02  0.8796820E-01
          2   -1    0    0  501    0  0.00000000000E+00  0.00000000000E+00  0.37688282832E+04  0.37688282832E+04  0.00000000000E+00 0. -1.
         -1   -1    0    0    0  501 -0.00000000000E+00 -0.00000000000E+00 -0.17823725082E+03  0.17823725082E+03  0.00000000000E+00 0.  1.
         24    2    1    2    0    0  0.35471632257E+03  0.49361038563E+02  0.23444590644E+04  0.23729370078E+04  0.77984335612E+02 0.  0.
        254    2    1    2    0    0 -0.35471632257E+03 -0.49361038563E+02  0.12461319680E+04  0.15741285262E+04  0.89262285085E+03 0.  0.
         23    2    4    4    0    0  0.92123178715E+02 -0.57006589164E+02 -0.86511550379E+02  0.16564071840E+03  0.90643080142E+02 0.  0.
         23    2    4    4    0    0 -0.44683950129E+03  0.76455506011E+01  0.13326435183E+04  0.14084878078E+04  0.90416610487E+02 0.  0.
          2    1    3    3  502    0  0.22650739350E+02  0.19724770400E+02  0.12376557699E+03  0.12735792323E+03  0.00000000000E+00 0. -1.
         -1    1    3    3    0  502  0.33206558322E+03  0.29636268163E+02  0.22206934874E+04  0.22455790846E+04  0.00000000000E+00 0.  1.
         11    1    5    5    0    0  0.60949712104E-01 -0.28493180073E+02 -0.58830786179E+02  0.65367625228E+02  0.00000000000E+00 0. -1.
        -11    1    5    5    0    0  0.92062229003E+02 -0.28513409091E+02 -0.27680764200E+02  0.10027309317E+03  0.00000000000E+00 0.  1.
          2    1    6    6  503    0 -0.13830449966E+03 -0.20547311612E+02  0.31293955319E+03  0.34275573021E+03  0.00000000000E+00 0. -1.
         -2    1    6    6    0  503 -0.30853500163E+03  0.28192862213E+02  0.10197039651E+04  0.10657320776E+04  0.00000000000E+00 0.  1.
<mgrwt>
<rscale>  0 0.16392017E+04</rscale>
<asrwt>0</asrwt>
<pdfrwt beam="1">  1        2 0.57981968E+00 0.16392017E+04</pdfrwt>
<pdfrwt beam="2">  1       -1 0.27421118E-01 0.16392017E+04</pdfrwt>
<totfact> 0.68420299E+00</totfact>
</mgrwt>
</event>
<event>
12    6  0.9533401E-008  0.2352313E+04  0.7818608E-02  0.8457576E-01
         -1   -1    0    0    0  501 -0.00000000000E+00  0.00000000000E+00  0.79328714644E+03  0.79328714644E+03  0.00000000000E+00 0.  1.
          2   -1    0    0  501    0  0.00000000000E+00 -0.00000000000E+00 -0.17438120958E+04  0.17438120958E+04  0.00000000000E+00 0. -1.
         24    2    1    2    0    0 -0.70918722128E+02 -0.90728836073E+03  0.47978956785E+02  0.91500305562E+03  0.82018149414E+02 0.  0.
        254    2    1    2    0    0  0.70918722128E+02  0.90728836073E+03 -0.99850390615E+03  0.16220961866E+04  0.89776631338E+03 0.  0.
         23    2    4    4    0    0 -0.80545449646E+02  0.10376170315E+04 -0.91077420753E+03  0.13859696466E+04  0.90914964270E+02 0.  0.
         23    2    4    4    0    0  0.15146417177E+03 -0.13032867076E+03 -0.87729698625E+02  0.23612654003E+03  0.90179183466E+02 0.  0.
          4    1    3    3  502    0 -0.89472397900E+02 -0.74523777136E+03  0.42908679045E+02  0.75181500423E+03  0.00000000000E+00 0. -1.
         -3    1    3    3    0  502  0.18553675772E+02 -0.16205058936E+03  0.50702777397E+01  0.16318805138E+03  0.00000000000E+00 0.  1.
         11    1    5    5    0    0 -0.53851107176E+02  0.65019873066E+03 -0.51189265715E+03  0.82927222523E+03  0.00000000000E+00 0. -1.
        -11    1    5    5    0    0 -0.26694342470E+02  0.38741830083E+03 -0.39888155037E+03  0.55669742138E+03  0.00000000000E+00 0.  1.
          2    1    6    6  503    0  0.13442957180E+03 -0.99958143521E+02 -0.10453668876E+03  0.19746103294E+03  0.00000000000E+00 0. -1.
         -2    1    6    6    0  503  0.17034599972E+02 -0.30370527243E+02  0.16806990137E+02  0.38665507092E+02  0.00000000000E+00 0.  1.
<mgrwt>
<rscale>  0 0.23523127E+04</rscale>
<asrwt>0</asrwt>
<pdfrwt beam="1">  1        2 0.26827878E+00 0.23523127E+04</pdfrwt>
<pdfrwt beam="2">  1       -1 0.12204418E+00 0.23523127E+04</pdfrwt>
<totfact> 0.56592438E+00</totfact>
</mgrwt>
</event>
<event>
12    6  0.9533401E-008  0.2889918E+04  0.7818608E-02  0.8275883E-01
          2   -1    0    0  501    0  0.00000000000E+00  0.00000000000E+00  0.26540190689E+04  0.26540190689E+04  0.00000000000E+00 0. -1.
         -1   -1    0    0    0  501 -0.00000000000E+00 -0.00000000000E+00 -0.78669628000E+03  0.78669628000E+03  0.00000000000E+00 0.  1.
         24    2    1    2    0    0 -0.91086113373E+02 -0.11259984827E+04  0.68903899167E+02  0.11351617883E+04  0.87608649088E+02 0.  0.
        254    2    1    2    0    0  0.91086113373E+02  0.11259984827E+04  0.17984188898E+04  0.23055535606E+04  0.89727222998E+03 0.  0.
         23    2    4    4    0    0  0.12403037728E+03  0.44406199940E+03  0.14681830933E+04  0.15415693068E+04  0.91102899055E+02 0.  0.
         23    2    4    4    0    0 -0.32944263905E+02  0.68193648326E+03  0.33023579646E+03  0.76398425385E+03  0.92160550887E+02 0.  0.
          4    1    3    3  502    0  0.30337542559E+01 -0.36829782473E+03 -0.23744320443E+01  0.36831797308E+03  0.00000000000E+00 0. -1.
         -3    1    3    3    0  502 -0.94119867629E+02 -0.75770065793E+03  0.71278331211E+02  0.76684381526E+03  0.00000000000E+00 0.  1.
         11    1    5    5    0    0  0.74042763797E+02  0.36725661887E+03  0.12496048137E+04  0.13045581418E+04  0.00000000000E+00 0. -1.
        -11    1    5    5    0    0  0.49987613482E+02  0.76805380532E+02  0.21857827960E+03  0.23701116492E+03  0.00000000000E+00 0.  1.
          3    1    6    6  503    0 -0.80520072097E+01  0.33409495924E+03  0.21196143696E+03  0.39574224865E+03  0.00000000000E+00 0. -1.
         -3    1    6    6    0  503 -0.24892256696E+02  0.34784152402E+03  0.11827435950E+03  0.36824200519E+03  0.00000000000E+00 0.  1.
<mgrwt>
<rscale>  0 0.28899183E+04</rscale>
<asrwt>0</asrwt>
<pdfrwt beam="1">  1        2 0.40831062E+00 0.28899183E+04</pdfrwt>
<pdfrwt beam="2">  1       -1 0.12103020E+00 0.28899183E+04</pdfrwt>
<totfact> 0.16824910E+00</totfact>
</mgrwt>
</event>
<event>
12    6  0.9533401E-008  0.1980984E+04  0.7818608E-02  0.8615563E-01
          2   -1    0    0  501    0  0.00000000000E+00  0.00000000000E+00  0.19703189330E+04  0.19703189330E+04  0.00000000000E+00 0. -1.
         -1   -1    0    0    0  501 -0.00000000000E+00 -0.00000000000E+00 -0.49792648637E+03  0.49792648637E+03  0.00000000000E+00 0.  1.
         24    2    1    2    0    0 -0.29488898076E+03 -0.57840141006E+03  0.11285138308E+04  0.13044666814E+04  0.81130477615E+02 0.  0.
        254    2    1    2    0    0  0.29488898076E+03  0.57840141006E+03  0.34387861581E+03  0.11637787380E+04  0.90256343069E+03 0.  0.
         23    2    4    4    0    0  0.56687073201E+03  0.58518002482E+03  0.31579823810E+03  0.87857177928E+03  0.91551930038E+02 0.  0.
         23    2    4    4    0    0 -0.27198175125E+03 -0.67786147624E+01  0.28080377710E+02  0.28520695870E+03  0.80836124638E+02 0.  0.
          4    1    3    3  502    0 -0.28933674174E+03 -0.51776034698E+03  0.10121434454E+04  0.11731265410E+04  0.00000000000E+00 0. -1.
         -3    1    3    3    0  502 -0.55522390166E+01 -0.60641063079E+02  0.11637038538E+03  0.13134014041E+03  0.00000000000E+00 0.  1.
         11    1    5    5    0    0  0.15849795829E+03  0.17947850085E+03  0.13667127009E+03  0.27570486234E+03  0.00000000000E+00 0. -1.
        -11    1    5    5    0    0  0.40837277372E+03  0.40570152397E+03  0.17912696801E+03  0.60286691694E+03  0.00000000000E+00 0.  1.
          4    1    6    6  503    0 -0.22414403403E+03  0.97053535193E+01  0.50334614606E+02  0.22993110992E+03  0.00000000000E+00 0.  1.
         -4    1    6    6    0  503 -0.47837717220E+02 -0.16483968282E+02 -0.22254236896E+02  0.55275848785E+02  0.00000000000E+00 0. -1.
<mgrwt>
<rscale>  0 0.19809836E+04</rscale>
<asrwt>0</asrwt>
<pdfrwt beam="1">  1        2 0.30312599E+00 0.19809836E+04</pdfrwt>
<pdfrwt beam="2">  1       -1 0.76604076E-01 0.19809836E+04</pdfrwt>
<totfact> 0.12573804E+01</totfact>
</mgrwt>
</event>
<event>
12    6  0.9533401E-008  0.2469864E+04  0.7818608E-02  0.8413801E-01
          2   -1    0    0  501    0  0.00000000000E+00  0.00000000000E+00  0.18837598525E+04  0.18837598525E+04  0.00000000000E+00 0. -1.
         -1   -1    0    0    0  501 -0.00000000000E+00 -0.00000000000E+00 -0.80958159192E+03  0.80958159192E+03  0.00000000000E+00 0.  1.
         24    2    1    2    0    0 -0.42091269715E+03 -0.58341756426E+03  0.13362787245E+04  0.15196961694E+04  0.79322537535E+02 0.  0.
        254    2    1    2    0    0  0.42091269715E+03  0.58341756426E+03 -0.26210046392E+03  0.11736452750E+04  0.88949593891E+03 0.  0.
         23    2    4    4    0    0  0.58012362041E+03  0.39869599210E+03  0.11131105493E+03  0.71855098278E+03  0.91779381229E+02 0.  0.
         23    2    4    4    0    0 -0.15921092326E+03  0.18472157216E+03 -0.37341151885E+03  0.45509429219E+03  0.90578557426E+02 0.  0.
          2    1    3    3  502    0 -0.21583092785E+03 -0.36327661310E+03  0.75735361989E+03  0.86725855003E+03  0.00000000000E+00 0. -1.
         -1    1    3    3    0  502 -0.20508176930E+03 -0.22014095116E+03  0.57892510458E+03  0.65243761938E+03  0.00000000000E+00 0.  1.
         11    1    5    5    0    0  0.56805317838E+03  0.40317790120E+03  0.10593705946E+03  0.70459881780E+03  0.00000000000E+00 0. -1.
        -11    1    5    5    0    0  0.12070442037E+02 -0.44819090993E+01  0.53739954714E+01  0.13952164974E+02  0.00000000000E+00 0.  1.
          3    1    6    6  503    0 -0.22313542588E+02 -0.60863697562E+01 -0.53106942749E+02  0.57924825833E+02  0.00000000000E+00 0. -1.
         -3    1    6    6    0  503 -0.13689738068E+03  0.19080794192E+03 -0.32030457610E+03  0.39716946636E+03  0.00000000000E+00 0.  1.
<mgrwt>
<rscale>  0 0.24698642E+04</rscale>
<asrwt>0</asrwt>
<pdfrwt beam="1">  1        2 0.28980921E+00 0.24698642E+04</pdfrwt>
<pdfrwt beam="2">  1       -1 0.12455101E+00 0.24698642E+04</pdfrwt>
<totfact> 0.44546400E+00</totfact>
</mgrwt>
</event>
<event>
12    6  0.9533401E-008  0.1350968E+04  0.7818608E-02  0.8990096E-01
          2   -1    0    0  501    0  0.00000000000E+00  0.00000000000E+00  0.14956213383E+04  0.14956213383E+04  0.00000000000E+00 0. -1.
         -1   -1    0    0    0  501 -0.00000000000E+00 -0.00000000000E+00 -0.30507615111E+03  0.30507615111E+03  0.00000000000E+00 0.  1.
         24    2    1    2    0    0 -0.79932682618E+02  0.20432282316E+03  0.75370763722E+03  0.78890694724E+03  0.78497892873E+02 0.  0.
        254    2    1    2    0    0  0.79932682618E+02 -0.20432282316E+03  0.43683754993E+03  0.10117905421E+04  0.88586455303E+03 0.  0.
         23    2    4    4    0    0  0.99651734200E+02  0.31345625149E+03  0.22225437793E+02  0.34195903777E+03  0.90866515860E+02 0.  0.
         23    2    4    4    0    0 -0.19719051582E+02 -0.51777907465E+03  0.41461211214E+03  0.66983150437E+03  0.91033123462E+02 0.  0.
          4    1    3    3  502    0 -0.18159945192E+02  0.48928530194E+02  0.31719951596E+03  0.32146433333E+03  0.00000000000E+00 0. -1.
         -3    1    3    3    0  502 -0.61772737426E+02  0.15539429297E+03  0.43650812126E+03  0.46744261391E+03  0.00000000000E+00 0.  1.
         11    1    5    5    0    0  0.87232832461E+02  0.27935108765E+03 -0.10846927242E+02  0.29285534494E+03  0.00000000000E+00 0.  1.
        -11    1    5    5    0    0  0.12418901739E+02  0.34105163841E+02  0.33072365036E+02  0.49103692835E+02  0.00000000000E+00 0. -1.
          3    1    6    6  503    0  0.29258844685E+02 -0.23889455900E+03  0.15974537147E+03  0.28886895648E+03  0.00000000000E+00 0. -1.
         -3    1    6    6    0  503 -0.48977896266E+02 -0.27888451565E+03  0.25486674067E+03  0.38096254789E+03  0.00000000000E+00 0.  1.
<mgrwt>
<rscale>  0 0.13509677E+04</rscale>
<asrwt>0</asrwt>
<pdfrwt beam="1">  1        2 0.23009559E+00 0.13509677E+04</pdfrwt>
<pdfrwt beam="2">  1       -1 0.46934793E-01 0.13509677E+04</pdfrwt>
<totfact> 0.64283871E+01</totfact>
</mgrwt>
</event>
<event>
12    6  0.9533401E-008  0.1028478E+04  0.7818608E-02  0.9277850E-01
          2   -1    0    0  501    0  0.00000000000E+00  0.00000000000E+00  0.19153553868E+04  0.19153553868E+04  0.00000000000E+00 0. -1.
         -1   -1    0    0    0  501 -0.00000000000E+00 -0.00000000000E+00 -0.13806410677E+03  0.13806410677E+03  0.00000000000E+00 0.  1.
         24    2    1    2    0    0 -0.42782003090E+02 -0.78298454749E+02  0.28140185340E+03  0.30573163812E+03  0.79522849830E+02 0.  0.
        254    2    1    2    0    0  0.42782003090E+02  0.78298454749E+02  0.14958894267E+04  0.17476878555E+04  0.89931458101E+03 0.  0.
         23    2    4    4    0    0 -0.25820620219E+03 -0.28985866295E+03  0.85911658822E+03  0.94729434706E+03  0.92718824782E+02 0.  0.
         23    2    4    4    0    0  0.30098820528E+03  0.36815711770E+03  0.63677283843E+03  0.80039350843E+03  0.94955555630E+02 0.  0.
          4    1    3    3  502    0 -0.55875711091E+02 -0.81625576648E+02  0.27156591366E+03  0.28902054480E+03  0.00000000000E+00 0. -1.
         -3    1    3    3    0  502  0.13093708002E+02  0.33271218998E+01  0.98359397381E+01  0.16711093319E+02  0.00000000000E+00 0.  1.
         11    1    5    5    0    0 -0.10561904402E+03 -0.14461270075E+03  0.49804639415E+03  0.52926215281E+03  0.00000000000E+00 0. -1.
        -11    1    5    5    0    0 -0.15258715817E+03 -0.14524596219E+03  0.36107019408E+03  0.41803219424E+03  0.00000000000E+00 0.  1.
          2    1    6    6  503    0  0.21445434611E+03  0.31573220649E+03  0.47163781245E+03  0.60672870290E+03  0.00000000000E+00 0. -1.
         -2    1    6    6    0  503  0.86533859164E+02  0.52424911201E+02  0.16513502598E+03  0.19366480553E+03  0.00000000000E+00 0.  1.
<mgrwt>
<rscale>  0 0.10284782E+04</rscale>
<asrwt>0</asrwt>
<pdfrwt beam="1">  1        2 0.29467004E+00 0.10284782E+04</pdfrwt>
<pdfrwt beam="2">  1       -1 0.21240633E-01 0.10284782E+04</pdfrwt>
<totfact> 0.15665476E+02</totfact>
</mgrwt>
</event>
<event>
12    6  0.9533401E-008  0.1084348E+04  0.7818608E-02  0.9220583E-01
          2   -1    0    0  501    0  0.00000000000E+00  0.00000000000E+00  0.13075286237E+04  0.13075286237E+04  0.00000000000E+00 0. -1.
         -1   -1    0    0    0  501 -0.00000000000E+00 -0.00000000000E+00 -0.22481551094E+03  0.22481551094E+03  0.00000000000E+00 0.  1.
         24    2    1    2    0    0 -0.18847016843E+03  0.25795377793E+01  0.16677938155E+03  0.26341385027E+03  0.77742112151E+02 0.  0.
        254    2    1    2    0    0  0.18847016843E+03 -0.25795377793E+01  0.91593373125E+03  0.12689302844E+04  0.85774227380E+03 0.  0.
         23    2    4    4    0    0  0.10066430551E+03  0.41699561834E+03  0.44060077008E+03  0.62231165621E+03  0.95520211136E+02 0.  0.
         23    2    4    4    0    0  0.87805862922E+02 -0.41957515612E+03  0.47533296117E+03  0.64661862821E+03  0.91766252892E+02 0.  0.
          2    1    3    3  502    0 -0.44256964513E+02  0.49917500167E+01  0.89055902142E+02  0.99571834283E+02  0.00000000000E+00 0. -1.
         -1    1    3    3    0  502 -0.14421320392E+03 -0.24122122374E+01  0.77723479405E+02  0.16384201599E+03  0.00000000000E+00 0.  1.
         11    1    5    5    0    0 -0.70365310515E+01  0.11088508207E+03  0.78263903953E+02  0.13590530842E+03  0.00000000000E+00 0. -1.
        -11    1    5    5    0    0  0.10770083656E+03  0.30611053628E+03  0.36233686612E+03  0.48640634779E+03  0.00000000000E+00 0.  1.
          4    1    6    6  503    0  0.29707874177E+02 -0.26086869424E+02  0.57054003743E+02  0.69413556944E+02  0.00000000000E+00 0. -1.
         -4    1    6    6    0  503  0.58097988745E+02 -0.39348828670E+03  0.41827895743E+03  0.57720507126E+03  0.00000000000E+00 0.  1.
<mgrwt>
<rscale>  0 0.10843481E+04</rscale>
<asrwt>0</asrwt>
<pdfrwt beam="1">  1        2 0.20115825E+00 0.10843481E+04</pdfrwt>
<pdfrwt beam="2">  1       -1 0.34587002E-01 0.10843481E+04</pdfrwt>
<totfact> 0.14676966E+02</totfact>
</mgrwt>
</event>
<event>
12    6  0.9533401E-008  0.1435044E+04  0.7818608E-02  0.8928835E-01
         -1   -1    0    0    0  501 -0.00000000000E+00  0.00000000000E+00  0.67429432652E+03  0.67429432652E+03  0.00000000000E+00 0.  1.
          2   -1    0    0  501    0  0.00000000000E+00 -0.00000000000E+00 -0.76352074098E+03  0.76352074098E+03  0.00000000000E+00 0. -1.
         24    2    1    2    0    0  0.31019933871E+03  0.10935850072E+03  0.24745292504E+03  0.41990487847E+03  0.83091789256E+02 0.  0.
        254    2    1    2    0    0 -0.31019933871E+03 -0.10935850072E+03 -0.33667933950E+03  0.10179101890E+04  0.90255485366E+03 0.  0.
         23    2    4    4    0    0 -0.21128735828E+03 -0.51533019482E+02 -0.63977158050E+03  0.68145671893E+03  0.88190615666E+02 0.  0.
         23    2    4    4    0    0 -0.98911980425E+02 -0.57825481240E+02  0.30309224100E+03  0.33645347010E+03  0.90601682308E+02 0.  0.
          2    1    3    3  502    0  0.91565208310E+02  0.26009231977E+02  0.28268504274E+02  0.99296404037E+02  0.00000000000E+00 0. -1.
         -1    1    3    3    0  502  0.21863413040E+03  0.83349268745E+02  0.21918442076E+03  0.32060847444E+03  0.00000000000E+00 0.  1.
         11    1    5    5    0    0 -0.15960590554E+03 -0.40178575120E+02 -0.57351468812E+03  0.59666360747E+03  0.00000000000E+00 0. -1.
        -11    1    5    5    0    0 -0.51681452738E+02 -0.11354444361E+02 -0.66256892376E+02  0.84793111460E+02  0.00000000000E+00 0.  1.
          2    1    6    6  503    0 -0.44905333227E+02 -0.45457042089E+02  0.25564290268E+03  0.26350735344E+03  0.00000000000E+00 0. -1.
         -2    1    6    6    0  503 -0.54006647198E+02 -0.12368439151E+02  0.47449338318E+02  0.72946116657E+02  0.00000000000E+00 0.  1.
<mgrwt>
<rscale>  0 0.14350438E+04</rscale>
<asrwt>0</asrwt>
<pdfrwt beam="1">  1        2 0.11746473E+00 0.14350438E+04</pdfrwt>
<pdfrwt beam="2">  1       -1 0.10373759E+00 0.14350438E+04</pdfrwt>
<totfact> 0.35579749E+01</totfact>
</mgrwt>
</event>
<event>
12    6  0.9533401E-008  0.1634762E+04  0.7818608E-02  0.8799473E-01
          2   -1    0    0  501    0  0.00000000000E+00  0.00000000000E+00  0.83287813015E+03  0.83287813015E+03  0.00000000000E+00 0. -1.
         -1   -1    0    0    0  501 -0.00000000000E+00 -0.00000000000E+00 -0.80217201086E+03  0.80217201086E+03  0.00000000000E+00 0.  1.
         24    2    1    2    0    0 -0.12352072527E+03  0.47795666291E+03  0.26996739651E+03  0.56821973556E+03  0.79317914162E+02 0.  0.
        254    2    1    2    0    0  0.12352072527E+03 -0.47795666291E+03 -0.23926127722E+03  0.10668304055E+04  0.91497607293E+03 0.  0.
         23    2    4    4    0    0  0.25894848326E+03  0.17388026182E+03 -0.22297183585E+03  0.39527281396E+03  0.96101485131E+02 0.  0.
         23    2    4    4    0    0 -0.13542775798E+03 -0.65183692473E+03 -0.16289441368E+02  0.67155759149E+03  0.86557487959E+02 0.  0.
          2    1    3    3  502    0 -0.94975565440E+02  0.40828546009E+03  0.19626163041E+03  0.46285635193E+03  0.00000000000E+00 0. -1.
         -1    1    3    3    0  502 -0.28545159834E+02  0.69671202815E+02  0.73705766109E+02  0.10536338363E+03  0.00000000000E+00 0.  1.
         11    1    5    5    0    0  0.10155835819E+03  0.90011906222E+02 -0.44118360277E+02  0.14269783843E+03  0.00000000000E+00 0. -1.
        -11    1    5    5    0    0  0.15739012507E+03  0.83868355598E+02 -0.17885347558E+03  0.25257497553E+03  0.00000000000E+00 0.  1.
          1    1    6    6  503    0 -0.73133740606E+02 -0.20644328645E+03 -0.33169567738E+02  0.22151206459E+03  0.00000000000E+00 0. -1.
         -1    1    6    6    0  503 -0.62294017375E+02 -0.44539363827E+03  0.16880126370E+02  0.45004552690E+03  0.00000000000E+00 0.  1.
<mgrwt>
<rscale>  0 0.16347618E+04</rscale>
<asrwt>0</asrwt>
<pdfrwt beam="1">  1        2 0.12813510E+00 0.16347618E+04</pdfrwt>
<pdfrwt beam="2">  1       -1 0.12341108E+00 0.16347618E+04</pdfrwt>
<totfact> 0.20584793E+01</totfact>
</mgrwt>
</event>
<event>
12    6  0.9533401E-008  0.1225029E+04  0.7818608E-02  0.9091227E-01
         -1   -1    0    0    0  501 -0.00000000000E+00  0.00000000000E+00  0.63514865396E+03  0.63514865396E+03  0.00000000000E+00 0.  1.
          2   -1    0    0  501    0  0.00000000000E+00 -0.00000000000E+00 -0.59068660816E+03  0.59068660816E+03  0.00000000000E+00 0. -1.
         24    2    1    2    0    0 -0.59622618872E+01 -0.92175498718E+02 -0.27341967292E+03  0.29961875894E+03  0.80505975186E+02 0.  0.
        254    2    1    2    0    0  0.59622618872E+01  0.92175498718E+02  0.31788171871E+03  0.92621650318E+03  0.86504124326E+03 0.  0.
         23    2    4    4    0    0 -0.12767637228E+03 -0.34210998767E+03  0.23042530846E+02  0.37698610066E+03  0.90813336884E+02 0.  0.
         23    2    4    4    0    0  0.13363863417E+03  0.43428548639E+03  0.29483918787E+03  0.54923040253E+03  0.90888503814E+02 0.  0.
          2    1    3    3  502    0  0.20012942027E+02 -0.58619740110E+02 -0.23271558308E+03  0.24081805245E+03  0.00000000000E+00 0. -1.
         -1    1    3    3    0  502 -0.25975203914E+02 -0.33555758608E+02 -0.40704089841E+02  0.58800706492E+02  0.00000000000E+00 0.  1.
         11    1    5    5    0    0 -0.36645219906E+02 -0.19736290413E+03  0.41562474677E+02  0.20499372520E+03  0.00000000000E+00 0.  1.
        -11    1    5    5    0    0 -0.91031152372E+02 -0.14474708354E+03 -0.18519943831E+02  0.17199237545E+03  0.00000000000E+00 0. -1.
          3    1    6    6  503    0  0.13679220346E+03  0.34113857757E+03  0.25779196142E+03  0.44893689022E+03  0.00000000000E+00 0. -1.
         -3    1    6    6    0  503 -0.31535692918E+01  0.93146908822E+02  0.37047226451E+02  0.10029351230E+03  0.00000000000E+00 0.  1.
<mgrwt>
<rscale>  0 0.12250287E+04</rscale>
<asrwt>0</asrwt>
<pdfrwt beam="1">  1        2 0.90874863E-01 0.12250287E+04</pdfrwt>
<pdfrwt beam="2">  1       -1 0.97715178E-01 0.12250287E+04</pdfrwt>
<totfact> 0.57206609E+01</totfact>
</mgrwt>
</event>
<event>
12    6  0.9533401E-008  0.1744872E+04  0.7818608E-02  0.8736178E-01
         -1   -1    0    0    0  501 -0.00000000000E+00  0.00000000000E+00  0.24779410842E+03  0.24779410842E+03  0.00000000000E+00 0.  1.
          2   -1    0    0  501    0  0.00000000000E+00 -0.00000000000E+00 -0.30716819909E+04  0.30716819909E+04  0.00000000000E+00 0. -1.
         24    2    1    2    0    0  0.14346399656E+03 -0.60382658880E+03 -0.78437187363E+03  0.10032599086E+04  0.78120038072E+02 0.  0.
        254    2    1    2    0    0 -0.14346399656E+03  0.60382658880E+03 -0.20395160088E+04  0.23162161907E+04  0.90556249055E+03 0.  0.
         23    2    4    4    0    0 -0.41802828689E+02  0.50384433017E+03 -0.35797776453E+03  0.62605815952E+03  0.90521564671E+02 0.  0.
         23    2    4    4    0    0 -0.10166116787E+03  0.99982258636E+02 -0.16815382443E+04  0.16901580312E+04  0.93444413267E+02 0.  0.
          2    1    3    3  502    0  0.79579297040E+01 -0.11755258417E+03 -0.11272217961E+03  0.16305897236E+03  0.00000000000E+00 0. -1.
         -1    1    3    3    0  502  0.13550606685E+03 -0.48627400463E+03 -0.67164969402E+03  0.84020093621E+03  0.00000000000E+00 0.  1.
         11    1    5    5    0    0 -0.54916578698E+02  0.48756872279E+03 -0.35336588371E+03  0.60465406459E+03  0.00000000000E+00 0. -1.
        -11    1    5    5    0    0  0.13113750009E+02  0.16275607379E+02 -0.46118808226E+01  0.21404094926E+02  0.00000000000E+00 0.  1.
          4    1    6    6  503    0  0.10788415464E+02 -0.84309582745E+01 -0.17886397034E+03  0.17938726502E+03  0.00000000000E+00 0. -1.
         -4    1    6    6    0  503 -0.11244958333E+03  0.10841321691E+03 -0.15026742739E+04  0.15107707662E+04  0.00000000000E+00 0.  1.
<mgrwt>
<rscale>  0 0.17448721E+04</rscale>
<asrwt>0</asrwt>
<pdfrwt beam="1">  1        2 0.47256649E+00 0.17448721E+04</pdfrwt>
<pdfrwt beam="2">  1       -1 0.38122168E-01 0.17448721E+04</pdfrwt>
<totfact> 0.11317891E+01</totfact>
</mgrwt>
</event>
<event>
12    6  0.9533401E-008  0.1999449E+04  0.7818608E-02  0.8606878E-01
          2   -1    0    0  501    0  0.00000000000E+00  0.00000000000E+00  0.17175351247E+04  0.17175351247E+04  0.00000000000E+00 0. -1.
         -1   -1    0    0    0  501 -0.00000000000E+00 -0.00000000000E+00 -0.58190881348E+03  0.58190881348E+03  0.00000000000E+00 0.  1.
         24    2    1    2    0    0  0.68310226290E+03 -0.33404052850E+03  0.16954314352E+03  0.78339896222E+03  0.82202677799E+02 0.  0.
        254    2    1    2    0    0 -0.68310226290E+03  0.33404052850E+03  0.96608316771E+03  0.15160449760E+04  0.88705349667E+03 0.  0.
         23    2    4    4    0    0 -0.58409814472E+03 -0.19285592936E+03  0.56726270954E+03  0.84162374841E+03  0.90440588737E+02 0.  0.
         23    2    4    4    0    0 -0.99004118184E+02  0.52689645786E+03  0.39882045817E+03  0.67442122756E+03  0.91457867950E+02 0.  0.
          2    1    3    3  502    0  0.39673838429E+03 -0.15279610991E+03  0.76667698935E+02  0.43200223707E+03  0.00000000000E+00 0. -1.
         -1    1    3    3    0  502  0.28636387861E+03 -0.18124441859E+03  0.92875444583E+02  0.35139672516E+03  0.00000000000E+00 0.  1.
         11    1    5    5    0    0 -0.17872311690E+03 -0.34327602395E+02  0.21489630192E+03  0.28160390158E+03  0.00000000000E+00 0.  1.
        -11    1    5    5    0    0 -0.40537502781E+03 -0.15852832697E+03  0.35236640762E+03  0.56001984683E+03  0.00000000000E+00 0. -1.
          4    1    6    6  503    0 -0.10558078878E+03  0.38379741952E+03  0.32125252293E+03  0.51151827502E+03  0.00000000000E+00 0. -1.
         -4    1    6    6    0  503  0.65766705993E+01  0.14309903833E+03  0.77567935236E+02  0.16290295254E+03  0.00000000000E+00 0.  1.
<mgrwt>
<rscale>  0 0.19994488E+04</rscale>
<asrwt>0</asrwt>
<pdfrwt beam="1">  1        2 0.26423617E+00 0.19994488E+04</pdfrwt>
<pdfrwt beam="2">  1       -1 0.89524434E-01 0.19994488E+04</pdfrwt>
<totfact> 0.12400588E+01</totfact>
</mgrwt>
</event>
<event>
12    6  0.9533401E-008  0.3283050E+04  0.7818608E-02  0.8167222E-01
          2   -1    0    0  501    0  0.00000000000E+00  0.00000000000E+00  0.34296711931E+04  0.34296711931E+04  0.00000000000E+00 0. -1.
         -1   -1    0    0    0  501 -0.00000000000E+00 -0.00000000000E+00 -0.78567414048E+03  0.78567414048E+03  0.00000000000E+00 0.  1.
         24    2    1    2    0    0 -0.51941776044E+03  0.12972989717E+04  0.45665635911E+03  0.14722996526E+04  0.79698210784E+02 0.  0.
        254    2    1    2    0    0  0.51941776044E+03 -0.12972989717E+04  0.21873406935E+04  0.27430456809E+04  0.88716450922E+03 0.  0.
         23    2    4    4    0    0  0.36298082144E+03 -0.22463577362E+03  0.11876192889E+04  0.12656120150E+04  0.95487640705E+02 0.  0.
         23    2    4    4    0    0  0.15643693900E+03 -0.10726631981E+04  0.99972140457E+03  0.14774336660E+04  0.91041188976E+02 0.  0.
          4    1    3    3  502    0 -0.14255911155E+03  0.35659386668E+03  0.88390674319E+02  0.39407511638E+03  0.00000000000E+00 0. -1.
         -3    1    3    3    0  502 -0.37685864889E+03  0.94070510507E+03  0.36826568479E+03  0.10782245362E+04  0.00000000000E+00 0.  1.
         11    1    5    5    0    0  0.22556833161E+03 -0.12706718490E+03  0.84527452909E+03  0.88403403285E+03  0.00000000000E+00 0.  1.
        -11    1    5    5    0    0  0.13741248983E+03 -0.97568588720E+02  0.34234475981E+03  0.38157798212E+03  0.00000000000E+00 0. -1.
          4    1    6    6  503    0  0.11421499435E+02 -0.68170244808E+02  0.36307735820E+02  0.78076146209E+02  0.00000000000E+00 0. -1.
         -4    1    6    6    0  503  0.14501543957E+03 -0.10044929533E+04  0.96341366875E+03  0.13993575198E+04  0.00000000000E+00 0.  1.
<mgrwt>
<rscale>  0 0.32830498E+04</rscale>
<asrwt>0</asrwt>
<pdfrwt beam="1">  1        2 0.52764171E+00 0.32830498E+04</pdfrwt>
<pdfrwt beam="2">  1       -1 0.12087295E+00 0.32830498E+04</pdfrwt>
<totfact> 0.52474210E-01</totfact>
</mgrwt>
</event>
<event>
12    6  0.9533401E-008  0.1605063E+04  0.7818608E-02  0.8817444E-01
          2   -1    0    0  501    0  0.00000000000E+00  0.00000000000E+00  0.76236143864E+03  0.76236143864E+03  0.00000000000E+00 0. -1.
         -1   -1    0    0    0  501 -0.00000000000E+00 -0.00000000000E+00 -0.84481766771E+03  0.84481766771E+03  0.00000000000E+00 0.  1.
         24    2    1    2    0    0  0.37984908369E+03  0.36126599579E+03 -0.96268412136E+02  0.53898256035E+03  0.80225601285E+02 0.  0.
        254    2    1    2    0    0 -0.37984908369E+03 -0.36126599579E+03  0.13812183059E+02  0.10681965460E+04  0.93062056628E+03 0.  0.
         23    2    4    4    0    0 -0.88898189739E+00  0.29292062313E+03 -0.42066294918E+01  0.30658248929E+03  0.90398259174E+02 0.  0.
         23    2    4    4    0    0 -0.37896010179E+03 -0.65418661892E+03  0.18018812551E+02  0.76161405670E+03  0.90334946967E+02 0.  0.
          4    1    3    3  502    0  0.36913566054E+03  0.35487833732E+03 -0.79662806301E+02  0.51821417666E+03  0.00000000000E+00 0. -1.
         -3    1    3    3    0  502  0.10713423151E+02  0.63876584635E+01 -0.16605605835E+02  0.20768383698E+02  0.00000000000E+00 0.  1.
         11    1    5    5    0    0 -0.17643131174E+02  0.14877330697E+02 -0.15509327541E+02  0.27805652070E+02  0.00000000000E+00 0. -1.
        -11    1    5    5    0    0  0.16754149277E+02  0.27804329244E+03  0.11302698049E+02  0.27877683722E+03  0.00000000000E+00 0.  1.
          1    1    6    6  503    0 -0.90124397155E+02 -0.13859819300E+03 -0.32467234068E+02  0.16848141545E+03  0.00000000000E+00 0. -1.
         -1    1    6    6    0  503 -0.28883570464E+03 -0.51558842592E+03  0.50486046619E+02  0.59313264125E+03  0.00000000000E+00 0.  1.
<mgrwt>
<rscale>  0 0.16050625E+04</rscale>
<asrwt>0</asrwt>
<pdfrwt beam="1">  1        2 0.11728638E+00 0.16050625E+04</pdfrwt>
<pdfrwt beam="2">  1       -1 0.12997195E+00 0.16050625E+04</pdfrwt>
<totfact> 0.20391443E+01</totfact>
</mgrwt>
</event>
<event>
12    6  0.9533401E-008  0.1708261E+04  0.7818608E-02  0.8756667E-01
          2   -1    0    0  501    0  0.00000000000E+00  0.00000000000E+00  0.30625658380E+04  0.30625658380E+04  0.00000000000E+00 0. -1.
         -1   -1    0    0    0  501 -0.00000000000E+00 -0.00000000000E+00 -0.23821177558E+03  0.23821177558E+03  0.00000000000E+00 0.  1.
         24    2    1    2    0    0 -0.42813496828E+03  0.10227087197E+03  0.18433270244E+04  0.18968744293E+04  0.80741559005E+02 0.  0.
        254    2    1    2    0    0  0.42813496828E+03 -0.10227087197E+03  0.98102703808E+03  0.14039031843E+04  0.90264678541E+03 0.  0.
         23    2    4    4    0    0  0.54857215244E+03  0.21258618303E+03  0.37267244111E+03  0.70255647955E+03  0.92609756248E+02 0.  0.
         23    2    4    4    0    0 -0.12043718416E+03 -0.31485705500E+03  0.60835459697E+03  0.70134670478E+03  0.90287342616E+02 0.  0.
          2    1    3    3  502    0 -0.42756796835E+03  0.98270891327E+02  0.18401777124E+04  0.18917519787E+04  0.00000000000E+00 0. -1.
         -1    1    3    3    0  502 -0.56699992784E+00  0.39999806439E+01  0.31493119406E+01  0.51224505628E+01  0.00000000000E+00 0.  1.
         11    1    5    5    0    0  0.43589032592E+03  0.20406843543E+03  0.31933686930E+03  0.57759876962E+03  0.00000000000E+00 0.  1.
        -11    1    5    5    0    0  0.11268182652E+03  0.85177475981E+01  0.53335571805E+02  0.12495770993E+03  0.00000000000E+00 0. -1.
          3    1    6    6  503    0 -0.11208583108E+03 -0.28731251136E+03  0.48554444498E+03  0.57520876277E+03  0.00000000000E+00 0. -1.
         -3    1    6    6    0  503 -0.83513530810E+01 -0.27544543636E+02  0.12281015199E+03  0.12613794201E+03  0.00000000000E+00 0.  1.
<mgrwt>
<rscale>  0 0.17082614E+04</rscale>
<asrwt>0</asrwt>
<pdfrwt beam="1">  1        2 0.47116395E+00 0.17082614E+04</pdfrwt>
<pdfrwt beam="2">  1       -1 0.36647968E-01 0.17082614E+04</pdfrwt>
<totfact> 0.12359902E+01</totfact>
</mgrwt>
</event>
<event>
12    6  0.9533401E-008  0.1483361E+04  0.7818608E-02  0.8895594E-01
         -1   -1    0    0    0  501 -0.00000000000E+00  0.00000000000E+00  0.68181527407E+03  0.68181527407E+03  0.00000000000E+00 0.  1.
          2   -1    0    0  501    0  0.00000000000E+00 -0.00000000000E+00 -0.80680151886E+03  0.80680151886E+03  0.00000000000E+00 0. -1.
         24    2    1    2    0    0 -0.27525657681E+03  0.27467696566E+03 -0.14496479291E+03  0.42291627998E+03  0.81423400487E+02 0.  0.
        254    2    1    2    0    0  0.27525657681E+03 -0.27467696566E+03  0.19978548127E+02  0.10657005130E+04  0.99202057559E+03 0.  0.
         23    2    4    4    0    0  0.50251574996E+03 -0.50512674317E+03  0.84384577648E+02  0.72311774883E+03  0.90018976359E+02 0.  0.
         23    2    4    4    0    0 -0.22725917315E+03  0.23044977751E+03 -0.64406029521E+02  0.34258276412E+03  0.91983595800E+02 0.  0.
          2    1    3    3  502    0 -0.27593827104E+03  0.25015116198E+03 -0.13186143331E+03  0.39510121597E+03  0.00000000000E+00 0. -1.
         -1    1    3    3    0  502  0.68169423348E+00  0.24525803672E+02 -0.13103359598E+02  0.27815064003E+02  0.00000000000E+00 0.  1.
         11    1    5    5    0    0  0.50019066795E+03 -0.50875363351E+03  0.81894748329E+02  0.71814184791E+03  0.00000000000E+00 0. -1.
        -11    1    5    5    0    0  0.23250820119E+01  0.36268903437E+01  0.24898293190E+01  0.49759009199E+01  0.00000000000E+00 0.  1.
          1    1    6    6  503    0 -0.20940167301E+03  0.16347330450E+03 -0.37777287165E+02  0.26832760828E+03  0.00000000000E+00 0. -1.
         -1    1    6    6    0  503 -0.17857500147E+02  0.66976473017E+02 -0.26628742355E+02  0.74255155839E+02  0.00000000000E+00 0.  1.
<mgrwt>
<rscale>  0 0.14833605E+04</rscale>
<asrwt>0</asrwt>
<pdfrwt beam="1">  1        2 0.12412331E+00 0.14833605E+04</pdfrwt>
<pdfrwt beam="2">  1       -1 0.10489466E+00 0.14833605E+04</pdfrwt>
<totfact> 0.32111797E+01</totfact>
</mgrwt>
</event>
<event>
12    6  0.9533401E-008  0.1231571E+04  0.7818608E-02  0.9085662E-01
          2   -1    0    0  501    0  0.00000000000E+00  0.00000000000E+00  0.17331064825E+04  0.17331064825E+04  0.00000000000E+00 0. -1.
         -1   -1    0    0    0  501 -0.00000000000E+00 -0.00000000000E+00 -0.21879326838E+03  0.21879326838E+03  0.00000000000E+00 0.  1.
         24    2    1    2    0    0  0.22321835658E+03  0.53760907071E+02  0.10769720837E+03  0.26583875625E+03  0.79717537527E+02 0.  0.
        254    2    1    2    0    0 -0.22321835658E+03 -0.53760907071E+02  0.14066160057E+04  0.16860609946E+04  0.90084206168E+03 0.  0.
         23    2    4    4    0    0 -0.25762029264E+03  0.36628162255E+03  0.47289418229E+03  0.65763641044E+03  0.91248553372E+02 0.  0.
         23    2    4    4    0    0  0.34401936061E+02 -0.42004252962E+03  0.93372182343E+03  0.10284245842E+04  0.90561922791E+02 0.  0.
          4    1    3    3  502    0  0.84133158187E+02 -0.18110294986E+02  0.30703234906E+02  0.91373189310E+02  0.00000000000E+00 0. -1.
         -3    1    3    3    0  502  0.13908519839E+03  0.71871202057E+02  0.76993973460E+02  0.17446556694E+03  0.00000000000E+00 0.  1.
         11    1    5    5    0    0 -0.24361687511E+03  0.31694374170E+03  0.38011092808E+03  0.55162200363E+03  0.00000000000E+00 0. -1.
        -11    1    5    5    0    0 -0.14003417530E+02  0.49337880842E+02  0.92783254209E+02  0.10601440680E+03  0.00000000000E+00 0.  1.
          1    1    6    6  503    0  0.65594205116E+02 -0.29129243644E+03  0.64966376882E+03  0.71499433270E+03  0.00000000000E+00 0. -1.
         -1    1    6    6    0  503 -0.31192269056E+02 -0.12875009317E+03  0.28405805461E+03  0.31343025146E+03  0.00000000000E+00 0.  1.
<mgrwt>
<rscale>  0 0.12315714E+04</rscale>
<asrwt>0</asrwt>
<pdfrwt beam="1">  1        2 0.26663176E+00 0.12315714E+04</pdfrwt>
<pdfrwt beam="2">  1       -1 0.33660504E-01 0.12315714E+04</pdfrwt>
<totfact> 0.87744970E+01</totfact>
</mgrwt>
</event>
<event>
12    6  0.9533401E-008  0.1932364E+04  0.7818608E-02  0.8638912E-01
         -1   -1    0    0    0  501 -0.00000000000E+00  0.00000000000E+00  0.25095280483E+03  0.25095280483E+03  0.00000000000E+00 0.  1.
          2   -1    0    0  501    0  0.00000000000E+00 -0.00000000000E+00 -0.37198546524E+04  0.37198546524E+04  0.00000000000E+00 0. -1.
         24    2    1    2    0    0 -0.68163049398E+03  0.21309070601E+03 -0.87035020431E+03  0.11287747728E+04  0.81211023519E+02 0.  0.
        254    2    1    2    0    0  0.68163049398E+03 -0.21309070601E+03 -0.25985516433E+04  0.28420326844E+04  0.90258038820E+03 0.  0.
         23    2    4    4    0    0  0.47544136471E+02  0.21853893589E+03 -0.13674751415E+04  0.13886598811E+04  0.91478364489E+02 0.  0.
         23    2    4    4    0    0  0.63408635750E+03 -0.43162964190E+03 -0.12310765017E+04  0.14533728033E+04  0.91506807390E+02 0.  0.
          4    1    3    3  502    0 -0.30571253837E+03  0.72650729459E+02 -0.32953572449E+03  0.45533732367E+03  0.00000000000E+00 0. -1.
         -3    1    3    3    0  502 -0.37591795560E+03  0.14043997656E+03 -0.54081447982E+03  0.67343744917E+03  0.00000000000E+00 0.  1.
         11    1    5    5    0    0  0.46348998701E+02  0.11713245306E+03 -0.98284636575E+03  0.99088607817E+03  0.00000000000E+00 0. -1.
        -11    1    5    5    0    0  0.11951377701E+01  0.10140648283E+03 -0.38462877580E+03  0.39777380292E+03  0.00000000000E+00 0.  1.
          4    1    6    6  503    0  0.12855199357E+03 -0.11661808113E+03 -0.33663449940E+03  0.37874553210E+03  0.00000000000E+00 0. -1.
         -4    1    6    6    0  503  0.50553436394E+03 -0.31501156077E+03 -0.89444200233E+03  0.10746272712E+04  0.00000000000E+00 0.  1.
<mgrwt>
<rscale>  0 0.19323643E+04</rscale>
<asrwt>0</asrwt>
<pdfrwt beam="1">  1        2 0.57228533E+00 0.19323643E+04</pdfrwt>
<pdfrwt beam="2">  1       -1 0.38608124E-01 0.19323643E+04</pdfrwt>
<totfact> 0.39322988E+00</totfact>
</mgrwt>
</event>
<event>
12    6  0.9533401E-008  0.1478642E+04  0.7818608E-02  0.8898781E-01
          2   -1    0    0  501    0  0.00000000000E+00  0.00000000000E+00  0.36816437511E+04  0.36816437511E+04  0.00000000000E+00 0. -1.
         -1   -1    0    0    0  501 -0.00000000000E+00 -0.00000000000E+00 -0.14846512210E+03  0.14846512210E+03  0.00000000000E+00 0.  1.
         24    2    1    2    0    0  0.29340438848E+03 -0.14164147182E+03  0.19538502371E+04  0.19824593980E+04  0.80411902411E+02 0.  0.
        254    2    1    2    0    0 -0.29340438848E+03  0.14164147182E+03  0.15793283919E+04  0.18476494752E+04  0.90187691620E+03 0.  0.
         23    2    4    4    0    0  0.33878846262E+01 -0.20329060082E+03  0.12715390204E+04  0.12908611637E+04  0.90401976284E+02 0.  0.
         23    2    4    4    0    0 -0.29679227310E+03  0.34493207264E+03  0.30778937146E+03  0.55678831148E+03  0.90637401252E+02 0.  0.
          4    1    3    3  502    0  0.26103908970E+03 -0.14490632553E+03  0.16425253689E+04  0.16694396775E+04  0.00000000000E+00 0. -1.
         -3    1    3    3    0  502  0.32365298777E+02  0.32648537100E+01  0.31132486822E+03  0.31301972048E+03  0.00000000000E+00 0.  1.
         11    1    5    5    0    0 -0.10535958035E+02 -0.18079812922E+03  0.12151947683E+04  0.12286160079E+04  0.00000000000E+00 0.  1.
        -11    1    5    5    0    0  0.13923842661E+02 -0.22492471603E+02  0.56344252147E+02  0.62245155822E+02  0.00000000000E+00 0. -1.
          4    1    6    6  503    0 -0.20822400695E+03  0.25688759124E+03  0.26822826898E+03  0.42578735994E+03  0.00000000000E+00 0. -1.
         -4    1    6    6    0  503 -0.88568266157E+02  0.88044481402E+02  0.39561102476E+02  0.13100095154E+03  0.00000000000E+00 0.  1.
<mgrwt>
<rscale>  0 0.14786422E+04</rscale>
<asrwt>0</asrwt>
<pdfrwt beam="1">  1        2 0.56640666E+00 0.14786422E+04</pdfrwt>
<pdfrwt beam="2">  1       -1 0.22840791E-01 0.14786422E+04</pdfrwt>
<totfact> 0.11044528E+01</totfact>
</mgrwt>
</event>
<event>
12    6  0.9533401E-008  0.1120268E+04  0.7818608E-02  0.9185659E-01
         -1   -1    0    0    0  501 -0.00000000000E+00  0.00000000000E+00  0.17269506324E+03  0.17269506324E+03  0.00000000000E+00 0.  1.
          2   -1    0    0  501    0  0.00000000000E+00 -0.00000000000E+00 -0.18167865233E+04  0.18167865233E+04  0.00000000000E+00 0. -1.
         24    2    1    2    0    0 -0.94132280048E+02 -0.14558782581E+03 -0.12050782323E+03  0.21772256567E+03  0.53143945780E+02 0.  0.
        254    2    1    2    0    0  0.94132280048E+02  0.14558782581E+03 -0.15235836368E+04  0.17717590209E+04  0.88756195752E+03 0.  0.
         23    2    4    4    0    0 -0.92703213871E+02  0.38369293537E+03 -0.29040843168E+03  0.49855498167E+03  0.91683466575E+02 0.  0.
         23    2    4    4    0    0  0.18683549392E+03 -0.23810510956E+03 -0.12331752052E+04  0.12732040392E+04  0.93412492993E+02 0.  0.
          4    1    3    3  502    0  0.47000945772E+01 -0.24733770586E+02 -0.15282932475E+02  0.29451966343E+02  0.00000000000E+00 0. -1.
         -3    1    3    3    0  502 -0.98832374625E+02 -0.12085405522E+03 -0.10522489075E+03  0.18827059933E+03  0.00000000000E+00 0.  1.
         11    1    5    5    0    0  0.15863789290E+02  0.20304606492E+02 -0.14647671906E+02  0.29639351337E+02  0.00000000000E+00 0. -1.
        -11    1    5    5    0    0 -0.10856700316E+03  0.36338832887E+03 -0.27576075977E+03  0.46891563033E+03  0.00000000000E+00 0.  1.
          2    1    6    6  503    0  0.16553426293E+03 -0.23149294310E+03 -0.10229531675E+04  0.10618021274E+04  0.00000000000E+00 0.  1.
         -2    1    6    6    0  503  0.21301230990E+02 -0.66121664612E+01 -0.21022203767E+03  0.21140191179E+03  0.00000000000E+00 0. -1.
<mgrwt>
<rscale>  0 0.11202679E+04</rscale>
<asrwt>0</asrwt>
<pdfrwt beam="1">  1        2 0.27950563E+00 0.11202679E+04</pdfrwt>
<pdfrwt beam="2">  1       -1 0.26568470E-01 0.11202679E+04</pdfrwt>
<totfact> 0.12040527E+02</totfact>
</mgrwt>
</event>
<event>
12    6  0.9533401E-008  0.1509490E+04  0.7818608E-02  0.8878166E-01
          2   -1    0    0  501    0  0.00000000000E+00  0.00000000000E+00  0.54316187885E+03  0.54316187885E+03  0.00000000000E+00 0. -1.
         -1   -1    0    0    0  501 -0.00000000000E+00 -0.00000000000E+00 -0.10487484193E+04  0.10487484193E+04  0.00000000000E+00 0.  1.
         24    2    1    2    0    0 -0.22888392313E+03 -0.89955051942E+02  0.27405358654E+03  0.37689221197E+03  0.80390357057E+02 0.  0.
        254    2    1    2    0    0  0.22888392313E+03  0.89955051942E+02 -0.77964012705E+03  0.12150180862E+04  0.89886064578E+03 0.  0.
         23    2    4    4    0    0  0.45098058012E+03 -0.13238882158E+02 -0.78348965978E+02  0.46660460642E+03  0.89568669814E+02 0.  0.
         23    2    4    4    0    0 -0.22209665700E+03  0.10319393410E+03 -0.70129116107E+03  0.74841347981E+03  0.91310082044E+02 0.  0.
          4    1    3    3  502    0 -0.13825164029E+03 -0.94256838874E+02  0.19045235165E+03  0.25351521841E+03  0.00000000000E+00 0. -1.
         -3    1    3    3    0  502 -0.90632282834E+02  0.43017869318E+01  0.83601234895E+02  0.12337699355E+03  0.00000000000E+00 0.  1.
         11    1    5    5    0    0  0.30110193712E+03 -0.50852119787E+02 -0.56318317377E+02  0.31051580877E+03  0.00000000000E+00 0. -1.
        -11    1    5    5    0    0  0.14987864300E+03  0.37613237630E+02 -0.22030648601E+02  0.15608879765E+03  0.00000000000E+00 0.  1.
          1    1    6    6  503    0 -0.67308268852E+01  0.25427172668E+02 -0.34372123370E+02  0.43281497264E+02  0.00000000000E+00 0. -1.
         -1    1    6    6    0  503 -0.21536583011E+03  0.77766761432E+02 -0.66691903770E+03  0.70513198254E+03  0.00000000000E+00 0.  1.
<mgrwt>
<rscale>  0 0.15094902E+04</rscale>
<asrwt>0</asrwt>
<pdfrwt beam="1">  1        2 0.83563367E-01 0.15094902E+04</pdfrwt>
<pdfrwt beam="2">  1       -1 0.16134591E+00 0.15094902E+04</pdfrwt>
<totfact> 0.17601674E+01</totfact>
</mgrwt>
</event>
<event>
12    6  0.9533401E-008  0.2160430E+04  0.7818608E-02  0.8535081E-01
          2   -1    0    0  501    0  0.00000000000E+00  0.00000000000E+00  0.96437688948E+03  0.96437688948E+03  0.00000000000E+00 0. -1.
         -1   -1    0    0    0  501 -0.00000000000E+00 -0.00000000000E+00 -0.12099667546E+04  0.12099667546E+04  0.00000000000E+00 0.  1.
         24    2    1    2    0    0 -0.20972701220E+03 -0.36585319660E+03  0.69248921495E+03  0.81460579008E+03  0.78786415627E+02 0.  0.
        254    2    1    2    0    0  0.20972701220E+03  0.36585319660E+03 -0.93807908003E+03  0.13597378540E+04  0.88941592632E+03 0.  0.
         23    2    4    4    0    0  0.46589985060E+03  0.25884475015E+02 -0.22908447788E+03  0.52808516427E+03  0.93067533981E+02 0.  0.
         23    2    4    4    0    0 -0.25617283840E+03  0.33996872159E+03 -0.70899460216E+03  0.83165268969E+03  0.88145309503E+02 0.  0.
          4    1    3    3  502    0 -0.84604594872E+02 -0.20882350405E+03  0.31865939326E+03  0.39026785959E+03  0.00000000000E+00 0. -1.
         -3    1    3    3    0  502 -0.12512241733E+03 -0.15702969256E+03  0.37382982169E+03  0.42433793049E+03  0.00000000000E+00 0.  1.
         11    1    5    5    0    0  0.36334627203E+02  0.28291863627E+02 -0.26630423829E+02  0.53195997544E+02  0.00000000000E+00 0.  1.
        -11    1    5    5    0    0  0.42956522340E+03 -0.24073886117E+01 -0.20245405405E+03  0.47488916673E+03  0.00000000000E+00 0. -1.
          2    1    6    6  503    0 -0.15456272571E+03  0.26960634348E+03 -0.52201205996E+03  0.60751445034E+03  0.00000000000E+00 0. -1.
         -2    1    6    6    0  503 -0.10161011269E+03  0.70362378109E+02 -0.18698254220E+03  0.22413823935E+03  0.00000000000E+00 0.  1.
<mgrwt>
<rscale>  0 0.21604296E+04</rscale>
<asrwt>0</asrwt>
<pdfrwt beam="1">  1        2 0.14836568E+00 0.21604296E+04</pdfrwt>
<pdfrwt beam="2">  1       -1 0.18614873E+00 0.21604296E+04</pdfrwt>
<totfact> 0.52267051E+00</totfact>
</mgrwt>
</event>
<event>
12    6  0.9533401E-008  0.1371026E+04  0.7818608E-02  0.8975063E-01
          2   -1    0    0  501    0  0.00000000000E+00  0.00000000000E+00  0.34808288708E+03  0.34808288708E+03  0.00000000000E+00 0. -1.
         -1   -1    0    0    0  501 -0.00000000000E+00 -0.00000000000E+00 -0.13500465067E+04  0.13500465067E+04  0.00000000000E+00 0.  1.
         24    2    1    2    0    0  0.15696262971E+03 -0.14586516567E+03 -0.68309450139E+03  0.72049729623E+03  0.81143960753E+02 0.  0.
        254    2    1    2    0    0 -0.15696262971E+03  0.14586516567E+03 -0.31886911828E+03  0.97763209760E+03  0.89898447706E+03 0.  0.
         23    2    4    4    0    0  0.17919295092E+03  0.37854255331E+03  0.32002070494E+02  0.43094689574E+03  0.96366571511E+02 0.  0.
         23    2    4    4    0    0 -0.33615558063E+03 -0.23267738764E+03 -0.35087118877E+03  0.54668520186E+03  0.92815826847E+02 0.  0.
          4    1    3    3  502    0  0.53484414342E+02 -0.33769108573E+02 -0.10471137468E+03  0.12233318135E+03  0.00000000000E+00 0. -1.
         -3    1    3    3    0  502  0.10347821537E+03 -0.11209605710E+03 -0.57838312670E+03  0.59816411488E+03  0.00000000000E+00 0.  1.
         11    1    5    5    0    0  0.15180293218E+03  0.24766453661E+03 -0.10399349298E+02  0.29067163497E+03  0.00000000000E+00 0.  1.
        -11    1    5    5    0    0  0.27390018740E+02  0.13087801670E+03  0.42401419792E+02  0.14027526077E+03  0.00000000000E+00 0. -1.
          2    1    6    6  503    0 -0.23473497144E+02  0.78342424111E+01 -0.21132068002E+02  0.32541430829E+02  0.00000000000E+00 0. -1.
         -2    1    6    6    0  503 -0.31268208349E+03 -0.24051163005E+03 -0.32973912077E+03  0.51414377103E+03  0.00000000000E+00 0.  1.
<mgrwt>
<rscale>  0 0.13710260E+04</rscale>
<asrwt>0</asrwt>
<pdfrwt beam="1">  1        2 0.53551213E-01 0.13710260E+04</pdfrwt>
<pdfrwt beam="2">  1       -1 0.20769947E+00 0.13710260E+04</pdfrwt>
<totfact> 0.13837292E+01</totfact>
</mgrwt>
</event>
<event>
12    6  0.9533401E-008  0.1771633E+04  0.7818608E-02  0.8721532E-01
          2   -1    0    0  501    0  0.00000000000E+00  0.00000000000E+00  0.10568138861E+04  0.10568138861E+04  0.00000000000E+00 0. -1.
         -1   -1    0    0    0  501 -0.00000000000E+00 -0.00000000000E+00 -0.74248759447E+03  0.74248759447E+03  0.00000000000E+00 0.  1.
         24    2    1    2    0    0  0.15537741260E+03  0.44364971036E+03 -0.34555030824E+03  0.58893020519E+03  0.80414956347E+02 0.  0.
        254    2    1    2    0    0 -0.15537741260E+03 -0.44364971036E+03  0.65987659985E+03  0.12103712754E+04  0.89921871161E+03 0.  0.
         23    2    4    4    0    0 -0.49749908437E+02 -0.44491962271E+03  0.85559329555E+03  0.96983052617E+03  0.90015765479E+02 0.  0.
         23    2    4    4    0    0 -0.10562750417E+03  0.12699123455E+01 -0.19571669570E+03  0.24054074918E+03  0.91629933575E+02 0.  0.
          4    1    3    3  502    0  0.40220666837E+02  0.39077759988E+02 -0.35531706445E+02  0.66387314521E+02  0.00000000000E+00 0. -1.
         -3    1    3    3    0  502  0.11515674576E+03  0.40457195038E+03 -0.31001860180E+03  0.52254289067E+03  0.00000000000E+00 0.  1.
         11    1    5    5    0    0 -0.67043586065E+02 -0.24715838199E+03  0.52698060114E+03  0.58591011444E+03  0.00000000000E+00 0.  1.
        -11    1    5    5    0    0  0.17293677629E+02 -0.19776124072E+03  0.32861269441E+03  0.38392041173E+03  0.00000000000E+00 0. -1.
          2    1    6    6  503    0 -0.53639516925E+02  0.77278723199E+01 -0.17667513088E+03  0.18479994496E+03  0.00000000000E+00 0.  1.
         -2    1    6    6    0  503 -0.51987987241E+02 -0.64579599745E+01 -0.19041564824E+02  0.55740804223E+02  0.00000000000E+00 0. -1.
<mgrwt>
<rscale>  0 0.17716334E+04</rscale>
<asrwt>0</asrwt>
<pdfrwt beam="1">  1        2 0.16258675E+00 0.17716334E+04</pdfrwt>
<pdfrwt beam="2">  1       -1 0.11422886E+00 0.17716334E+04</pdfrwt>
<totfact> 0.17453963E+01</totfact>
</mgrwt>
</event>
<event>
12    6  0.1214110E-007  0.1336988E+04  0.7818608E-02  0.9000737E-01
         -1   -1    0    0    0  501 -0.00000000000E+00  0.00000000000E+00  0.30433746255E+03  0.30433746255E+03  0.00000000000E+00 0.  1.
          2   -1    0    0  501    0  0.00000000000E+00 -0.00000000000E+00 -0.14683838304E+04  0.14683838304E+04  0.00000000000E+00 0. -1.
         24    2    1    2    0    0  0.23071424911E+03  0.62377022928E+02  0.48184390888E+02  0.25767842973E+03  0.83405514750E+02 0.  0.
        254    2    1    2    0    0 -0.23071424911E+03 -0.62377022928E+02 -0.12122307588E+04  0.15150428632E+04  0.87677334999E+03 0.  0.
         23    2    4    4    0    0 -0.20123326422E+03 -0.44794793439E+03 -0.54808202103E+03  0.74144659673E+03  0.90537149679E+02 0.  0.
         23    2    4    4    0    0 -0.29480984894E+02  0.38557091147E+03 -0.66414873774E+03  0.77359626652E+03  0.88451011835E+02 0.  0.
          4    1    3    3  502    0 -0.19991903939E+01 -0.32123470305E+01 -0.85338177688E+01  0.93349869516E+01  0.00000000000E+00 0. -1.
         -3    1    3    3    0  502  0.23271343951E+03  0.65589369959E+02  0.56718208657E+02  0.24834344278E+03  0.00000000000E+00 0.  1.
         11    1    5    5    0    0 -0.15882296659E+03 -0.37786353984E+03 -0.49972593241E+03  0.64632158944E+03  0.00000000000E+00 0. -1.
        -11    1    5    5    0    0 -0.42410297627E+02 -0.70084394557E+02 -0.48356088619E+02  0.95125007289E+02  0.00000000000E+00 0.  1.
          2    1    6    6  503    0 -0.63006362340E+01  0.29406810434E+03 -0.42843553964E+03  0.51968525055E+03  0.00000000000E+00 0. -1.
         -2    1    6    6    0  503 -0.23180348660E+02  0.91502807126E+02 -0.23571319809E+03  0.25391101597E+03  0.00000000000E+00 0.  1.
<mgrwt>
<rscale>  0 0.13369880E+04</rscale>
<asrwt>0</asrwt>
<pdfrwt beam="1">  1        2 0.22590520E+00 0.13369880E+04</pdfrwt>
<pdfrwt beam="2">  1       -1 0.46821148E-01 0.13369880E+04</pdfrwt>
<totfact> 0.66980112E+01</totfact>
</mgrwt>
</event>
<event>
12    6  0.9533401E-008  0.1816691E+04  0.7818608E-02  0.8697474E-01
         -1   -1    0    0    0  501 -0.00000000000E+00  0.00000000000E+00  0.10296568187E+04  0.10296568187E+04  0.00000000000E+00 0.  1.
          2   -1    0    0  501    0  0.00000000000E+00 -0.00000000000E+00 -0.80132638409E+03  0.80132638409E+03  0.00000000000E+00 0. -1.
         24    2    1    2    0    0  0.59452986684E+03 -0.32852469613E+03  0.20916080395E+02  0.68437690879E+03  0.80870466380E+02 0.  0.
        254    2    1    2    0    0 -0.59452986684E+03  0.32852469613E+03  0.20741435417E+03  0.11466062940E+04  0.90016167463E+03 0.  0.
         23    2    4    4    0    0 -0.47116332978E+03 -0.24003904934E+03  0.77578180370E+02  0.54222363155E+03  0.91512097601E+02 0.  0.
         23    2    4    4    0    0 -0.12336653707E+03  0.56856374547E+03  0.12983617380E+03  0.60438266240E+03  0.99684178580E+02 0.  0.
          4    1    3    3  502    0  0.13394558573E+03 -0.10846543755E+03 -0.12660460334E+02  0.17281914921E+03  0.00000000000E+00 0. -1.
         -3    1    3    3    0  502  0.46058428111E+03 -0.22005925858E+03  0.33576540729E+02  0.51155775958E+03  0.00000000000E+00 0.  1.
         11    1    5    5    0    0  0.24487171450E+01  0.24293938485E+01  0.36828984920E+01  0.50459797294E+01  0.00000000000E+00 0. -1.
        -11    1    5    5    0    0 -0.47361204692E+03 -0.24246844319E+03  0.73895281878E+02  0.53717765182E+03  0.00000000000E+00 0.  1.
          1    1    6    6  503    0 -0.87483980960E+02  0.35010421962E+03  0.12827784654E+03  0.38299036206E+03  0.00000000000E+00 0. -1.
         -1    1    6    6    0  503 -0.35882556105E+02  0.21845952584E+03  0.15583272591E+01  0.22139230034E+03  0.00000000000E+00 0.  1.
<mgrwt>
<rscale>  0 0.18166906E+04</rscale>
<asrwt>0</asrwt>
<pdfrwt beam="1">  1        2 0.12328098E+00 0.18166906E+04</pdfrwt>
<pdfrwt beam="2">  1       -1 0.15840874E+00 0.18166906E+04</pdfrwt>
<totfact> 0.11115261E+01</totfact>
</mgrwt>
</event>
<event>
12    6  0.9533401E-008  0.1567741E+04  0.7818608E-02  0.8840615E-01
         -1   -1    0    0    0  501 -0.00000000000E+00  0.00000000000E+00  0.20676271535E+04  0.20676271535E+04  0.00000000000E+00 0.  1.
          2   -1    0    0  501    0  0.00000000000E+00 -0.00000000000E+00 -0.29717773520E+03  0.29717773520E+03  0.00000000000E+00 0. -1.
         24    2    1    2    0    0 -0.33031479131E+02  0.27509162202E+03 -0.69786420125E+02  0.29670015487E+03  0.79964731907E+02 0.  0.
        254    2    1    2    0    0  0.33031479131E+02 -0.27509162202E+03  0.18402358385E+04  0.20681047339E+04  0.90212126122E+03 0.  0.
         23    2    4    4    0    0 -0.31069116729E+03 -0.33730439359E+02  0.22241772758E+03  0.39409387639E+03  0.90407930484E+02 0.  0.
         23    2    4    4    0    0  0.34372264642E+03 -0.24136118266E+03  0.16178181109E+04  0.16740108575E+04  0.92609032327E+02 0.  0.
          2    1    3    3  502    0 -0.29408068464E+02  0.23350487773E+03 -0.87855600661E+02  0.25121299525E+03  0.00000000000E+00 0. -1.
         -1    1    3    3    0  502 -0.36234106667E+01  0.41586744287E+02  0.18069180535E+02  0.45487159622E+02  0.00000000000E+00 0.  1.
         11    1    5    5    0    0 -0.21895330934E+03  0.29402798477E+01  0.19058602987E+03  0.29029679932E+03  0.00000000000E+00 0. -1.
        -11    1    5    5    0    0 -0.91737857950E+02 -0.36670719207E+02  0.31831697713E+02  0.10379707707E+03  0.00000000000E+00 0.  1.
          1    1    6    6  503    0  0.18168558054E+03 -0.12522253037E+03  0.66818025394E+03  0.70367263982E+03  0.00000000000E+00 0. -1.
         -1    1    6    6    0  503  0.16203706588E+03 -0.11613865229E+03  0.94963785696E+03  0.97033821766E+03  0.00000000000E+00 0.  1.
<mgrwt>
<rscale>  0 0.15677407E+04</rscale>
<asrwt>0</asrwt>
<pdfrwt beam="1">  1        2 0.45719653E-01 0.15677407E+04</pdfrwt>
<pdfrwt beam="2">  1       -1 0.31809648E+00 0.15677407E+04</pdfrwt>
<totfact> 0.30845402E+00</totfact>
</mgrwt>
</event>
<event>
12    6  0.9533401E-008  0.1006667E+04  0.7818608E-02  0.9301262E-01
          2   -1    0    0  501    0  0.00000000000E+00  0.00000000000E+00  0.69158688078E+03  0.69158688078E+03  0.00000000000E+00 0. -1.
         -1   -1    0    0    0  501 -0.00000000000E+00 -0.00000000000E+00 -0.36632375308E+03  0.36632375308E+03  0.00000000000E+00 0.  1.
         24    2    1    2    0    0  0.49225538508E+02  0.22952722485E+01  0.10461652721E+02  0.91524830566E+02  0.76412868788E+02 0.  0.
        254    2    1    2    0    0 -0.49225538508E+02 -0.22952722485E+01  0.31480147498E+03  0.96638580329E+03  0.91234485269E+03 0.  0.
         23    2    4    4    0    0 -0.46596475857E+02  0.41916554109E+03  0.31491481384E+03  0.53515853415E+03  0.96707467654E+02 0.  0.
         23    2    4    4    0    0 -0.26290626512E+01 -0.42146081334E+03 -0.11333885730E+00  0.43122726914E+03  0.91218504975E+02 0.  0.
          4    1    3    3  502    0 -0.55308101422E+01 -0.26022786954E+02  0.13442433734E+02  0.29807286464E+02  0.00000000000E+00 0. -1.
         -3    1    3    3    0  502  0.54756348650E+02  0.28318059202E+02 -0.29807810133E+01  0.61717544102E+02  0.00000000000E+00 0.  1.
         11    1    5    5    0    0 -0.18502516943E+02  0.21481928363E+03  0.22019730770E+03  0.30818261157E+03  0.00000000000E+00 0.  1.
        -11    1    5    5    0    0 -0.28093958914E+02  0.20434625746E+03  0.94717506142E+02  0.22697592259E+03  0.00000000000E+00 0. -1.
          1    1    6    6  503    0 -0.30887355186E+02 -0.32000750712E+03  0.26550152939E+02  0.32258912558E+03  0.00000000000E+00 0. -1.
         -1    1    6    6    0  503  0.28258292535E+02 -0.10145330622E+03 -0.26663491797E+02  0.10863814355E+03  0.00000000000E+00 0.  1.
<mgrwt>
<rscale>  0 0.10066672E+04</rscale>
<asrwt>0</asrwt>
<pdfrwt beam="1">  1        2 0.10639798E+00 0.10066672E+04</pdfrwt>
<pdfrwt beam="2">  1       -1 0.56357501E-01 0.10066672E+04</pdfrwt>
<totfact> 0.15107545E+02</totfact>
</mgrwt>
</event>
<event>
12    6  0.9533401E-008  0.2008693E+04  0.7818608E-02  0.8602567E-01
          2   -1    0    0  501    0  0.00000000000E+00  0.00000000000E+00  0.11806604014E+04  0.11806604014E+04  0.00000000000E+00 0. -1.
         -1   -1    0    0    0  501 -0.00000000000E+00 -0.00000000000E+00 -0.85436223065E+03  0.85436223065E+03  0.00000000000E+00 0.  1.
         24    2    1    2    0    0  0.61941747753E+03  0.23365489350E+03  0.58626001046E+03  0.88795108869E+03  0.80521520821E+02 0.  0.
        254    2    1    2    0    0 -0.61941747753E+03 -0.23365489350E+03 -0.25996183970E+03  0.11470715434E+04  0.89995574713E+03 0.  0.
         23    2    4    4    0    0  0.21391316340E+03  0.25383922788E+02 -0.75937499266E+01  0.23423077286E+03  0.91668996428E+02 0.  0.
         23    2    4    4    0    0 -0.83333064093E+03 -0.25903881629E+03 -0.25236808977E+03  0.91284077051E+03  0.89708160788E+02 0.  0.
          2    1    3    3  502    0  0.59184944187E+03  0.20882419488E+03  0.56853493862E+03  0.84683249975E+03  0.00000000000E+00 0. -1.
         -3    1    3    3    0  502  0.27568035665E+02  0.24830698626E+02  0.17725071838E+02  0.41118588939E+02  0.00000000000E+00 0.  1.
         11    1    5    5    0    0  0.95320952169E+02  0.26974088738E+01  0.41359088578E+02  0.10394197489E+03  0.00000000000E+00 0.  1.
        -11    1    5    5    0    0  0.11859221123E+03  0.22686513914E+02 -0.48952838505E+02  0.13028879797E+03  0.00000000000E+00 0. -1.
          2    1    6    6  503    0 -0.53562518336E+03 -0.21108529630E+03 -0.16494630895E+03  0.59888114363E+03  0.00000000000E+00 0. -1.
         -2    1    6    6    0  503 -0.29770545758E+03 -0.47953519993E+02 -0.87421780818E+02  0.31395962688E+03  0.00000000000E+00 0.  1.
<mgrwt>
<rscale>  0 0.20086928E+04</rscale>
<asrwt>0</asrwt>
<pdfrwt beam="1">  1        2 0.18164006E+00 0.20086928E+04</pdfrwt>
<pdfrwt beam="2">  1       -1 0.13144034E+00 0.20086928E+04</pdfrwt>
<totfact> 0.10157020E+01</totfact>
</mgrwt>
</event>
<event>
12    6  0.9533401E-008  0.1729253E+04  0.7818608E-02  0.8744854E-01
          2   -1    0    0  501    0  0.00000000000E+00  0.00000000000E+00  0.29813716789E+04  0.29813716789E+04  0.00000000000E+00 0. -1.
         -1   -1    0    0    0  501 -0.00000000000E+00 -0.00000000000E+00 -0.25074998228E+03  0.25074998228E+03  0.00000000000E+00 0.  1.
         24    2    1    2    0    0 -0.14315460434E+03 -0.37032255946E+03  0.94954209000E+02  0.41741174457E+03  0.87087449775E+02 0.  0.
        254    2    1    2    0    0  0.14315460434E+03  0.37032255946E+03  0.26356674876E+04  0.28147099166E+04  0.90455335423E+03 0.  0.
         23    2    4    4    0    0  0.21260634910E+03  0.23159264711E+03  0.26124641250E+04  0.26329804099E+04  0.93703897388E+02 0.  0.
         23    2    4    4    0    0 -0.69451744753E+02  0.13872991235E+03  0.23203362597E+02  0.18172950675E+03  0.91747938161E+02 0.  0.
          2    1    3    3  502    0  0.49239275397E+01 -0.27180492360E+01 -0.62270360300E+01  0.83909970674E+01  0.00000000000E+00 0. -1.
         -1    1    3    3    0  502 -0.14807853188E+03 -0.36760451022E+03  0.10118124503E+03  0.40902074750E+03  0.00000000000E+00 0.  1.
         11    1    5    5    0    0  0.11381823079E+03  0.14751401819E+03  0.18709565103E+04  0.18802109559E+04  0.00000000000E+00 0. -1.
        -11    1    5    5    0    0  0.98788118306E+02  0.84078628913E+02  0.74150761476E+03  0.75276945402E+03  0.00000000000E+00 0.  1.
          2    1    6    6  503    0  0.16974368625E+02  0.53169628160E+02 -0.74582376347E+01  0.56309536115E+02  0.00000000000E+00 0. -1.
         -2    1    6    6    0  503 -0.86426113378E+02  0.85560284189E+02  0.30661600232E+02  0.12541997063E+03  0.00000000000E+00 0.  1.
<mgrwt>
<rscale>  0 0.17292529E+04</rscale>
<asrwt>0</asrwt>
<pdfrwt beam="1">  1        2 0.45867254E+00 0.17292529E+04</pdfrwt>
<pdfrwt beam="2">  1       -1 0.38576922E-01 0.17292529E+04</pdfrwt>
<totfact> 0.12636936E+01</totfact>
</mgrwt>
</event>
<event>
12    6  0.9533401E-008  0.1367106E+04  0.7818608E-02  0.8977979E-01
         -1   -1    0    0    0  501 -0.00000000000E+00  0.00000000000E+00  0.49222650202E+03  0.49222650202E+03  0.00000000000E+00 0.  1.
          2   -1    0    0  501    0  0.00000000000E+00 -0.00000000000E+00 -0.94924769219E+03  0.94924769219E+03  0.00000000000E+00 0. -1.
         24    2    1    2    0    0 -0.10226126335E+03 -0.36209519352E+03 -0.86187615903E+02  0.39366412124E+03  0.77284151422E+02 0.  0.
        254    2    1    2    0    0  0.10226126335E+03  0.36209519352E+03 -0.37083357426E+03  0.10478100730E+04  0.90488569116E+03 0.  0.
         23    2    4    4    0    0 -0.38476702162E+03  0.70515989664E+02 -0.19661014990E+03  0.44737003587E+03  0.92012130860E+02 0.  0.
         23    2    4    4    0    0  0.48702828497E+03  0.29157920386E+03 -0.17422342437E+03  0.60044003711E+03  0.89215772600E+02 0.  0.
          2    1    3    3  502    0 -0.73074667089E+01 -0.56647463756E+02 -0.41698795487E+02  0.70718623889E+02  0.00000000000E+00 0. -1.
         -1    1    3    3    0  502 -0.94953796640E+02 -0.30544772977E+03 -0.44488820417E+02  0.32294549735E+03  0.00000000000E+00 0.  1.
         11    1    5    5    0    0 -0.34937700208E+03  0.81716514323E+02 -0.15290341787E+03  0.39002734967E+03  0.00000000000E+00 0. -1.
        -11    1    5    5    0    0 -0.35390019541E+02 -0.11200524659E+02 -0.43706732029E+02  0.57342686198E+02  0.00000000000E+00 0.  1.
          1    1    6    6  503    0  0.22461932720E+03  0.83315683603E+02 -0.75357306846E+02  0.25114551356E+03  0.00000000000E+00 0. -1.
         -1    1    6    6    0  503  0.26240895777E+03  0.20826352026E+03 -0.98866117522E+02  0.34929452355E+03  0.00000000000E+00 0.  1.
<mgrwt>
<rscale>  0 0.13671062E+04</rscale>
<asrwt>0</asrwt>
<pdfrwt beam="1">  1        2 0.14603811E+00 0.13671062E+04</pdfrwt>
<pdfrwt beam="2">  1       -1 0.75727154E-01 0.13671062E+04</pdfrwt>
<totfact> 0.53029000E+01</totfact>
</mgrwt>
</event>
<event>
12    6  0.9533401E-008  0.1205074E+04  0.7818608E-02  0.9108427E-01
         -1   -1    0    0    0  501 -0.00000000000E+00  0.00000000000E+00  0.13179972804E+03  0.13179972804E+03  0.00000000000E+00 0.  1.
          2   -1    0    0  501    0  0.00000000000E+00 -0.00000000000E+00 -0.27545642030E+04  0.27545642030E+04  0.00000000000E+00 0. -1.
         24    2    1    2    0    0  0.13560912373E+03 -0.20455850958E+03 -0.73403926157E+03  0.77812047682E+03  0.80148740769E+02 0.  0.
        254    2    1    2    0    0 -0.13560912373E+03  0.20455850958E+03 -0.18887252134E+04  0.21082434542E+04  0.90397649985E+03 0.  0.
         23    2    4    4    0    0  0.34838269635E+03  0.11242818207E+03 -0.11860876450E+04  0.12446634900E+04  0.91502473388E+02 0.  0.
         23    2    4    4    0    0 -0.48399182008E+03  0.92130327503E+02 -0.70263756843E+03  0.86357996419E+03  0.96616369364E+02 0.  0.
          2    1    3    3  502    0  0.11875232519E+03 -0.20467913812E+03 -0.71250866557E+03  0.75077577400E+03  0.00000000000E+00 0. -1.
         -1    1    3    3    0  502  0.16856798537E+02  0.12062854016E+00 -0.21530595998E+02  0.27344702818E+02  0.00000000000E+00 0.  1.
         11    1    5    5    0    0  0.78478880252E+02 -0.11308789446E+02 -0.29138678082E+03  0.30198191899E+03  0.00000000000E+00 0.  1.
        -11    1    5    5    0    0  0.26990381610E+03  0.12373697152E+03 -0.89470086416E+03  0.94268157105E+03  0.00000000000E+00 0. -1.
          2    1    6    6  503    0 -0.34404376424E+03  0.87254235723E+02 -0.56495562193E+03  0.66719882203E+03  0.00000000000E+00 0.  1.
         -2    1    6    6    0  503 -0.13994805584E+03  0.48760917798E+01 -0.13768194650E+03  0.19638114216E+03  0.00000000000E+00 0. -1.
<mgrwt>
<rscale>  0 0.12050740E+04</rscale>
<asrwt>0</asrwt>
<pdfrwt beam="1">  1        2 0.42377907E+00 0.12050740E+04</pdfrwt>
<pdfrwt beam="2">  1       -1 0.20276883E-01 0.12050740E+04</pdfrwt>
<totfact> 0.55871989E+01</totfact>
</mgrwt>
</event>
<event>
12    6  0.9533401E-008  0.1331802E+04  0.7818608E-02  0.9004719E-01
         -1   -1    0    0    0  501 -0.00000000000E+00  0.00000000000E+00  0.43604015500E+03  0.43604015500E+03  0.00000000000E+00 0.  1.
          2   -1    0    0  501    0  0.00000000000E+00 -0.00000000000E+00 -0.10169346398E+04  0.10169346398E+04  0.00000000000E+00 0. -1.
         24    2    1    2    0    0  0.27827992452E+03 -0.21024168476E+03 -0.24427440546E+03  0.43341801712E+03  0.80869710008E+02 0.  0.
        254    2    1    2    0    0 -0.27827992452E+03  0.21024168476E+03 -0.33662007934E+03  0.10195567777E+04  0.89696246449E+03 0.  0.
         23    2    4    4    0    0 -0.53377047597E+02 -0.25398078637E+03  0.14052637314E+03  0.30984858128E+03  0.94356413226E+02 0.  0.
         23    2    4    4    0    0 -0.22490287693E+03  0.46422247113E+03 -0.47714645248E+03  0.70970819641E+03  0.99665340942E+02 0.  0.
          2    1    3    3  502    0  0.25463064736E+03 -0.16563272284E+03 -0.22980541039E+03  0.38089564463E+03  0.00000000000E+00 0. -1.
         -1    1    3    3    0  502  0.23649277160E+02 -0.44608961919E+02 -0.14468995071E+02  0.52522372491E+02  0.00000000000E+00 0.  1.
         11    1    5    5    0    0 -0.16270376869E+02 -0.17343734594E+03  0.45860702972E+02  0.18013451143E+03  0.00000000000E+00 0. -1.
        -11    1    5    5    0    0 -0.37106670727E+02 -0.80543440428E+02  0.94665670167E+02  0.12971406985E+03  0.00000000000E+00 0.  1.
          4    1    6    6  503    0 -0.20242759163E+03  0.45836037257E+03 -0.46455302211E+03  0.68328666850E+03  0.00000000000E+00 0. -1.
         -4    1    6    6    0  503 -0.22475285296E+02  0.58620985568E+01 -0.12593430373E+02  0.26421527912E+02  0.00000000000E+00 0.  1.
<mgrwt>
<rscale>  0 0.13318023E+04</rscale>
<asrwt>0</asrwt>
<pdfrwt beam="1">  1        2 0.15645148E+00 0.13318023E+04</pdfrwt>
<pdfrwt beam="2">  1       -1 0.67083102E-01 0.13318023E+04</pdfrwt>
<totfact> 0.61705777E+01</totfact>
</mgrwt>
</event>
<event>
12    6  0.9533401E-008  0.1996254E+04  0.7818608E-02  0.8608374E-01
          2   -1    0    0  501    0  0.00000000000E+00  0.00000000000E+00  0.23606523216E+04  0.23606523216E+04  0.00000000000E+00 0. -1.
         -1   -1    0    0    0  501 -0.00000000000E+00 -0.00000000000E+00 -0.42202651574E+03  0.42202651574E+03  0.00000000000E+00 0.  1.
         24    2    1    2    0    0 -0.68888951449E+02 -0.45538406675E+03  0.16611660737E+04  0.17257257718E+04  0.80847878206E+02 0.  0.
        254    2    1    2    0    0  0.68888951449E+02  0.45538406675E+03  0.27745973224E+03  0.10569530655E+04  0.90997007855E+03 0.  0.
         23    2    4    4    0    0  0.51338192886E+02 -0.23376979243E+03  0.25596253212E+03  0.36133158992E+03  0.88089580113E+02 0.  0.
         23    2    4    4    0    0  0.17550758563E+02  0.68915385918E+03  0.21497200119E+02  0.69562147562E+03  0.90476720721E+02 0.  0.
          2    1    3    3  502    0 -0.83114687224E+02 -0.41933096545E+03  0.14824940163E+04  0.15428982527E+04  0.00000000000E+00 0. -1.
         -1    1    3    3    0  502  0.14225735775E+02 -0.36053101298E+02  0.17867205733E+03  0.18282751910E+03  0.00000000000E+00 0.  1.
         11    1    5    5    0    0  0.46072360835E+02 -0.10068736423E+03  0.64635649033E+02  0.12821222591E+03  0.00000000000E+00 0. -1.
        -11    1    5    5    0    0  0.52658320507E+01 -0.13308242820E+03  0.19132688308E+03  0.23311936400E+03  0.00000000000E+00 0.  1.
          1    1    6    6  503    0 -0.43686983001E+01  0.29216758345E+03  0.52281270403E+02  0.29684055245E+03  0.00000000000E+00 0. -1.
         -1    1    6    6    0  503  0.21919456863E+02  0.39698627573E+03 -0.30784070284E+02  0.39878092318E+03  0.00000000000E+00 0.  1.
<mgrwt>
<rscale>  0 0.19962544E+04</rscale>
<asrwt>0</asrwt>
<pdfrwt beam="1">  1        2 0.36317727E+00 0.19962544E+04</pdfrwt>
<pdfrwt beam="2">  1       -1 0.64927158E-01 0.19962544E+04</pdfrwt>
<totfact> 0.10656759E+01</totfact>
</mgrwt>
</event>
<event>
12    6  0.1038633E-007  0.3866003E+04  0.7818608E-02  0.8032137E-01
          2   -1    0    0  501    0  0.00000000000E+00  0.00000000000E+00  0.23184127130E+04  0.23184127130E+04  0.00000000000E+00 0. -1.
         -1   -1    0    0    0  501 -0.00000000000E+00 -0.00000000000E+00 -0.16116609921E+04  0.16116609921E+04  0.00000000000E+00 0.  1.
         24    2    1    2    0    0  0.22852975388E+03 -0.17383216829E+04  0.86237528621E+03  0.19555646290E+04  0.80955310231E+02 0.  0.
        254    2    1    2    0    0 -0.22852975388E+03  0.17383216829E+04 -0.15562356539E+03  0.19745090761E+04  0.89469507405E+03 0.  0.
         23    2    4    4    0    0 -0.55619556668E+03  0.88032754847E+03 -0.78165464573E+02  0.10481972688E+04  0.90981171429E+02 0.  0.
         23    2    4    4    0    0  0.32766581281E+03  0.85799413447E+03 -0.77458100814E+02  0.92631180721E+03  0.92384994108E+02 0.  0.
          2    1    3    3  502    0  0.10744736201E+03 -0.66182920265E+03  0.29228634016E+03  0.73143293181E+03  0.00000000000E+00 0. -1.
         -1    1    3    3    0  502  0.12108239187E+03 -0.10764924803E+04  0.57008894605E+03  0.12241316972E+04  0.00000000000E+00 0.  1.
         11    1    5    5    0    0 -0.57268288497E+02  0.10397302975E+03  0.19122394281E+02  0.12023191650E+03  0.00000000000E+00 0. -1.
        -11    1    5    5    0    0 -0.49892727819E+03  0.77635451872E+03 -0.97287858854E+02  0.92796535234E+03  0.00000000000E+00 0.  1.
          2    1    6    6  503    0  0.40286896643E+02  0.13599442475E+03 -0.43987056532E+02  0.14850043349E+03  0.00000000000E+00 0. -1.
         -2    1    6    6    0  503  0.28737891616E+03  0.72199970972E+03 -0.33471044283E+02  0.77781137372E+03  0.00000000000E+00 0.  1.
<mgrwt>
<rscale>  0 0.38660033E+04</rscale>
<asrwt>0</asrwt>
<pdfrwt beam="1">  1        2 0.35667888E+00 0.38660033E+04</pdfrwt>
<pdfrwt beam="2">  1       -1 0.24794784E+00 0.38660033E+04</pdfrwt>
<totfact> 0.28855405E-01</totfact>
</mgrwt>
</event>
<event>
12    6  0.9533401E-008  0.1939318E+04  0.7818608E-02  0.8635529E-01
         -1   -1    0    0    0  501 -0.00000000000E+00  0.00000000000E+00  0.45847571608E+03  0.45847571608E+03  0.00000000000E+00 0.  1.
          2   -1    0    0  501    0  0.00000000000E+00 -0.00000000000E+00 -0.20507919903E+04  0.20507919903E+04  0.00000000000E+00 0. -1.
         24    2    1    2    0    0  0.65442806463E+03  0.38083876530E+03 -0.69173469677E+03  0.10288595337E+04  0.82102329562E+02 0.  0.
        254    2    1    2    0    0 -0.65442806463E+03 -0.38083876530E+03 -0.90058157747E+03  0.14804081727E+04  0.89846921100E+03 0.  0.
         23    2    4    4    0    0 -0.30191503647E+03  0.22370257224E+03 -0.59674070532E+03  0.71147109460E+03  0.94319239777E+02 0.  0.
         23    2    4    4    0    0 -0.35251302816E+03 -0.60454133754E+03 -0.30384087215E+03  0.76893707807E+03  0.95965049045E+02 0.  0.
          4    1    3    3  502    0  0.32736086089E+03  0.21317374242E+03 -0.30761332977E+03  0.49722644574E+03  0.00000000000E+00 0. -1.
         -3    1    3    3    0  502  0.32706720374E+03  0.16766502288E+03 -0.38412136700E+03  0.53163308799E+03  0.00000000000E+00 0.  1.
         11    1    5    5    0    0 -0.30449084334E+03  0.20499433675E+03 -0.57906664154E+03  0.68560595616E+03  0.00000000000E+00 0. -1.
        -11    1    5    5    0    0  0.25758068688E+01  0.18708235488E+02 -0.17674063788E+02  0.25865138447E+02  0.00000000000E+00 0.  1.
          3    1    6    6  503    0 -0.27028741994E+03 -0.39155297093E+03 -0.17613735052E+03  0.50733951618E+03  0.00000000000E+00 0. -1.
         -3    1    6    6    0  503 -0.82225608215E+02 -0.21298836660E+03 -0.12770352163E+03  0.26159756190E+03  0.00000000000E+00 0.  1.
<mgrwt>
<rscale>  0 0.19393177E+04</rscale>
<asrwt>0</asrwt>
<pdfrwt beam="1">  1        2 0.31550646E+00 0.19393177E+04</pdfrwt>
<pdfrwt beam="2">  1       -1 0.70534725E-01 0.19393177E+04</pdfrwt>
<totfact> 0.13515547E+01</totfact>
</mgrwt>
</event>
<event>
12    6  0.9533401E-008  0.1196064E+04  0.7818608E-02  0.9116309E-01
         -1   -1    0    0    0  501 -0.00000000000E+00  0.00000000000E+00  0.99483985806E+03  0.99483985806E+03  0.00000000000E+00 0.  1.
          2   -1    0    0  501    0  0.00000000000E+00 -0.00000000000E+00 -0.35949730075E+03  0.35949730075E+03  0.00000000000E+00 0. -1.
         24    2    1    2    0    0 -0.13269516779E+03 -0.17446804795E+03  0.26509097235E+03  0.35381340793E+03  0.82846826710E+02 0.  0.
        254    2    1    2    0    0  0.13269516779E+03  0.17446804795E+03  0.37025158495E+03  0.10005237509E+04  0.90327981966E+03 0.  0.
         23    2    4    4    0    0 -0.11689698166E+03 -0.97101599706E+01  0.59055191561E+03  0.60898833865E+03  0.91411378152E+02 0.  0.
         23    2    4    4    0    0  0.24959214945E+03  0.18417820792E+03 -0.22030033065E+03  0.39153541223E+03  0.92465615254E+02 0.  0.
          4    1    3    3  502    0 -0.31251051412E+02 -0.98847705498E+00  0.53719161415E+02  0.62155881495E+02  0.00000000000E+00 0. -1.
         -3    1    3    3    0  502 -0.10144411638E+03 -0.17347957090E+03  0.21137181094E+03  0.29165752643E+03  0.00000000000E+00 0.  1.
         11    1    5    5    0    0 -0.72561663075E+02  0.57585276325E+00  0.51994298087E+03  0.52498212342E+03  0.00000000000E+00 0. -1.
        -11    1    5    5    0    0 -0.44335318590E+02 -0.10286012734E+02  0.70608934732E+02  0.84006215225E+02  0.00000000000E+00 0.  1.
          4    1    6    6  503    0  0.19687965083E+03  0.11110393557E+03 -0.19339457498E+03  0.29750150091E+03  0.00000000000E+00 0. -1.
         -4    1    6    6    0  503  0.52712498626E+02  0.73074272349E+02 -0.26905755667E+02  0.94033911323E+02  0.00000000000E+00 0.  1.
<mgrwt>
<rscale>  0 0.11960640E+04</rscale>
<asrwt>0</asrwt>
<pdfrwt beam="1">  1        2 0.55307277E-01 0.11960640E+04</pdfrwt>
<pdfrwt beam="2">  1       -1 0.15305229E+00 0.11960640E+04</pdfrwt>
<totfact> 0.33480595E+01</totfact>
</mgrwt>
</event>
<event>
12    6  0.9533401E-008  0.1375065E+04  0.7818608E-02  0.8972068E-01
          2   -1    0    0  501    0  0.00000000000E+00  0.00000000000E+00  0.19622719178E+04  0.19622719178E+04  0.00000000000E+00 0. -1.
         -1   -1    0    0    0  501 -0.00000000000E+00 -0.00000000000E+00 -0.24089476802E+03  0.24089476802E+03  0.00000000000E+00 0.  1.
         24    2    1    2    0    0 -0.48688740918E+01  0.30981958524E+02  0.10917109017E+04  0.10950646505E+04  0.79688820731E+02 0.  0.
        254    2    1    2    0    0  0.48688740918E+01 -0.30981958524E+02  0.62966624806E+03  0.11081020353E+04  0.91127764651E+03 0.  0.
         23    2    4    4    0    0 -0.27712041649E+03 -0.22446922159E+03 -0.20157860311E+02  0.36818839542E+03  0.89298367889E+02 0.  0.
         23    2    4    4    0    0  0.28198929058E+03  0.19348726307E+03  0.64982410837E+03  0.73991363990E+03  0.90804965276E+02 0.  0.
          4    1    3    3  502    0 -0.25545421498E+02  0.28835204393E+02  0.23775092253E+03  0.24085169448E+03  0.00000000000E+00 0. -1.
         -3    1    3    3    0  502  0.20676547406E+02  0.21467541316E+01  0.85395997922E+03  0.85421295604E+03  0.00000000000E+00 0.  1.
         11    1    5    5    0    0 -0.27333104570E+03 -0.22641036961E+03 -0.76838888985E+01  0.35500782830E+03  0.00000000000E+00 0. -1.
        -11    1    5    5    0    0 -0.37893707931E+01  0.19411480134E+01 -0.12473971413E+02  0.13180567113E+02  0.00000000000E+00 0.  1.
          4    1    6    6  503    0  0.27887811529E+03  0.17876079898E+03  0.57500559693E+03  0.66359615952E+03  0.00000000000E+00 0. -1.
         -4    1    6    6    0  503  0.31111752935E+01  0.14726464088E+02  0.74818511443E+02  0.76317480375E+02  0.00000000000E+00 0.  1.
<mgrwt>
<rscale>  0 0.13750651E+04</rscale>
<asrwt>0</asrwt>
<pdfrwt beam="1">  1        2 0.30188798E+00 0.13750651E+04</pdfrwt>
<pdfrwt beam="2">  1       -1 0.37060735E-01 0.13750651E+04</pdfrwt>
<totfact> 0.54542330E+01</totfact>
</mgrwt>
</event>
<event>
12    6  0.9533401E-008  0.1925803E+04  0.7818608E-02  0.8642118E-01
         -1   -1    0    0    0  501 -0.00000000000E+00  0.00000000000E+00  0.61431838966E+03  0.61431838966E+03  0.00000000000E+00 0.  1.
          2   -1    0    0  501    0  0.00000000000E+00 -0.00000000000E+00 -0.15092814317E+04  0.15092814317E+04  0.00000000000E+00 0. -1.
         24    2    1    2    0    0  0.77221095032E+02  0.40000053094E+03 -0.10481201042E+04  0.11273261244E+04  0.79654979821E+02 0.  0.
        254    2    1    2    0    0 -0.77221095032E+02 -0.40000053094E+03  0.15315706216E+03  0.99627369691E+03  0.89618115981E+03 0.  0.
         23    2    4    4    0    0  0.74892678813E+02 -0.15800904621E+02 -0.33118941901E+03  0.35219545059E+03  0.92177124195E+02 0.  0.
         23    2    4    4    0    0 -0.15211377385E+03 -0.38419962632E+03  0.48434648116E+03  0.64407824632E+03  0.97454196982E+02 0.  0.
          4    1    3    3  502    0  0.81417884900E+02  0.30701319952E+03 -0.73575550736E+03  0.80138763609E+03  0.00000000000E+00 0. -1.
         -3    1    3    3    0  502 -0.41967898680E+01  0.92987331412E+02 -0.31236459682E+03  0.32593848836E+03  0.00000000000E+00 0.  1.
         11    1    5    5    0    0  0.26188102777E+01 -0.35289239610E+02 -0.50282192720E+02  0.61485669096E+02  0.00000000000E+00 0. -1.
        -11    1    5    5    0    0  0.72273868536E+02  0.19488334989E+02 -0.28090722629E+03  0.29070978149E+03  0.00000000000E+00 0.  1.
          4    1    6    6  503    0 -0.86224275720E+02 -0.11025587677E+03  0.19681692474E+03  0.24151166835E+03  0.00000000000E+00 0. -1.
         -4    1    6    6    0  503 -0.65889498125E+02 -0.27394374954E+03  0.28752955642E+03  0.40256657797E+03  0.00000000000E+00 0.  1.
<mgrwt>
<rscale>  0 0.19258030E+04</rscale>
<asrwt>0</asrwt>
<pdfrwt beam="1">  1        2 0.23219714E+00 0.19258030E+04</pdfrwt>
<pdfrwt beam="2">  1       -1 0.94510524E-01 0.19258030E+04</pdfrwt>
<totfact> 0.14467686E+01</totfact>
</mgrwt>
</event>
<event>
12    6  0.9533401E-008  0.1190298E+04  0.7818608E-02  0.9121392E-01
          2   -1    0    0  501    0  0.00000000000E+00  0.00000000000E+00  0.17824936402E+04  0.17824936402E+04  0.00000000000E+00 0. -1.
         -1   -1    0    0    0  501 -0.00000000000E+00 -0.00000000000E+00 -0.19871159011E+03  0.19871159011E+03  0.00000000000E+00 0.  1.
         24    2    1    2    0    0 -0.14650580958E+02  0.21740343139E+03  0.53291515930E+03  0.58132946641E+03  0.80414488691E+02 0.  0.
        254    2    1    2    0    0  0.14650580958E+02 -0.21740343139E+03  0.10508668908E+04  0.13998757639E+04  0.89880589714E+03 0.  0.
         23    2    4    4    0    0 -0.10409994963E+03  0.20213869302E+03  0.89600823317E+03  0.92890270915E+03  0.91283286697E+02 0.  0.
         23    2    4    4    0    0  0.11875053059E+03 -0.41954212441E+03  0.15485865766E+03  0.47097305479E+03  0.87847207232E+02 0.  0.
          2    1    3    3  502    0  0.32390261632E+02  0.11500085417E+03  0.28258339909E+03  0.30680238419E+03  0.00000000000E+00 0. -1.
         -1    1    3    3    0  502 -0.47040842590E+02  0.10240257722E+03  0.25033176022E+03  0.27452708221E+03  0.00000000000E+00 0.  1.
         11    1    5    5    0    0 -0.79184950138E+02  0.59263304694E+02  0.40664878883E+03  0.41850404188E+03  0.00000000000E+00 0. -1.
        -11    1    5    5    0    0 -0.24914999494E+02  0.14287538832E+03  0.48935944434E+03  0.51039866727E+03  0.00000000000E+00 0.  1.
          4    1    6    6  503    0  0.37519472198E+02 -0.35944229775E+02  0.96653297311E+01  0.52849948410E+02  0.00000000000E+00 0. -1.
         -4    1    6    6    0  503  0.81231058391E+02 -0.38359789464E+03  0.14519332793E+03  0.41812310638E+03  0.00000000000E+00 0.  1.
<mgrwt>
<rscale>  0 0.11902977E+04</rscale>
<asrwt>0</asrwt>
<pdfrwt beam="1">  1        2 0.27422978E+00 0.11902977E+04</pdfrwt>
<pdfrwt beam="2">  1       -1 0.30571015E-01 0.11902977E+04</pdfrwt>
<totfact> 0.97993339E+01</totfact>
</mgrwt>
</event>
<event>
12    6  0.9533401E-008  0.2338457E+04  0.7818608E-02  0.8462911E-01
          2   -1    0    0  501    0  0.00000000000E+00  0.00000000000E+00  0.15526951113E+04  0.15526951113E+04  0.00000000000E+00 0. -1.
         -1   -1    0    0    0  501 -0.00000000000E+00 -0.00000000000E+00 -0.88046575836E+03  0.88046575836E+03  0.00000000000E+00 0.  1.
         24    2    1    2    0    0  0.90400855240E+02 -0.99186013817E+03  0.25627387736E+03  0.10314877417E+04  0.79572687973E+02 0.  0.
        254    2    1    2    0    0 -0.90400855240E+02  0.99186013817E+03  0.41595547560E+03  0.14016731280E+04  0.89426492261E+03 0.  0.
         23    2    4    4    0    0 -0.44580113370E+03  0.80570208890E+03  0.32115724861E+03  0.97961686506E+03  0.92804725628E+02 0.  0.
         23    2    4    4    0    0  0.35540027846E+03  0.18615804926E+03  0.94798226990E+02  0.42205626296E+03  0.90446713758E+02 0.  0.
          4    1    3    3  502    0  0.68459437318E+02 -0.65011447817E+03  0.13007117769E+03  0.66652384845E+03  0.00000000000E+00 0. -1.
         -3    1    3    3    0  502  0.21941417922E+02 -0.34174566000E+03  0.12620269966E+03  0.36496389322E+03  0.00000000000E+00 0.  1.
         11    1    5    5    0    0 -0.42910412829E+03  0.76418406050E+03  0.28349628245E+03  0.92112853251E+03  0.00000000000E+00 0. -1.
        -11    1    5    5    0    0 -0.16697005412E+02  0.41518028403E+02  0.37660966164E+02  0.58488332551E+02  0.00000000000E+00 0.  1.
          3    1    6    6  503    0  0.33653228743E+03  0.16754461366E+03  0.63860290056E+02  0.38131786569E+03  0.00000000000E+00 0. -1.
         -3    1    6    6    0  503  0.18867991031E+02  0.18613435605E+02  0.30937936934E+02  0.40738397272E+02  0.00000000000E+00 0.  1.
<mgrwt>
<rscale>  0 0.23384567E+04</rscale>
<asrwt>0</asrwt>
<pdfrwt beam="1">  1        2 0.23887617E+00 0.23384567E+04</pdfrwt>
<pdfrwt beam="2">  1       -1 0.13545627E+00 0.23384567E+04</pdfrwt>
<totfact> 0.55728879E+00</totfact>
</mgrwt>
</event>
<event>
12    6  0.9533401E-008  0.1701137E+04  0.7818608E-02  0.8760716E-01
         -1   -1    0    0    0  501 -0.00000000000E+00  0.00000000000E+00  0.92553739789E+03  0.92553739789E+03  0.00000000000E+00 0.  1.
          2   -1    0    0  501    0  0.00000000000E+00 -0.00000000000E+00 -0.78167189283E+03  0.78167189283E+03  0.00000000000E+00 0. -1.
         24    2    1    2    0    0 -0.50446906927E+03  0.26515322843E+03  0.26109056304E+03  0.63198394547E+03  0.80250537882E+02 0.  0.
        254    2    1    2    0    0  0.50446906927E+03 -0.26515322843E+03 -0.11722505798E+03  0.10752253453E+04  0.90419718672E+03 0.  0.
         23    2    4    4    0    0  0.45943538216E+03 -0.57156655732E+03 -0.13959760389E+03  0.75199142067E+03  0.90743627473E+02 0.  0.
         23    2    4    4    0    0  0.45033687110E+02  0.30641332890E+03  0.22372545915E+02  0.32323392458E+03  0.89791302973E+02 0.  0.
          2    1    3    3  502    0 -0.33889775466E+02 -0.31264190292E+00  0.56858330238E+01  0.34364855933E+02  0.00000000000E+00 0. -1.
         -1    1    3    3    0  502 -0.47057929380E+03  0.26546587033E+03  0.25540473002E+03  0.59761908954E+03  0.00000000000E+00 0.  1.
         11    1    5    5    0    0  0.32883555775E+03 -0.38269520025E+03 -0.56196401148E+02  0.50768738003E+03  0.00000000000E+00 0. -1.
        -11    1    5    5    0    0  0.13059982440E+03 -0.18887135707E+03 -0.83401202746E+02  0.24430404065E+03  0.00000000000E+00 0.  1.
          4    1    6    6  503    0  0.51307047971E+02  0.17066358143E+03 -0.23619495061E+02  0.17976749358E+03  0.00000000000E+00 0. -1.
         -4    1    6    6    0  503 -0.62733608614E+01  0.13574974746E+03  0.45992040976E+02  0.14346643101E+03  0.00000000000E+00 0.  1.
<mgrwt>
<rscale>  0 0.17011368E+04</rscale>
<asrwt>0</asrwt>
<pdfrwt beam="1">  1        2 0.12025721E+00 0.17011368E+04</pdfrwt>
<pdfrwt beam="2">  1       -1 0.14239037E+00 0.17011368E+04</pdfrwt>
<totfact> 0.15471273E+01</totfact>
</mgrwt>
</event>
<event>
12    6  0.9533401E-008  0.1611302E+04  0.7818608E-02  0.8813635E-01
          2   -1    0    0  501    0  0.00000000000E+00  0.00000000000E+00  0.14956432296E+04  0.14956432296E+04  0.00000000000E+00 0. -1.
         -1   -1    0    0    0  501 -0.00000000000E+00 -0.00000000000E+00 -0.43397628349E+03  0.43397628349E+03  0.00000000000E+00 0.  1.
         24    2    1    2    0    0  0.44181543148E+03 -0.25419257672E+03  0.64329985179E+03  0.82458083473E+03  0.79272392032E+02 0.  0.
        254    2    1    2    0    0 -0.44181543148E+03  0.25419257672E+03  0.41836709428E+03  0.11050386783E+04  0.88671568920E+03 0.  0.
         23    2    4    4    0    0 -0.54260516301E+03 -0.13787279723E+03  0.87897506254E+02  0.57396553613E+03  0.91001065431E+02 0.  0.
         23    2    4    4    0    0  0.10078973154E+03  0.39206537395E+03  0.33046958803E+03  0.53107314220E+03  0.94629310048E+02 0.  0.
          4    1    3    3  502    0  0.42634455091E+03 -0.25992032327E+03  0.62133538195E+03  0.79711097558E+03  0.00000000000E+00 0. -1.
         -3    1    3    3    0  502  0.15470880567E+02  0.57277465439E+01  0.21964469843E+02  0.27469859145E+02  0.00000000000E+00 0.  1.
         11    1    5    5    0    0 -0.19688545028E+03 -0.51045737820E+02 -0.12081715051E+02  0.20375356615E+03  0.00000000000E+00 0.  1.
        -11    1    5    5    0    0 -0.34571971273E+03 -0.86827059410E+02  0.99979221305E+02  0.37021196997E+03  0.00000000000E+00 0. -1.
          3    1    6    6  503    0  0.46716145337E+02  0.29285713067E+03  0.27803688661E+03  0.40651224771E+03  0.00000000000E+00 0. -1.
         -3    1    6    6    0  503  0.54073586200E+02  0.99208243280E+02  0.52432701423E+02  0.12456089450E+03  0.00000000000E+00 0.  1.
<mgrwt>
<rscale>  0 0.16113022E+04</rscale>
<asrwt>0</asrwt>
<pdfrwt beam="1">  1        2 0.23009896E+00 0.16113022E+04</pdfrwt>
<pdfrwt beam="2">  1       -1 0.66765583E-01 0.16113022E+04</pdfrwt>
<totfact> 0.31677233E+01</totfact>
</mgrwt>
</event>
<event>
12    6  0.9533401E-008  0.1937714E+04  0.7818608E-02  0.8636308E-01
         -1   -1    0    0    0  501 -0.00000000000E+00  0.00000000000E+00  0.27663077519E+03  0.27663077519E+03  0.00000000000E+00 0.  1.
          2   -1    0    0  501    0  0.00000000000E+00 -0.00000000000E+00 -0.33932728938E+04  0.33932728938E+04  0.00000000000E+00 0. -1.
         24    2    1    2    0    0  0.26451081880E+03  0.27847803001E+03 -0.24486939141E+04  0.24800070523E+04  0.82565779505E+02 0.  0.
        254    2    1    2    0    0 -0.26451081880E+03 -0.27847803001E+03 -0.66794820449E+03  0.11898966167E+04  0.90674316545E+03 0.  0.
         23    2    4    4    0    0 -0.39250559361E+03 -0.37402992948E+03 -0.79339300289E+03  0.96567204763E+03  0.95346826732E+02 0.  0.
         23    2    4    4    0    0  0.12799477480E+03  0.95551899476E+02  0.12544479840E+03  0.22422456907E+03  0.95012799440E+02 0.  0.
          2    1    3    3  502    0  0.15862293879E+03  0.19242035887E+03 -0.17936805210E+04  0.18109325340E+04  0.00000000000E+00 0. -1.
         -1    1    3    3    0  502  0.10588788001E+03  0.86057671130E+02 -0.65501339308E+03  0.66907451827E+03  0.00000000000E+00 0.  1.
         11    1    5    5    0    0 -0.54546804321E+01 -0.14538294052E+02 -0.43436496278E+01  0.16123982903E+02  0.00000000000E+00 0. -1.
        -11    1    5    5    0    0 -0.38705091318E+03 -0.35949163543E+03 -0.78904935326E+03  0.94954806472E+03  0.00000000000E+00 0.  1.
          1    1    6    6  503    0  0.84270616261E+01  0.33245051597E+02  0.70941680023E+02  0.78797022710E+02  0.00000000000E+00 0. -1.
         -1    1    6    6    0  503  0.11956771318E+03  0.62306847879E+02  0.54503118380E+02  0.14542754636E+03  0.00000000000E+00 0.  1.
<mgrwt>
<rscale>  0 0.19377138E+04</rscale>
<asrwt>0</asrwt>
<pdfrwt beam="1">  1        2 0.52204202E+00 0.19377138E+04</pdfrwt>
<pdfrwt beam="2">  1       -1 0.42558578E-01 0.19377138E+04</pdfrwt>
<totfact> 0.55947456E+00</totfact>
</mgrwt>
</event>
<event>
12    6  0.9533401E-008  0.1337607E+04  0.7818608E-02  0.9000263E-01
         -1   -1    0    0    0  501 -0.00000000000E+00  0.00000000000E+00  0.38374958386E+03  0.38374958386E+03  0.00000000000E+00 0.  1.
          2   -1    0    0  501    0  0.00000000000E+00 -0.00000000000E+00 -0.11655984762E+04  0.11655984762E+04  0.00000000000E+00 0. -1.
         24    2    1    2    0    0  0.94570130030E+02 -0.10963293660E+03  0.16724605896E+03  0.23427717682E+03  0.77147009408E+02 0.  0.
        254    2    1    2    0    0 -0.94570130030E+02  0.10963293660E+03 -0.94909495131E+03  0.13150708833E+04  0.89870312735E+03 0.  0.
         23    2    4    4    0    0  0.16725106446E+03 -0.35925435348E+02  0.10126728516E+03  0.21895899130E+03  0.91784646646E+02 0.  0.
         23    2    4    4    0    0 -0.26182119449E+03  0.14555837194E+03 -0.10503622365E+04  0.10961118920E+04  0.91993882103E+02 0.  0.
          2    1    3    3  502    0  0.56381842586E+01 -0.75534536087E+01 -0.83206804202E+01  0.12572887727E+02  0.00000000000E+00 0. -1.
         -1    1    3    3    0  502  0.88931945771E+02 -0.10207948299E+03  0.17556673938E+03  0.22170428909E+03  0.00000000000E+00 0.  1.
         11    1    5    5    0    0  0.17314904228E+03 -0.18946482288E+02  0.81706799369E+02  0.19239428551E+03  0.00000000000E+00 0. -1.
        -11    1    5    5    0    0 -0.58979778195E+01 -0.16978953060E+02  0.19560485793E+02  0.26564705792E+02  0.00000000000E+00 0.  1.
          1    1    6    6  503    0 -0.24746231044E+03  0.11477398834E+03 -0.84442043960E+03  0.88738748149E+03  0.00000000000E+00 0. -1.
         -1    1    6    6    0  503 -0.14358884057E+02  0.30784383607E+02 -0.20594179687E+03  0.20872441046E+03  0.00000000000E+00 0.  1.
<mgrwt>
<rscale>  0 0.13376067E+04</rscale>
<asrwt>0</asrwt>
<pdfrwt beam="1">  1        2 0.17932284E+00 0.13376067E+04</pdfrwt>
<pdfrwt beam="2">  1       -1 0.59038399E-01 0.13376067E+04</pdfrwt>
<totfact> 0.64395070E+01</totfact>
</mgrwt>
</event>
<event>
12    6  0.9533401E-008  0.2200870E+04  0.7818608E-02  0.8518066E-01
          2   -1    0    0  501    0  0.00000000000E+00  0.00000000000E+00  0.58335226287E+03  0.58335226287E+03  0.00000000000E+00 0. -1.
         -1   -1    0    0    0  501 -0.00000000000E+00 -0.00000000000E+00 -0.20758598793E+04  0.20758598793E+04  0.00000000000E+00 0.  1.
         24    2    1    2    0    0  0.28703508507E+02  0.68802006661E+03  0.10397837440E+03  0.70154261667E+03  0.84587452983E+02 0.  0.
        254    2    1    2    0    0 -0.28703508507E+02 -0.68802006661E+03 -0.15964859908E+04  0.19576695255E+04  0.89972604092E+03 0.  0.
         23    2    4    4    0    0  0.33436751558E+03 -0.22834060638E+03 -0.24522160027E+03  0.48208077234E+03  0.91253327749E+02 0.  0.
         23    2    4    4    0    0 -0.36307102409E+03 -0.45967946023E+03 -0.13512643906E+04  0.14755887532E+04  0.91219189743E+02 0.  0.
          4    1    3    3  502    0 -0.11241845784E+02  0.54919364179E+03  0.84819744698E+02  0.55581869739E+03  0.00000000000E+00 0. -1.
         -3    1    3    3    0  502  0.39945354292E+02  0.13882642482E+03  0.19158629702E+02  0.14572391928E+03  0.00000000000E+00 0.  1.
         11    1    5    5    0    0  0.17672843333E+03 -0.96538035568E+02 -0.16908405117E+03  0.26294856497E+03  0.00000000000E+00 0. -1.
        -11    1    5    5    0    0  0.15763908225E+03 -0.13180257081E+03 -0.76137549097E+02  0.21913220737E+03  0.00000000000E+00 0.  1.
          3    1    6    6  503    0 -0.11821488886E+03 -0.20530710397E+03 -0.47303962946E+03  0.52904844573E+03  0.00000000000E+00 0. -1.
         -3    1    6    6    0  503 -0.24485613523E+03 -0.25437235626E+03 -0.87822476109E+03  0.94654030743E+03  0.00000000000E+00 0.  1.
<mgrwt>
<rscale>  0 0.22008703E+04</rscale>
<asrwt>0</asrwt>
<pdfrwt beam="1">  1        2 0.89746501E-01 0.22008703E+04</pdfrwt>
<pdfrwt beam="2">  1       -1 0.31936306E+00 0.22008703E+04</pdfrwt>
<totfact> 0.13237597E+00</totfact>
</mgrwt>
</event>
<event>
12    6  0.9533401E-008  0.1337955E+04  0.7818608E-02  0.8999996E-01
          2   -1    0    0  501    0  0.00000000000E+00  0.00000000000E+00  0.40528746587E+03  0.40528746587E+03  0.00000000000E+00 0. -1.
         -1   -1    0    0    0  501 -0.00000000000E+00 -0.00000000000E+00 -0.11042310208E+04  0.11042310208E+04  0.00000000000E+00 0.  1.
         24    2    1    2    0    0 -0.20041057883E+03 -0.27685899612E+03 -0.32491946068E+03  0.47830426561E+03  0.79918775855E+02 0.  0.
        254    2    1    2    0    0  0.20041057883E+03  0.27685899612E+03 -0.37402409428E+03  0.10312142211E+04  0.89816114526E+03 0.  0.
         23    2    4    4    0    0 -0.61511433395E+02  0.37065461357E+03 -0.56215743896E+03  0.68320179684E+03  0.97853002113E+02 0.  0.
         23    2    4    4    0    0  0.26192201223E+03 -0.93795617450E+02  0.18813334468E+03  0.34801242426E+03  0.91201610259E+02 0.  0.
          2    1    3    3  502    0 -0.71554595387E+01 -0.28713988138E+02 -0.60703811688E+02  0.67532558588E+02  0.00000000000E+00 0. -1.
         -1    1    3    3    0  502 -0.19325511930E+03 -0.24814500798E+03 -0.26421564899E+03  0.41077170703E+03  0.00000000000E+00 0.  1.
         11    1    5    5    0    0 -0.68522621522E+02  0.21090921357E+03 -0.38700497503E+03  0.44603912018E+03  0.00000000000E+00 0.  1.
        -11    1    5    5    0    0  0.70111881267E+01  0.15974540000E+03 -0.17515246393E+03  0.23716267666E+03  0.00000000000E+00 0. -1.
          1    1    6    6  503    0  0.22725978553E+03 -0.11142553837E+03  0.15403950129E+03  0.29629517154E+03  0.00000000000E+00 0. -1.
         -1    1    6    6    0  503  0.34662226699E+02  0.17629920921E+02  0.34093843392E+02  0.51717252718E+02  0.00000000000E+00 0.  1.
<mgrwt>
<rscale>  0 0.13379551E+04</rscale>
<asrwt>0</asrwt>
<pdfrwt beam="1">  1        2 0.62351918E-01 0.13379551E+04</pdfrwt>
<pdfrwt beam="2">  1       -1 0.16988169E+00 0.13379551E+04</pdfrwt>
<totfact> 0.21607877E+01</totfact>
</mgrwt>
</event>
<event>
12    6  0.9533401E-008  0.1819951E+04  0.7818608E-02  0.8695761E-01
          2   -1    0    0  501    0  0.00000000000E+00  0.00000000000E+00  0.30550399641E+04  0.30550399641E+04  0.00000000000E+00 0. -1.
         -1   -1    0    0    0  501 -0.00000000000E+00 -0.00000000000E+00 -0.27104568341E+03  0.27104568341E+03  0.00000000000E+00 0.  1.
         24    2    1    2    0    0  0.47413538992E+03  0.30186279464E+03  0.17705413892E+04  0.18591580392E+04  0.75672249108E+02 0.  0.
        254    2    1    2    0    0 -0.47413538992E+03 -0.30186279464E+03  0.10134528915E+04  0.14669276083E+04  0.89936885087E+03 0.  0.
         23    2    4    4    0    0 -0.20292551114E+03  0.30807465524E+03  0.45111530305E+03  0.58935178988E+03  0.87987267877E+02 0.  0.
         23    2    4    4    0    0 -0.27120987878E+03 -0.60993744988E+03  0.56233758849E+03  0.87757581845E+03  0.91308611742E+02 0.  0.
          2    1    3    3  502    0  0.31053344619E+03  0.19823074590E+03  0.12735890248E+04  0.13258037011E+04  0.00000000000E+00 0. -1.
         -1    1    3    3    0  502  0.16360194373E+03  0.10363204874E+03  0.49695236439E+03  0.53335433812E+03  0.00000000000E+00 0.  1.
         11    1    5    5    0    0 -0.76962585916E+02  0.18845782951E+03  0.27315418070E+03  0.34066523094E+03  0.00000000000E+00 0. -1.
        -11    1    5    5    0    0 -0.12596292522E+03  0.11961682573E+03  0.17796112235E+03  0.24868655894E+03  0.00000000000E+00 0.  1.
          3    1    6    6  503    0 -0.25997188278E+03 -0.50480729821E+03  0.48147963930E+03  0.74447191433E+03  0.00000000000E+00 0. -1.
         -3    1    6    6    0  503 -0.11237995997E+02 -0.10513015167E+03  0.80857949198E+02  0.13310390412E+03  0.00000000000E+00 0.  1.
<mgrwt>
<rscale>  0 0.18199510E+04</rscale>
<asrwt>0</asrwt>
<pdfrwt beam="1">  1        2 0.47000613E+00 0.18199510E+04</pdfrwt>
<pdfrwt beam="2">  1       -1 0.41699338E-01 0.18199510E+04</pdfrwt>
<totfact> 0.97714186E+00</totfact>
</mgrwt>
</event>
<event>
12    6  0.9533401E-008  0.1421699E+04  0.7818608E-02  0.8938260E-01
          2   -1    0    0  501    0  0.00000000000E+00  0.00000000000E+00  0.12913298802E+04  0.12913298802E+04  0.00000000000E+00 0. -1.
         -1   -1    0    0    0  501 -0.00000000000E+00 -0.00000000000E+00 -0.39130766704E+03  0.39130766704E+03  0.00000000000E+00 0.  1.
         24    2    1    2    0    0 -0.24384215438E+02  0.16681969906E+03  0.71461810939E+03  0.73850861186E+03  0.79325440847E+02 0.  0.
        254    2    1    2    0    0  0.24384215438E+02 -0.16681969906E+03  0.18540410379E+03  0.94412893540E+03  0.91026444674E+03 0.  0.
         23    2    4    4    0    0 -0.29191301083E+02 -0.40559820718E+03  0.42021793016E+03  0.59187329797E+03  0.91481442373E+02 0.  0.
         23    2    4    4    0    0  0.53575516521E+02  0.23877850812E+03 -0.23481382636E+03  0.35225563743E+03  0.95189228051E+02 0.  0.
          2    1    3    3  502    0 -0.40560394506E+02  0.16130386010E+03  0.60013604215E+03  0.62275785822E+03  0.00000000000E+00 0. -1.
         -1    1    3    3    0  502  0.16176179068E+02  0.55158389559E+01  0.11448206724E+03  0.11575075364E+03  0.00000000000E+00 0.  1.
         11    1    5    5    0    0  0.25471312272E+01 -0.15881211514E+03  0.22598837982E+03  0.27622187387E+03  0.00000000000E+00 0.  1.
        -11    1    5    5    0    0 -0.31738432310E+02 -0.24678609204E+03  0.19422955034E+03  0.31565142410E+03  0.00000000000E+00 0. -1.
          1    1    6    6  503    0 -0.35729179096E+01  0.98087074228E+02 -0.41841451469E+02  0.10669839237E+03  0.00000000000E+00 0. -1.
         -1    1    6    6    0  503  0.57148434430E+02  0.14069143390E+03 -0.19297237490E+03  0.24555724506E+03  0.00000000000E+00 0.  1.
<mgrwt>
<rscale>  0 0.14216994E+04</rscale>
<asrwt>0</asrwt>
<pdfrwt beam="1">  1        2 0.19866613E+00 0.14216994E+04</pdfrwt>
<pdfrwt beam="2">  1       -1 0.60201180E-01 0.14216994E+04</pdfrwt>
<totfact> 0.51838078E+01</totfact>
</mgrwt>
</event>
<event>
12    6  0.9533401E-008  0.2206085E+04  0.7818608E-02  0.8515900E-01
         -1   -1    0    0    0  501 -0.00000000000E+00  0.00000000000E+00  0.98185546492E+03  0.98185546492E+03  0.00000000000E+00 0.  1.
          2   -1    0    0  501    0  0.00000000000E+00 -0.00000000000E+00 -0.12391866902E+04  0.12391866902E+04  0.00000000000E+00 0. -1.
         24    2    1    2    0    0  0.28198289603E+03 -0.73083432302E+03 -0.58120931462E+03  0.97866957757E+03  0.79728999119E+02 0.  0.
        254    2    1    2    0    0 -0.28198289603E+03  0.73083432302E+03  0.32387808938E+03  0.12423725775E+04  0.90827278019E+03 0.  0.
         23    2    4    4    0    0 -0.57829120979E+03  0.35140847869E+03  0.31647758679E+03  0.75325962664E+03  0.96609316215E+02 0.  0.
         23    2    4    4    0    0  0.29630831376E+03  0.37942584433E+03  0.74005025927E+01  0.48911295087E+03  0.86105302514E+02 0.  0.
          2    1    3    3  502    0  0.25077836642E+03 -0.64986938349E+03 -0.48316496167E+03  0.84774311254E+03  0.00000000000E+00 0. -1.
         -1    1    3    3    0  502  0.31204529602E+02 -0.80964939528E+02 -0.98044352949E+02  0.13092646503E+03  0.00000000000E+00 0.  1.
         11    1    5    5    0    0 -0.18936057901E+03  0.10475900981E+03  0.53507359131E+02  0.22292356650E+03  0.00000000000E+00 0. -1.
        -11    1    5    5    0    0 -0.38893063078E+03  0.24664946888E+03  0.26297022766E+03  0.53033606015E+03  0.00000000000E+00 0.  1.
          4    1    6    6  503    0  0.14664950893E+02  0.29448508201E+02  0.22118920187E+02  0.39642427401E+02  0.00000000000E+00 0. -1.
         -4    1    6    6    0  503  0.28164336287E+03  0.34997733613E+03 -0.14718417595E+02  0.44947052347E+03  0.00000000000E+00 0.  1.
<mgrwt>
<rscale>  0 0.22060845E+04</rscale>
<asrwt>0</asrwt>
<pdfrwt beam="1">  1        2 0.19064411E+00 0.22060845E+04</pdfrwt>
<pdfrwt beam="2">  1       -1 0.15105469E+00 0.22060845E+04</pdfrwt>
<totfact> 0.63999288E+00</totfact>
</mgrwt>
</event>
<event>
12    6  0.9533401E-008  0.3702728E+04  0.7818608E-02  0.8067358E-01
         -1   -1    0    0    0  501 -0.00000000000E+00  0.00000000000E+00  0.14331346756E+04  0.14331346756E+04  0.00000000000E+00 0.  1.
          2   -1    0    0  501    0  0.00000000000E+00 -0.00000000000E+00 -0.23916443539E+04  0.23916443539E+04  0.00000000000E+00 0. -1.
         24    2    1    2    0    0 -0.62083911768E+02  0.16099003688E+04 -0.11806236452E+04  0.19988933224E+04  0.77901946584E+02 0.  0.
        254    2    1    2    0    0  0.62083911768E+02 -0.16099003688E+04  0.22211396692E+03  0.18258857070E+04  0.82999421158E+03 0.  0.
         23    2    4    4    0    0  0.19440803998E+03 -0.14739262213E+03  0.24130132325E+03  0.35451932538E+03  0.89098554432E+02 0.  0.
         23    2    4    4    0    0 -0.13232412821E+03 -0.14625077467E+04 -0.19187356322E+02  0.14713663816E+04  0.90068254202E+02 0.  0.
          2    1    3    3  502    0 -0.25612892913E+02  0.77143319237E+03 -0.51771762758E+03  0.92940665614E+03  0.00000000000E+00 0. -1.
         -1    1    3    3    0  502 -0.36471018856E+02  0.83846717643E+03 -0.66290601764E+03  0.10694866663E+04  0.00000000000E+00 0.  1.
         11    1    5    5    0    0  0.75428775341E+02 -0.75816293579E+02  0.49788395847E+02  0.11796819437E+03  0.00000000000E+00 0.  1.
        -11    1    5    5    0    0  0.11897926464E+03 -0.71576328550E+02  0.19151292740E+03  0.23655113101E+03  0.00000000000E+00 0. -1.
          3    1    6    6  503    0 -0.12060914611E+03 -0.13020162436E+04 -0.45135459243E+02  0.13083692424E+04  0.00000000000E+00 0. -1.
         -3    1    6    6    0  503 -0.11714982099E+02 -0.16049150303E+03  0.25948102921E+02  0.16299713923E+03  0.00000000000E+00 0.  1.
<mgrwt>
<rscale>  0 0.37027279E+04</rscale>
<asrwt>0</asrwt>
<pdfrwt beam="1">  1        2 0.36794529E+00 0.37027279E+04</pdfrwt>
<pdfrwt beam="2">  1       -1 0.22048226E+00 0.37027279E+04</pdfrwt>
<totfact> 0.40336831E-01</totfact>
</mgrwt>
</event>
<event>
12    6  0.9533401E-008  0.1473075E+04  0.7818608E-02  0.8902558E-01
          2   -1    0    0  501    0  0.00000000000E+00  0.00000000000E+00  0.52172220965E+03  0.52172220965E+03  0.00000000000E+00 0. -1.
         -1   -1    0    0    0  501 -0.00000000000E+00 -0.00000000000E+00 -0.10398007165E+04  0.10398007165E+04  0.00000000000E+00 0.  1.
         24    2    1    2    0    0 -0.33372675875E+03 -0.28385619686E+03 -0.47573157761E+02  0.44790891696E+03  0.80070609785E+02 0.  0.
        254    2    1    2    0    0  0.33372675875E+03  0.28385619686E+03 -0.47050534913E+03  0.11136140092E+04  0.90929257557E+03 0.  0.
         23    2    4    4    0    0  0.15498250607E+03 -0.80574534705E+02 -0.63615107221E+03  0.66578125127E+03  0.89803424460E+02 0.  0.
         23    2    4    4    0    0  0.17874425267E+03  0.36443073157E+03  0.16564572308E+03  0.44783275796E+03  0.91413388246E+02 0.  0.
          4    1    3    3  502    0  0.32650276208E+01 -0.97473605994E+01 -0.50041756445E+01  0.11432988144E+02  0.00000000000E+00 0. -1.
         -3    1    3    3    0  502 -0.33699178637E+03 -0.27410883626E+03 -0.42568982117E+02  0.43647592881E+03  0.00000000000E+00 0.  1.
         11    1    5    5    0    0 -0.22657252547E+01 -0.21327197431E+02 -0.14734395188E+03  0.14889668572E+03  0.00000000000E+00 0.  1.
        -11    1    5    5    0    0  0.15724823133E+03 -0.59247337273E+02 -0.48880712032E+03  0.51688456555E+03  0.00000000000E+00 0. -1.
          4    1    6    6  503    0  0.17941592759E+03  0.36958181723E+03  0.16431295403E+03  0.44246981995E+03  0.00000000000E+00 0. -1.
         -4    1    6    6    0  503 -0.67167491393E+00 -0.51510856674E+01  0.13327690414E+01  0.53629380064E+01  0.00000000000E+00 0.  1.
<mgrwt>
<rscale>  0 0.14730745E+04</rscale>
<asrwt>0</asrwt>
<pdfrwt beam="1">  1        2 0.80264956E-01 0.14730745E+04</pdfrwt>
<pdfrwt beam="2">  1       -1 0.15996934E+00 0.14730745E+04</pdfrwt>
<totfact> 0.18960528E+01</totfact>
</mgrwt>
</event>
<event>
12    6  0.9533401E-008  0.1134816E+04  0.7818608E-02  0.9171907E-01
         -1   -1    0    0    0  501 -0.00000000000E+00  0.00000000000E+00  0.94810374020E+02  0.94810374020E+02  0.00000000000E+00 0.  1.
          2   -1    0    0  501    0  0.00000000000E+00 -0.00000000000E+00 -0.33957428916E+04  0.33957428916E+04  0.00000000000E+00 0. -1.
         24    2    1    2    0    0 -0.15534506720E+03 -0.62133382336E+02 -0.94593903126E+03  0.96396282616E+03  0.80193717110E+02 0.  0.
        254    2    1    2    0    0  0.15534506720E+03  0.62133382336E+02 -0.23549934863E+04  0.25265904395E+04  0.89981791549E+03 0.  0.
         23    2    4    4    0    0 -0.17564644204E+03 -0.26200910981E+03 -0.40935935320E+03  0.52457855702E+03  0.90039636856E+02 0.  0.
         23    2    4    4    0    0  0.33099150924E+03  0.32414249215E+03 -0.19456341331E+04  0.20020118824E+04  0.89082338637E+02 0.  0.
          4    1    3    3  502    0 -0.56756659033E+02 -0.32138651496E+02 -0.18676361272E+03  0.19782532269E+03  0.00000000000E+00 0. -1.
         -3    1    3    3    0  502 -0.98588408170E+02 -0.29994730840E+02 -0.75917541854E+03  0.76613750347E+03  0.00000000000E+00 0.  1.
         11    1    5    5    0    0 -0.28821190850E+02 -0.12087579826E+03 -0.14843864236E+03  0.19358628617E+03  0.00000000000E+00 0.  1.
        -11    1    5    5    0    0 -0.14682525119E+03 -0.14113331155E+03 -0.26092071084E+03  0.33099227085E+03  0.00000000000E+00 0. -1.
          4    1    6    6  503    0 -0.16032303581E+01 -0.17644645768E+01 -0.13428737152E+01  0.27362369486E+01  0.00000000000E+00 0. -1.
         -4    1    6    6    0  503  0.33259473960E+03  0.32590695672E+03 -0.19442912594E+04  0.19992756455E+04  0.00000000000E+00 0.  1.
<mgrwt>
<rscale>  0 0.11348157E+04</rscale>
<asrwt>0</asrwt>
<pdfrwt beam="1">  1        2 0.52242191E+00 0.11348157E+04</pdfrwt>
<pdfrwt beam="2">  1       -1 0.14586213E-01 0.11348157E+04</pdfrwt>
<totfact> 0.38310880E+01</totfact>
</mgrwt>
</event>
<event>
12    6  0.9533401E-008  0.1580677E+04  0.7818608E-02  0.8832508E-01
         -1   -1    0    0    0  501 -0.00000000000E+00  0.00000000000E+00  0.77675148514E+03  0.77675148514E+03  0.00000000000E+00 0.  1.
          2   -1    0    0  501    0  0.00000000000E+00 -0.00000000000E+00 -0.80416320758E+03  0.80416320758E+03  0.00000000000E+00 0. -1.
         24    2    1    2    0    0  0.63231042955E+02  0.10259848696E+03  0.50808979259E+03  0.52688031068E+03  0.70164165555E+02 0.  0.
        254    2    1    2    0    0 -0.63231042955E+02 -0.10259848696E+03 -0.53550151503E+03  0.10540343820E+04  0.89983442455E+03 0.  0.
         23    2    4    4    0    0 -0.40848018278E+03 -0.10034638381E+03 -0.54728390532E+03  0.69621014484E+03  0.90903444831E+02 0.  0.
         23    2    4    4    0    0  0.34524913983E+03 -0.22521031504E+01  0.11782390290E+02  0.35782423721E+03  0.93259420386E+02 0.  0.
          4    1    3    3  502    0 -0.13322729508E+02  0.28021745396E+02  0.15030834317E+03  0.15347739691E+03  0.00000000000E+00 0. -1.
         -3    1    3    3    0  502  0.76553772463E+02  0.74576741560E+02  0.35778144943E+03  0.37340291377E+03  0.00000000000E+00 0.  1.
         11    1    5    5    0    0 -0.11718162989E+03 -0.66701028209E+02 -0.20661541256E+03  0.24671945658E+03  0.00000000000E+00 0. -1.
        -11    1    5    5    0    0 -0.29129855289E+03 -0.33645355597E+02 -0.34066849276E+03  0.44949068825E+03  0.00000000000E+00 0.  1.
          3    1    6    6  503    0  0.26289443047E+03  0.47888621725E+01  0.48511799289E+02  0.26737578321E+03  0.00000000000E+00 0. -1.
         -3    1    6    6    0  503  0.82354709355E+02 -0.70409653229E+01 -0.36729409000E+02  0.90448454001E+02  0.00000000000E+00 0.  1.
<mgrwt>
<rscale>  0 0.15806770E+04</rscale>
<asrwt>0</asrwt>
<pdfrwt beam="1">  1        2 0.12371742E+00 0.15806770E+04</pdfrwt>
<pdfrwt beam="2">  1       -1 0.11950023E+00 0.15806770E+04</pdfrwt>
<totfact> 0.23463906E+01</totfact>
</mgrwt>
</event>
<event>
12    6  0.9533401E-008  0.1214815E+04  0.7818608E-02  0.9099987E-01
          2   -1    0    0  501    0  0.00000000000E+00  0.00000000000E+00  0.59957264156E+03  0.59957264156E+03  0.00000000000E+00 0. -1.
         -1   -1    0    0    0  501 -0.00000000000E+00 -0.00000000000E+00 -0.61534486318E+03  0.61534486318E+03  0.00000000000E+00 0.  1.
         24    2    1    2    0    0  0.26083789823E+03 -0.15291037762E+02  0.58809964036E+02  0.27877927152E+03  0.77388922819E+02 0.  0.
        254    2    1    2    0    0 -0.26083789823E+03  0.15291037762E+02 -0.74582185651E+02  0.93613823322E+03  0.89583595836E+03 0.  0.
         23    2    4    4    0    0 -0.51650432265E+03  0.24423791250E+03 -0.32136492829E+02  0.57880483705E+03  0.86910367599E+02 0.  0.
         23    2    4    4    0    0  0.25566642443E+03 -0.22894687474E+03 -0.42445692823E+02  0.35733339617E+03  0.90019593144E+02 0.  0.
          4    1    3    3  502    0  0.15517396166E+03  0.24255583027E+02  0.53178191719E+02  0.16581680180E+03  0.00000000000E+00 0. -1.
         -3    1    3    3    0  502  0.10566393657E+03 -0.39546620789E+02  0.56317723168E+01  0.11296246972E+03  0.00000000000E+00 0.  1.
         11    1    5    5    0    0 -0.39776939792E+03  0.19867877946E+03 -0.59870310220E+02  0.44864039651E+03  0.00000000000E+00 0. -1.
        -11    1    5    5    0    0 -0.11873492473E+03  0.45559133035E+02  0.27733817392E+02  0.13016444054E+03  0.00000000000E+00 0.  1.
          3    1    6    6  503    0  0.23224741664E+03 -0.20229821716E+03 -0.83255176138E+01  0.30811157954E+03  0.00000000000E+00 0. -1.
         -3    1    6    6    0  503  0.23419007784E+02 -0.26648657575E+02 -0.34120175209E+02  0.49221816631E+02  0.00000000000E+00 0.  1.
<mgrwt>
<rscale>  0 0.12148151E+04</rscale>
<asrwt>0</asrwt>
<pdfrwt beam="1">  1        2 0.92241945E-01 0.12148151E+04</pdfrwt>
<pdfrwt beam="2">  1       -1 0.94668441E-01 0.12148151E+04</pdfrwt>
<totfact> 0.60387107E+01</totfact>
</mgrwt>
</event>
<event>
12    6  0.9533401E-008  0.1915900E+04  0.7818608E-02  0.8646982E-01
          2   -1    0    0  501    0  0.00000000000E+00  0.00000000000E+00  0.57344539883E+03  0.57344539883E+03  0.00000000000E+00 0. -1.
         -1   -1    0    0    0  501 -0.00000000000E+00 -0.00000000000E+00 -0.16002713769E+04  0.16002713769E+04  0.00000000000E+00 0.  1.
         24    2    1    2    0    0 -0.32813033027E+03 -0.57056325326E+03 -0.79368272300E+03  0.10354530441E+04  0.94967374171E+02 0.  0.
        254    2    1    2    0    0  0.32813033027E+03  0.57056325326E+03 -0.23314325512E+03  0.11382637317E+04  0.89893081258E+03 0.  0.
         23    2    4    4    0    0 -0.20920267795E+02  0.29335695815E+03 -0.51712586111E+03  0.60173719982E+03  0.90402095759E+02 0.  0.
         23    2    4    4    0    0  0.34905059807E+03  0.27720629511E+03  0.28398260600E+03  0.53652653185E+03  0.92384786676E+02 0.  0.
          2    1    3    3  502    0 -0.13023238014E+03 -0.14874206830E+03 -0.26748779337E+03  0.33261749100E+03  0.00000000000E+00 0. -1.
         -3    1    3    3    0  502 -0.19789795014E+03 -0.42182118495E+03 -0.52619492963E+03  0.70283555311E+03  0.00000000000E+00 0.  1.
         11    1    5    5    0    0  0.11290771455E+02  0.38087800067E+01 -0.48437957601E+02  0.49882101617E+02  0.00000000000E+00 0.  1.
        -11    1    5    5    0    0 -0.32211039250E+02  0.28954817814E+03 -0.46868790351E+03  0.55185509820E+03  0.00000000000E+00 0. -1.
          1    1    6    6  503    0  0.34436124686E+03  0.26591911647E+03  0.25317700552E+03  0.50338478420E+03  0.00000000000E+00 0. -1.
         -1    1    6    6    0  503  0.46893512106E+01  0.11287178640E+02  0.30805600476E+02  0.33141747648E+02  0.00000000000E+00 0.  1.
<mgrwt>
<rscale>  0 0.19159001E+04</rscale>
<asrwt>0</asrwt>
<pdfrwt beam="1">  1        2 0.88222369E-01 0.19159001E+04</pdfrwt>
<pdfrwt beam="2">  1       -1 0.24619560E+00 0.19159001E+04</pdfrwt>
<totfact> 0.41315735E+00</totfact>
</mgrwt>
</event>
<event>
12    6  0.9533401E-008  0.1811794E+04  0.7818608E-02  0.8700053E-01
          2   -1    0    0  501    0  0.00000000000E+00  0.00000000000E+00  0.24034033215E+04  0.24034033215E+04  0.00000000000E+00 0. -1.
         -1   -1    0    0    0  501 -0.00000000000E+00 -0.00000000000E+00 -0.34145293749E+03  0.34145293749E+03  0.00000000000E+00 0.  1.
         24    2    1    2    0    0 -0.24772784880E+03  0.63156194209E+03  0.79617109494E+03  0.10502360978E+04  0.94169394866E+02 0.  0.
        254    2    1    2    0    0  0.24772784880E+03 -0.63156194209E+03  0.12657792891E+04  0.16946201612E+04  0.89961142072E+03 0.  0.
         23    2    4    4    0    0  0.55517267570E+03 -0.55153519706E+03  0.98532818307E+03  0.12611872971E+04  0.85521906470E+02 0.  0.
         23    2    4    4    0    0 -0.30744482691E+03 -0.80026745030E+02  0.28045110600E+03  0.43343286411E+03  0.91019906207E+02 0.  0.
          2    1    3    3  502    0 -0.23081641148E+03  0.61449980765E+03  0.74024050732E+03  0.98936456278E+03  0.00000000000E+00 0. -1.
         -1    1    3    3    0  502 -0.16911437317E+02  0.17062134446E+02  0.55930587619E+02  0.60871535017E+02  0.00000000000E+00 0.  1.
         11    1    5    5    0    0  0.12943867573E+02  0.31010518950E+00  0.23404353788E+02  0.26747030662E+02  0.00000000000E+00 0.  1.
        -11    1    5    5    0    0  0.54222880813E+03 -0.55184530225E+03  0.96192382928E+03  0.12344402664E+04  0.00000000000E+00 0. -1.
          4    1    6    6  503    0 -0.20772124195E+03 -0.23565800485E+02  0.22145074471E+03  0.30453882124E+03  0.00000000000E+00 0. -1.
         -4    1    6    6    0  503 -0.99723584962E+02 -0.56460944545E+02  0.59000361283E+02  0.12889404287E+03  0.00000000000E+00 0.  1.
<mgrwt>
<rscale>  0 0.18117937E+04</rscale>
<asrwt>0</asrwt>
<pdfrwt beam="1">  1        2 0.36975435E+00 0.18117937E+04</pdfrwt>
<pdfrwt beam="2">  1       -1 0.52531223E-01 0.18117937E+04</pdfrwt>
<totfact> 0.15532024E+01</totfact>
</mgrwt>
</event>
<event>
12    6  0.9533401E-008  0.3245407E+04  0.7818608E-02  0.8176927E-01
         -1   -1    0    0    0  501 -0.00000000000E+00  0.00000000000E+00  0.19538746274E+04  0.19538746274E+04  0.00000000000E+00 0.  1.
          2   -1    0    0  501    0  0.00000000000E+00 -0.00000000000E+00 -0.13476644935E+04  0.13476644935E+04  0.00000000000E+00 0. -1.
         24    2    1    2    0    0  0.60025510768E+03 -0.75773629434E+03 -0.88140800082E+03  0.13105998161E+04  0.79506779170E+02 0.  0.
        254    2    1    2    0    0 -0.60025510768E+03  0.75773629434E+03  0.14876181347E+04  0.19909393048E+04  0.90352704149E+03 0.  0.
         23    2    4    4    0    0 -0.21053949684E+03  0.56773785304E+03  0.14152843081E+04  0.15420069331E+04  0.90014217585E+02 0.  0.
         23    2    4    4    0    0 -0.38971561083E+03  0.18999844130E+03  0.72333826631E+02  0.44893237177E+03  0.91271172468E+02 0.  0.
          2    1    3    3  502    0  0.57934525831E+03 -0.74384225517E+03 -0.87044415386E+03  0.12832050709E+04  0.00000000000E+00 0. -1.
         -1    1    3    3    0  502  0.20909849367E+02 -0.13894039169E+02 -0.10963846960E+02  0.27394745210E+02  0.00000000000E+00 0.  1.
         11    1    5    5    0    0 -0.97543324344E+01  0.13233135730E+03  0.31050091111E+03  0.33766485000E+03  0.00000000000E+00 0.  1.
        -11    1    5    5    0    0 -0.20078516441E+03  0.43540649574E+03  0.11047833970E+04  0.12043420831E+04  0.00000000000E+00 0. -1.
          3    1    6    6  503    0 -0.20531731330E+03  0.79833309152E+02 -0.57853954011E+01  0.22036793594E+03  0.00000000000E+00 0. -1.
         -3    1    6    6    0  503 -0.18439829753E+03  0.11016513215E+03  0.78119222032E+02  0.22856443583E+03  0.00000000000E+00 0.  1.
<mgrwt>
<rscale>  0 0.32454075E+04</rscale>
<asrwt>0</asrwt>
<pdfrwt beam="1">  1        2 0.20733300E+00 0.32454075E+04</pdfrwt>
<pdfrwt beam="2">  1       -1 0.30059610E+00 0.32454075E+04</pdfrwt>
<totfact> 0.48497633E-01</totfact>
</mgrwt>
</event>
<event>
12    6  0.9533401E-008  0.3506298E+04  0.7818608E-02  0.8112299E-01
         -1   -1    0    0    0  501 -0.00000000000E+00  0.00000000000E+00  0.10307346111E+04  0.10307346111E+04  0.00000000000E+00 0.  1.
          2   -1    0    0  501    0  0.00000000000E+00 -0.00000000000E+00 -0.29818844813E+04  0.29818844813E+04  0.00000000000E+00 0. -1.
         24    2    1    2    0    0 -0.46895727668E+03 -0.29053832992E+03 -0.26741834006E+04  0.27316656366E+04  0.80042750672E+02 0.  0.
        254    2    1    2    0    0  0.46895727668E+03  0.29053832992E+03  0.72303353040E+03  0.12809534558E+04  0.90207029731E+03 0.  0.
         23    2    4    4    0    0 -0.11196988743E+03  0.34319354015E+03  0.55446385549E+03  0.66756681488E+03  0.88860697654E+02 0.  0.
         23    2    4    4    0    0  0.58092716411E+03 -0.52655210231E+02  0.16856967491E+03  0.61338664091E+03  0.87054550587E+02 0.  0.
          4    1    3    3  502    0 -0.41438760245E+03 -0.28314629175E+03 -0.24420462167E+04  0.24930861662E+04  0.00000000000E+00 0. -1.
         -3    1    3    3    0  502 -0.54569674236E+02 -0.73920381701E+01 -0.23213718391E+03  0.23857947046E+03  0.00000000000E+00 0.  1.
         11    1    5    5    0    0 -0.12275623674E+03  0.29582940166E+03  0.44981914399E+03  0.55219687689E+03  0.00000000000E+00 0. -1.
        -11    1    5    5    0    0  0.10786349312E+02  0.47364138485E+02  0.10464471150E+03  0.11536993798E+03  0.00000000000E+00 0.  1.
          4    1    6    6  503    0  0.36190942226E+03  0.53487045752E+01  0.12302852411E+03  0.38228661539E+03  0.00000000000E+00 0. -1.
         -4    1    6    6    0  503  0.21901774185E+03 -0.58003914806E+02  0.45541150802E+02  0.23110002552E+03  0.00000000000E+00 0.  1.
<mgrwt>
<rscale>  0 0.35062981E+04</rscale>
<asrwt>0</asrwt>
<pdfrwt beam="1">  1        2 0.45875146E+00 0.35062981E+04</pdfrwt>
<pdfrwt beam="2">  1       -1 0.15857455E+00 0.35062981E+04</pdfrwt>
<totfact> 0.49911649E-01</totfact>
</mgrwt>
</event>
<event>
12    6  0.9533401E-008  0.2723278E+04  0.7818608E-02  0.8327491E-01
         -1   -1    0    0    0  501 -0.00000000000E+00  0.00000000000E+00  0.13944211254E+04  0.13944211254E+04  0.00000000000E+00 0.  1.
          2   -1    0    0  501    0  0.00000000000E+00 -0.00000000000E+00 -0.13296277844E+04  0.13296277844E+04  0.00000000000E+00 0. -1.
         24    2    1    2    0    0 -0.36491712662E+03  0.93387197278E+03 -0.64865566052E+03  0.11970028274E+04  0.82342163859E+02 0.  0.
        254    2    1    2    0    0  0.36491712662E+03 -0.93387197278E+03  0.71344900147E+03  0.15270460825E+04  0.90420069093E+03 0.  0.
         23    2    4    4    0    0  0.42413185768E+03 -0.52881250311E+03  0.84558497821E+03  0.10873441547E+04  0.88163820543E+02 0.  0.
         23    2    4    4    0    0 -0.59214731067E+02 -0.40505946967E+03 -0.13213597675E+03  0.43970192777E+03  0.91095063456E+02 0.  0.
          2    1    3    3  502    0 -0.20632329598E+03  0.47509656182E+03 -0.29152499864E+03  0.59436762222E+03  0.00000000000E+00 0. -1.
         -1    1    3    3    0  502 -0.15859383063E+03  0.45877541097E+03 -0.35713066188E+03  0.60263520514E+03  0.00000000000E+00 0.  1.
         11    1    5    5    0    0  0.45219719614E+02 -0.77282761577E+02  0.72724239652E+02  0.11535277765E+03  0.00000000000E+00 0.  1.
        -11    1    5    5    0    0  0.37891213807E+03 -0.45152974153E+03  0.77286073856E+03  0.97199137706E+03  0.00000000000E+00 0. -1.
          4    1    6    6  503    0 -0.79909561745E+01 -0.21673113385E+02  0.13082219893E+02  0.26546632587E+02  0.00000000000E+00 0.  1.
         -4    1    6    6    0  503 -0.51223774892E+02 -0.38338635629E+03 -0.14521819664E+03  0.41315529518E+03  0.00000000000E+00 0. -1.
<mgrwt>
<rscale>  0 0.27232782E+04</rscale>
<asrwt>0</asrwt>
<pdfrwt beam="1">  1        2 0.20455812E+00 0.27232782E+04</pdfrwt>
<pdfrwt beam="2">  1       -1 0.21452633E+00 0.27232782E+04</pdfrwt>
<totfact> 0.18985398E+00</totfact>
</mgrwt>
</event>
<event>
12    6  0.9533401E-008  0.1744199E+04  0.7818608E-02  0.8736550E-01
          2   -1    0    0  501    0  0.00000000000E+00  0.00000000000E+00  0.32312474816E+04  0.32312474816E+04  0.00000000000E+00 0. -1.
         -1   -1    0    0    0  501 -0.00000000000E+00 -0.00000000000E+00 -0.23537582752E+03  0.23537582752E+03  0.00000000000E+00 0.  1.
         24    2    1    2    0    0 -0.36198999051E+03  0.44471666641E+03  0.54581335500E+03  0.79564869713E+03  0.79592487884E+02 0.  0.
        254    2    1    2    0    0  0.36198999051E+03 -0.44471666641E+03  0.24500582990E+04  0.26709746120E+04  0.89582924847E+03 0.  0.
         23    2    4    4    0    0 -0.13383680707E+03 -0.13262315657E+03  0.73178188218E+02  0.22126358367E+03  0.90007408805E+02 0.  0.
         23    2    4    4    0    0  0.49582679758E+03 -0.31209350984E+03  0.23768801108E+04  0.24497110283E+04  0.90986201272E+02 0.  0.
          4    1    3    3  502    0 -0.13966533746E+03  0.11457653149E+03  0.18123510933E+03  0.25589129120E+03  0.00000000000E+00 0. -1.
         -3    1    3    3    0  502 -0.22232465305E+03  0.33014013492E+03  0.36457824567E+03  0.53975740593E+03  0.00000000000E+00 0.  1.
         11    1    5    5    0    0 -0.15954848084E+02 -0.35090954435E+02  0.55035685812E+02  0.67192700298E+02  0.00000000000E+00 0.  1.
        -11    1    5    5    0    0 -0.11788195899E+03 -0.97532202138E+02  0.18142502406E+02  0.15407088337E+03  0.00000000000E+00 0. -1.
          2    1    6    6  503    0  0.33624342639E+03 -0.16535518170E+03  0.14231193389E+04  0.14716217689E+04  0.00000000000E+00 0. -1.
         -2    1    6    6    0  503  0.15958337119E+03 -0.14673832814E+03  0.95376077194E+03  0.97808925942E+03  0.00000000000E+00 0.  1.
<mgrwt>
<rscale>  0 0.17441990E+04</rscale>
<asrwt>0</asrwt>
<pdfrwt beam="1">  1        2 0.49711497E+00 0.17441990E+04</pdfrwt>
<pdfrwt beam="2">  1       -1 0.36211668E-01 0.17441990E+04</pdfrwt>
<totfact> 0.98098557E+00</totfact>
</mgrwt>
</event>
<event>
12    6  0.9533401E-008  0.1751894E+04  0.7818608E-02  0.8732308E-01
          2   -1    0    0  501    0  0.00000000000E+00  0.00000000000E+00  0.18591375154E+04  0.18591375154E+04  0.00000000000E+00 0. -1.
         -1   -1    0    0    0  501 -0.00000000000E+00 -0.00000000000E+00 -0.41270915634E+03  0.41270915634E+03  0.00000000000E+00 0.  1.
         24    2    1    2    0    0 -0.23135470982E+03 -0.31929458065E+03 -0.12760652480E+03  0.42207468661E+03  0.79934879238E+02 0.  0.
        254    2    1    2    0    0  0.23135470982E+03  0.31929458065E+03  0.15740348838E+04  0.18497719851E+04  0.88802958866E+03 0.  0.
         23    2    4    4    0    0  0.16877496583E+03 -0.10430862223E+03 -0.21179613260E+01  0.21394810783E+03  0.80025179298E+02 0.  0.
         23    2    4    4    0    0  0.62579743984E+02  0.42360320289E+03  0.15761528451E+04  0.16358238773E+04  0.91137633713E+02 0.  0.
          4    1    3    3  502    0 -0.17539610399E+02 -0.75059851551E+02 -0.15251250314E+02  0.78576204312E+02  0.00000000000E+00 0. -1.
         -3    1    3    3    0  502 -0.21381509942E+03 -0.24423472910E+03 -0.11235527448E+03  0.34349848230E+03  0.00000000000E+00 0.  1.
         11    1    5    5    0    0  0.15228325958E+03 -0.54972502603E+02 -0.46648416321E+00  0.16190239282E+03  0.00000000000E+00 0.  1.
        -11    1    5    5    0    0  0.16491706250E+02 -0.49336119628E+02 -0.16514771628E+01  0.52045715019E+02  0.00000000000E+00 0. -1.
          1    1    6    6  503    0  0.19376410635E+02  0.14407557908E+03  0.38451669263E+03  0.41107943841E+03  0.00000000000E+00 0. -1.
         -1    1    6    6    0  503  0.43203333349E+02  0.27952762381E+03  0.11916361525E+04  0.12247444388E+04  0.00000000000E+00 0.  1.
<mgrwt>
<rscale>  0 0.17518939E+04</rscale>
<asrwt>0</asrwt>
<pdfrwt beam="1">  1        2 0.28602115E+00 0.17518939E+04</pdfrwt>
<pdfrwt beam="2">  1       -1 0.63493717E-01 0.17518939E+04</pdfrwt>
<totfact> 0.21724587E+01</totfact>
</mgrwt>
</event>
<event>
12    6  0.9533401E-008  0.1936827E+04  0.7818608E-02  0.8636739E-01
          2   -1    0    0  501    0  0.00000000000E+00  0.00000000000E+00  0.24147239305E+04  0.24147239305E+04  0.00000000000E+00 0. -1.
         -1   -1    0    0    0  501 -0.00000000000E+00 -0.00000000000E+00 -0.38837771382E+03  0.38837771382E+03  0.00000000000E+00 0.  1.
         24    2    1    2    0    0  0.25760635420E+02  0.54593322114E+03  0.13381940535E+04  0.14477169595E+04  0.80089809407E+02 0.  0.
        254    2    1    2    0    0 -0.25760635420E+02 -0.54593322114E+03  0.68815216316E+03  0.13553846848E+04  0.10318951264E+04 0.  0.
         23    2    4    4    0    0 -0.15568264372E+02  0.29364221869E+03  0.95208509343E+02  0.32357958574E+03  0.95765153403E+02 0.  0.
         23    2    4    4    0    0 -0.10192371048E+02 -0.83957543983E+03  0.59294365382E+03  0.10318050991E+04  0.89715006218E+02 0.  0.
          2    1    3    3  502    0  0.41299704772E+02  0.30727437189E+03  0.83132363732E+03  0.88725542839E+03  0.00000000000E+00 0. -1.
         -1    1    3    3    0  502 -0.15539069352E+02  0.23865884925E+03  0.50687041619E+03  0.56046153107E+03  0.00000000000E+00 0.  1.
         11    1    5    5    0    0  0.19591756485E+02  0.16871347563E+03  0.93294619223E+02  0.19378328039E+03  0.00000000000E+00 0. -1.
        -11    1    5    5    0    0 -0.35160020858E+02  0.12492874306E+03  0.19138901208E+01  0.12979630536E+03  0.00000000000E+00 0.  1.
          2    1    6    6  503    0  0.14930679543E+02 -0.35979889164E+02  0.15443555788E+02  0.41904427347E+02  0.00000000000E+00 0.  1.
         -2    1    6    6    0  503 -0.25123050591E+02 -0.80359555067E+03  0.57750009803E+03  0.98990067176E+03  0.00000000000E+00 0. -1.
<mgrwt>
<rscale>  0 0.19368273E+04</rscale>
<asrwt>0</asrwt>
<pdfrwt beam="1">  1        2 0.37149598E+00 0.19368273E+04</pdfrwt>
<pdfrwt beam="2">  1       -1 0.59750419E-01 0.19368273E+04</pdfrwt>
<totfact> 0.11776814E+01</totfact>
</mgrwt>
</event>
<event>
12    6  0.9533401E-008  0.1342586E+04  0.7818608E-02  0.8996460E-01
         -1   -1    0    0    0  501 -0.00000000000E+00  0.00000000000E+00  0.65232943976E+03  0.65232943976E+03  0.00000000000E+00 0.  1.
          2   -1    0    0  501    0  0.00000000000E+00 -0.00000000000E+00 -0.69080757874E+03  0.69080757874E+03  0.00000000000E+00 0. -1.
         24    2    1    2    0    0  0.13315021890E+03  0.74393821066E+02 -0.34076347781E+03  0.38202089204E+03  0.80974025106E+02 0.  0.
        254    2    1    2    0    0 -0.13315021890E+03 -0.74393821066E+02  0.30228533883E+03  0.96111612645E+03  0.89950228519E+03 0.  0.
         23    2    4    4    0    0  0.76832089231E+02 -0.22596635552E+03 -0.24252955985E+03  0.35098032504E+03  0.86038580902E+02 0.  0.
         23    2    4    4    0    0 -0.20998230813E+03  0.15157253445E+03  0.54481489867E+03  0.61013580141E+03  0.91518410288E+02 0.  0.
          2    1    3    3  502    0  0.13617269041E+03  0.85754865392E+02 -0.31820849772E+03  0.35658595959E+03  0.00000000000E+00 0. -1.
         -1    1    3    3    0  502 -0.30224715119E+01 -0.11361044326E+02 -0.22554980087E+02  0.25434932454E+02  0.00000000000E+00 0.  1.
         11    1    5    5    0    0  0.23413761921E+02 -0.18452741830E+03 -0.18201235463E+03  0.26024424987E+03  0.00000000000E+00 0. -1.
        -11    1    5    5    0    0  0.53418327310E+02 -0.41438937223E+02 -0.60517205214E+02  0.90736075172E+02  0.00000000000E+00 0.  1.
          3    1    6    6  503    0 -0.14594996170E+03  0.15165338520E+03  0.40876845791E+03  0.45977363207E+03  0.00000000000E+00 0. -1.
         -3    1    6    6    0  503 -0.64032346428E+02 -0.80850744089E-01  0.13604644076E+03  0.15036216935E+03  0.00000000000E+00 0.  1.
<mgrwt>
<rscale>  0 0.13425857E+04</rscale>
<asrwt>0</asrwt>
<pdfrwt beam="1">  1        2 0.10627809E+00 0.13425857E+04</pdfrwt>
<pdfrwt beam="2">  1       -1 0.10035838E+00 0.13425857E+04</pdfrwt>
<totfact> 0.43989340E+01</totfact>
</mgrwt>
</event>
<event>
12    6  0.9533401E-008  0.2739385E+04  0.7818608E-02  0.8322338E-01
          2   -1    0    0  501    0  0.00000000000E+00  0.00000000000E+00  0.24309955788E+04  0.24309955788E+04  0.00000000000E+00 0. -1.
         -1   -1    0    0    0  501 -0.00000000000E+00 -0.00000000000E+00 -0.77172373037E+03  0.77172373037E+03  0.00000000000E+00 0.  1.
         24    2    1    2    0    0 -0.58998628113E+03  0.38664529561E+03 -0.42540664828E+03  0.82714077156E+03  0.74917574884E+02 0.  0.
        254    2    1    2    0    0  0.58998628113E+03 -0.38664529561E+03  0.20846784967E+04  0.23755785376E+04  0.89437718958E+03 0.  0.
         23    2    4    4    0    0  0.40881432867E+03  0.23264902135E+03  0.10219779900E+04  0.11289643161E+04  0.94163116144E+02 0.  0.
         23    2    4    4    0    0  0.18117195246E+03 -0.61929431696E+03  0.10627005067E+04  0.12466142216E+04  0.91465419955E+02 0.  0.
          2    1    3    3  502    0 -0.14517144554E+03  0.84257075699E+02 -0.66607403975E+02  0.18058391310E+03  0.00000000000E+00 0. -1.
         -1    1    3    3    0  502 -0.44481483559E+03  0.30238821991E+03 -0.35879924431E+03  0.64655685846E+03  0.00000000000E+00 0.  1.
         11    1    5    5    0    0  0.83719804506E+02  0.13883733520E+02  0.13760714812E+03  0.16167093411E+03  0.00000000000E+00 0. -1.
        -11    1    5    5    0    0  0.32509452416E+03  0.21876528783E+03  0.88437084191E+03  0.96729338198E+03  0.00000000000E+00 0.  1.
          3    1    6    6  503    0  0.39842010557E+02 -0.57809738237E+02  0.15214875633E+03  0.16756669029E+03  0.00000000000E+00 0. -1.
         -3    1    6    6    0  503  0.14132994190E+03 -0.56148457873E+03  0.91055175037E+03  0.10790475313E+04  0.00000000000E+00 0.  1.
<mgrwt>
<rscale>  0 0.27393846E+04</rscale>
<asrwt>0</asrwt>
<pdfrwt beam="1">  1        2 0.37399932E+00 0.27393846E+04</pdfrwt>
<pdfrwt beam="2">  1       -1 0.11872673E+00 0.27393846E+04</pdfrwt>
<totfact> 0.24104768E+00</totfact>
</mgrwt>
</event>
<event>
12    6  0.9533401E-008  0.1229878E+04  0.7818608E-02  0.9087099E-01
          2   -1    0    0  501    0  0.00000000000E+00  0.00000000000E+00  0.87948857950E+03  0.87948857950E+03  0.00000000000E+00 0. -1.
         -1   -1    0    0    0  501 -0.00000000000E+00 -0.00000000000E+00 -0.42996596597E+03  0.42996596597E+03  0.00000000000E+00 0.  1.
         24    2    1    2    0    0 -0.24705575373E+03  0.13603038715E+03  0.16118188094E+03  0.33455028340E+03  0.80021757679E+02 0.  0.
        254    2    1    2    0    0  0.24705575373E+03 -0.13603038715E+03  0.28834073259E+03  0.97490426208E+03  0.88755683224E+03 0.  0.
         23    2    4    4    0    0  0.29775659640E+03  0.27554895818E+03 -0.66738468376E+02  0.42115484726E+03  0.91275205564E+02 0.  0.
         23    2    4    4    0    0 -0.50700842676E+02 -0.41157934533E+03  0.35507920097E+03  0.55374941482E+03  0.92677087272E+02 0.  0.
          4    1    3    3  502    0 -0.22481576517E+02 -0.10088793685E+02  0.19790645436E+02  0.31604978841E+02  0.00000000000E+00 0. -1.
         -3    1    3    3    0  502 -0.22457417721E+03  0.14611918084E+03  0.14139123550E+03  0.30294530456E+03  0.00000000000E+00 0.  1.
         11    1    5    5    0    0  0.19094879712E+03  0.17561129050E+03 -0.86697980559E+02  0.27352752751E+03  0.00000000000E+00 0. -1.
        -11    1    5    5    0    0  0.10680779928E+03  0.99937667678E+02  0.19959512183E+02  0.14762731974E+03  0.00000000000E+00 0.  1.
          3    1    6    6  503    0 -0.32563041885E+02 -0.38522241011E+03  0.29725960560E+03  0.48766784810E+03  0.00000000000E+00 0. -1.
         -3    1    6    6    0  503 -0.18137800791E+02 -0.26356935218E+02  0.57819595375E+02  0.66081566726E+02  0.00000000000E+00 0.  1.
<mgrwt>
<rscale>  0 0.12298783E+04</rscale>
<asrwt>0</asrwt>
<pdfrwt beam="1">  1        2 0.13530594E+00 0.12298783E+04</pdfrwt>
<pdfrwt beam="2">  1       -1 0.66148610E-01 0.12298783E+04</pdfrwt>
<totfact> 0.78841085E+01</totfact>
</mgrwt>
</event>
<event>
12    6  0.9533401E-008  0.2980354E+04  0.7818608E-02  0.8249363E-01
          2   -1    0    0  501    0  0.00000000000E+00  0.00000000000E+00  0.27626080188E+04  0.27626080188E+04  0.00000000000E+00 0. -1.
         -1   -1    0    0    0  501 -0.00000000000E+00 -0.00000000000E+00 -0.80381583584E+03  0.80381583584E+03  0.00000000000E+00 0.  1.
         24    2    1    2    0    0  0.12948570390E+04 -0.20677722571E+03  0.45385577885E+03  0.13897162341E+04  0.76906246783E+02 0.  0.
        254    2    1    2    0    0 -0.12948570390E+04  0.20677722571E+03  0.15049364041E+04  0.21767076205E+04  0.86822284706E+03 0.  0.
         23    2    4    4    0    0 -0.11193256609E+04  0.32310643078E+03  0.15525475485E+04  0.19431600901E+04  0.90440836306E+02 0.  0.
         23    2    4    4    0    0 -0.17553137813E+03 -0.11632920507E+03 -0.47611144344E+02  0.23354753039E+03  0.89072325797E+02 0.  0.
          4    1    3    3  502    0  0.79215594053E+03 -0.13131826415E+03  0.23841769906E+03  0.83761478010E+03  0.00000000000E+00 0. -1.
         -3    1    3    3    0  502  0.50270109851E+03 -0.75458961564E+02  0.21543807978E+03  0.55210145403E+03  0.00000000000E+00 0.  1.
         11    1    5    5    0    0 -0.54592534591E+02  0.12180973631E+02  0.11065056417E+03  0.12398495192E+03  0.00000000000E+00 0.  1.
        -11    1    5    5    0    0 -0.10647331263E+04  0.31092545715E+03  0.14418969843E+04  0.18191751382E+04  0.00000000000E+00 0. -1.
          1    1    6    6  503    0 -0.15239830661E+03 -0.91956701083E+02 -0.34117347846E+01  0.17802505067E+03  0.00000000000E+00 0. -1.
         -1    1    6    6    0  503 -0.23133071525E+02 -0.24372503983E+02 -0.44199409559E+02  0.55522479718E+02  0.00000000000E+00 0.  1.
<mgrwt>
<rscale>  0 0.29803544E+04</rscale>
<asrwt>0</asrwt>
<pdfrwt beam="1">  1        2 0.42501661E+00 0.29803544E+04</pdfrwt>
<pdfrwt beam="2">  1       -1 0.12366398E+00 0.29803544E+04</pdfrwt>
<totfact> 0.13635452E+00</totfact>
</mgrwt>
</event>
<event>
12    6  0.9533401E-008  0.1257666E+04  0.7818608E-02  0.9063827E-01
          2   -1    0    0  501    0  0.00000000000E+00  0.00000000000E+00  0.79420608841E+03  0.79420608841E+03  0.00000000000E+00 0. -1.
         -1   -1    0    0    0  501 -0.00000000000E+00 -0.00000000000E+00 -0.49789493928E+03  0.49789493928E+03  0.00000000000E+00 0.  1.
         24    2    1    2    0    0 -0.16301711605E+03  0.94823276047E+02 -0.16294822046E+03  0.26128120187E+03  0.78420087304E+02 0.  0.
        254    2    1    2    0    0  0.16301711605E+03 -0.94823276047E+02  0.45925936960E+03  0.10308198258E+04  0.90338491848E+03 0.  0.
         23    2    4    4    0    0  0.31137199148E+03 -0.33263721456E+03 -0.21837229239E+02  0.46496405157E+03  0.90081469135E+02 0.  0.
         23    2    4    4    0    0 -0.14835487544E+03  0.23781393851E+03  0.48109659884E+03  0.56585577425E+03  0.10086714738E+03 0.  0.
          2    1    3    3  502    0 -0.18506264972E+02 -0.89623125532E+01 -0.40122389481E+02  0.45084487656E+02  0.00000000000E+00 0. -1.
         -1    1    3    3    0  502 -0.14451085107E+03  0.10378558860E+03 -0.12282583098E+03  0.21619671421E+03  0.00000000000E+00 0.  1.
         11    1    5    5    0    0  0.24487940797E+03 -0.30504953263E+03 -0.58560213024E+01  0.39122299880E+03  0.00000000000E+00 0. -1.
        -11    1    5    5    0    0  0.66492583516E+02 -0.27587681934E+02 -0.15981207937E+02  0.73741052774E+02  0.00000000000E+00 0.  1.
          3    1    6    6  503    0 -0.16153109931E+03  0.23353818520E+03  0.46135985175E+03  0.54174282903E+03  0.00000000000E+00 0. -1.
         -3    1    6    6    0  503  0.13176223871E+02  0.42757533114E+01  0.19736747088E+02  0.24112945226E+02  0.00000000000E+00 0.  1.
<mgrwt>
<rscale>  0 0.12576664E+04</rscale>
<asrwt>0</asrwt>
<pdfrwt beam="1">  1        2 0.12218555E+00 0.12576664E+04</pdfrwt>
<pdfrwt beam="2">  1       -1 0.76599221E-01 0.12576664E+04</pdfrwt>
<totfact> 0.66789477E+01</totfact>
</mgrwt>
</event>
<event>
12    6  0.9533401E-008  0.2827875E+04  0.7818608E-02  0.8294666E-01
         -1   -1    0    0    0  501 -0.00000000000E+00  0.00000000000E+00  0.11959887047E+04  0.11959887047E+04  0.00000000000E+00 0.  1.
          2   -1    0    0  501    0  0.00000000000E+00 -0.00000000000E+00 -0.16716038184E+04  0.16716038184E+04  0.00000000000E+00 0. -1.
         24    2    1    2    0    0 -0.44528300281E+03  0.82927672294E+03  0.64914843050E+03  0.11462615281E+04  0.80900989904E+02 0.  0.
        254    2    1    2    0    0  0.44528300281E+03 -0.82927672294E+03 -0.11247635442E+04  0.17213309950E+04  0.90106077937E+03 0.  0.
         23    2    4    4    0    0  0.54635831615E+03 -0.29756688901E+03 -0.96057903724E+03  0.11484710077E+04  0.96021381649E+02 0.  0.
         23    2    4    4    0    0 -0.10107531334E+03 -0.53170983393E+03 -0.16418450696E+03  0.57285998725E+03  0.90996957142E+02 0.  0.
          4    1    3    3  502    0 -0.24108289037E+02  0.40520527978E+02  0.56215778009E+02  0.73371223822E+02  0.00000000000E+00 0. -1.
         -3    1    3    3    0  502 -0.42117471377E+03  0.78875619496E+03  0.59293265249E+03  0.10728903043E+04  0.00000000000E+00 0.  1.
         11    1    5    5    0    0  0.84744508903E+02 -0.67851154589E+02 -0.11547540932E+03  0.15849284251E+03  0.00000000000E+00 0.  1.
        -11    1    5    5    0    0  0.46161380725E+03 -0.22971573443E+03 -0.84510362792E+03  0.98997816522E+03  0.00000000000E+00 0. -1.
          1    1    6    6  503    0 -0.10245202321E+03 -0.53276999014E+03 -0.15603011663E+03  0.56452252103E+03  0.00000000000E+00 0. -1.
         -1    1    6    6    0  503  0.13767098665E+01  0.10601562196E+01 -0.81543903326E+01  0.83374662196E+01  0.00000000000E+00 0.  1.
<mgrwt>
<rscale>  0 0.28278750E+04</rscale>
<asrwt>0</asrwt>
<pdfrwt beam="1">  1        2 0.25716982E+00 0.28278750E+04</pdfrwt>
<pdfrwt beam="2">  1       -1 0.18399826E+00 0.28278750E+04</pdfrwt>
<totfact> 0.19585745E+00</totfact>
</mgrwt>
</event>
<event>
12    6  0.9533401E-008  0.1124889E+04  0.7818608E-02  0.9181267E-01
          2   -1    0    0  501    0  0.00000000000E+00  0.00000000000E+00  0.18122213624E+03  0.18122213624E+03  0.00000000000E+00 0. -1.
         -1   -1    0    0    0  501 -0.00000000000E+00 -0.00000000000E+00 -0.17456127880E+04  0.17456127880E+04  0.00000000000E+00 0.  1.
         24    2    1    2    0    0  0.88910509264E+02 -0.76721338575E+01 -0.59087807761E+03  0.60359423001E+03  0.85000891821E+02 0.  0.
        254    2    1    2    0    0 -0.88910509264E+02  0.76721338575E+01 -0.97351257418E+03  0.13232406943E+04  0.89178207122E+03 0.  0.
         23    2    4    4    0    0 -0.56754636160E+02  0.24320950557E+03 -0.10298630994E+04  0.10635231752E+04  0.89953256556E+02 0.  0.
         23    2    4    4    0    0 -0.32155873104E+02 -0.23553737171E+03  0.56350525195E+02  0.25971751908E+03  0.88124652503E+02 0.  0.
          4    1    3    3  502    0  0.12119092385E+02 -0.95433302172E+00 -0.58166681343E+01  0.13476526999E+02  0.00000000000E+00 0. -1.
         -3    1    3    3    0  502  0.76791416879E+02 -0.67178008358E+01 -0.58506140947E+03  0.59011770301E+03  0.00000000000E+00 0.  1.
         11    1    5    5    0    0 -0.42461701598E+02  0.10068359844E+03 -0.61488748932E+03  0.62452126274E+03  0.00000000000E+00 0. -1.
        -11    1    5    5    0    0 -0.14292934562E+02  0.14252590713E+03 -0.41497561005E+03  0.43900191243E+03  0.00000000000E+00 0.  1.
          4    1    6    6  503    0 -0.48157748870E+02 -0.18765174406E+03  0.72277862656E+02  0.20677629278E+03  0.00000000000E+00 0. -1.
         -4    1    6    6    0  503  0.16001875766E+02 -0.47885627645E+02 -0.15927337461E+02  0.52941226295E+02  0.00000000000E+00 0.  1.
<mgrwt>
<rscale>  0 0.11248888E+04</rscale>
<asrwt>0</asrwt>
<pdfrwt beam="1">  1        2 0.27880328E-01 0.11248888E+04</pdfrwt>
<pdfrwt beam="2">  1       -1 0.26855582E+00 0.11248888E+04</pdfrwt>
<totfact> 0.11691357E+01</totfact>
</mgrwt>
</event>
<event>
12    6  0.9533401E-008  0.3778631E+04  0.7818608E-02  0.8050756E-01
         -1   -1    0    0    0  501 -0.00000000000E+00  0.00000000000E+00  0.12202770662E+04  0.12202770662E+04  0.00000000000E+00 0.  1.
          2   -1    0    0  501    0  0.00000000000E+00 -0.00000000000E+00 -0.29251655551E+04  0.29251655551E+04  0.00000000000E+00 0. -1.
         24    2    1    2    0    0  0.99116904158E+03  0.19415229574E+03 -0.24366581072E+04  0.26389036928E+04  0.79992410747E+02 0.  0.
        254    2    1    2    0    0 -0.99116904158E+03 -0.19415229574E+03  0.73176961837E+03  0.15065389285E+04  0.84502164805E+03 0.  0.
         23    2    4    4    0    0  0.34036374713E+02  0.10820051429E+03  0.32995185781E+03  0.36110428782E+03  0.93071220638E+02 0.  0.
         23    2    4    4    0    0 -0.10252054163E+04 -0.30235281003E+03  0.40181776056E+03  0.11454346406E+04  0.89997977502E+02 0.  0.
          2    1    3    3  502    0  0.74674435424E+03  0.11675403502E+03 -0.17682131393E+04  0.19229759076E+04  0.00000000000E+00 0. -1.
         -1    1    3    3    0  502  0.24442468734E+03  0.77398260727E+02 -0.66844496792E+03  0.71592778524E+03  0.00000000000E+00 0.  1.
         11    1    5    5    0    0  0.42839761241E+02  0.87670624264E+02  0.32343743060E+03  0.33783598834E+03  0.00000000000E+00 0.  1.
        -11    1    5    5    0    0 -0.88033865284E+01  0.20529890023E+02  0.65144272081E+01  0.23268299478E+02  0.00000000000E+00 0. -1.
          3    1    6    6  503    0 -0.43638057810E+02  0.52757328290E+01  0.18504245725E+02  0.47691933869E+02  0.00000000000E+00 0. -1.
         -3    1    6    6    0  503 -0.98156735849E+03 -0.30762854286E+03  0.38331351483E+03  0.10977427068E+04  0.00000000000E+00 0.  1.
<mgrwt>
<rscale>  0 0.37786307E+04</rscale>
<asrwt>0</asrwt>
<pdfrwt beam="1">  1        2 0.45002546E+00 0.37786307E+04</pdfrwt>
<pdfrwt beam="2">  1       -1 0.18773494E+00 0.37786307E+04</pdfrwt>
<totfact> 0.32397616E-01</totfact>
</mgrwt>
</event>
<event>
12    6  0.9533401E-008  0.1739019E+04  0.7818608E-02  0.8739418E-01
         -1   -1    0    0    0  501 -0.00000000000E+00  0.00000000000E+00  0.43688596851E+03  0.43688596851E+03  0.00000000000E+00 0.  1.
          2   -1    0    0  501    0  0.00000000000E+00 -0.00000000000E+00 -0.17305353963E+04  0.17305353963E+04  0.00000000000E+00 0. -1.
         24    2    1    2    0    0  0.23587489844E+03 -0.58435296477E+03 -0.47123549856E+03  0.79095989123E+03  0.80307529443E+02 0.  0.
        254    2    1    2    0    0 -0.23587489844E+03  0.58435296477E+03 -0.82241392919E+03  0.13764614735E+04  0.90618770794E+03 0.  0.
         23    2    4    4    0    0  0.23963716745E+02 -0.28345765948E+02 -0.68290664643E+03  0.68991463873E+03  0.90790852058E+02 0.  0.
         23    2    4    4    0    0 -0.25983861519E+03  0.61269873072E+03 -0.13950728276E+03  0.68654683480E+03  0.94701815541E+02 0.  0.
          4    1    3    3  502    0  0.20801872224E+03 -0.44593871253E+03 -0.33921125836E+03  0.59765993837E+03  0.00000000000E+00 0. -1.
         -3    1    3    3    0  502  0.27856176201E+02 -0.13841425224E+03 -0.13202424020E+03  0.19329995286E+03  0.00000000000E+00 0.  1.
         11    1    5    5    0    0 -0.13445594819E+02 -0.29172171589E+02 -0.85460133941E+02  0.91297503298E+02  0.00000000000E+00 0.  1.
        -11    1    5    5    0    0  0.37409311564E+02  0.82640564065E+00 -0.59744651249E+03  0.59861713543E+03  0.00000000000E+00 0. -1.
          4    1    6    6  503    0 -0.23315276877E+03  0.58810377387E+03 -0.11565564404E+03  0.64311934385E+03  0.00000000000E+00 0. -1.
         -4    1    6    6    0  503 -0.26685846422E+02  0.24594956845E+02 -0.23851638715E+02  0.43427490957E+02  0.00000000000E+00 0.  1.
<mgrwt>
<rscale>  0 0.17390188E+04</rscale>
<asrwt>0</asrwt>
<pdfrwt beam="1">  1        2 0.26623621E+00 0.17390188E+04</pdfrwt>
<pdfrwt beam="2">  1       -1 0.67213226E-01 0.17390188E+04</pdfrwt>
<totfact> 0.22848185E+01</totfact>
</mgrwt>
</event>
<event>
12    6  0.9533401E-008  0.1355483E+04  0.7818608E-02  0.8986688E-01
         -3   -1    0    0    0  501 -0.00000000000E+00  0.00000000000E+00  0.42030182019E+03  0.42030182019E+03  0.00000000000E+00 0.  1.
          4   -1    0    0  501    0  0.00000000000E+00 -0.00000000000E+00 -0.10928656730E+04  0.10928656730E+04  0.00000000000E+00 0. -1.
         24    2    1    2    0    0  0.14081485915E+03  0.32131694369E+03 -0.32037261867E+03  0.48187224572E+03  0.80553358361E+02 0.  0.
        254    2    1    2    0    0 -0.14081485915E+03 -0.32131694369E+03 -0.35219123419E+03  0.10312952475E+04  0.90358055492E+03 0.  0.
         23    2    4    4    0    0 -0.18452196658E+03  0.14527576487E+02  0.25582277391E+03  0.32939436191E+03  0.93786712139E+02 0.  0.
         23    2    4    4    0    0  0.43707107430E+02 -0.33584452018E+03 -0.60801400810E+03  0.70190088560E+03  0.91005308593E+02 0.  0.
          2    1    3    3  502    0  0.14664410274E+03  0.32202532372E+03 -0.31272752707E+03  0.47223226084E+03  0.00000000000E+00 0. -1.
         -1    1    3    3    0  502 -0.58292435904E+01 -0.70838002722E+00 -0.76450915918E+01  0.96399848831E+01  0.00000000000E+00 0.  1.
         11    1    5    5    0    0  0.14328873547E+01 -0.66370779723E+01 -0.49566840131E+01  0.84067048590E+01  0.00000000000E+00 0. -1.
        -11    1    5    5    0    0 -0.18595485394E+03  0.21164654459E+02  0.26077945792E+03  0.32098765705E+03  0.00000000000E+00 0.  1.
          4    1    6    6  503    0  0.46786929578E+02 -0.21895243075E+03 -0.31541686472E+03  0.38680354479E+03  0.00000000000E+00 0. -1.
         -4    1    6    6    0  503 -0.30798221488E+01 -0.11689208943E+03 -0.29259714338E+03  0.31509734082E+03  0.00000000000E+00 0.  1.
<mgrwt>
<rscale>  0 0.13554828E+04</rscale>
<asrwt>0</asrwt>
<pdfrwt beam="1">  1        4 0.16813318E+00 0.13554828E+04</pdfrwt>
<pdfrwt beam="2">  1       -3 0.64661819E-01 0.13554828E+04</pdfrwt>
<totfact> 0.11271643E+00</totfact>
</mgrwt>
</event>
<event>
12    6  0.9533401E-008  0.1436611E+04  0.7818608E-02  0.8927736E-01
          2   -1    0    0  501    0  0.00000000000E+00  0.00000000000E+00  0.21628542207E+04  0.21628542207E+04  0.00000000000E+00 0. -1.
         -1   -1    0    0    0  501 -0.00000000000E+00 -0.00000000000E+00 -0.23855628886E+03  0.23855628886E+03  0.00000000000E+00 0.  1.
         24    2    1    2    0    0  0.11232017598E+03  0.22543907748E+03  0.19112658488E+01  0.26395138928E+03  0.78918206877E+02 0.  0.
        254    2    1    2    0    0 -0.11232017598E+03 -0.22543907748E+03  0.19223866660E+04  0.21374591203E+04  0.89984576330E+03 0.  0.
         23    2    4    4    0    0  0.24012966856E+03 -0.39044614372E+03  0.62890026073E+03  0.78366588299E+03  0.92229221772E+02 0.  0.
         23    2    4    4    0    0 -0.35244984454E+03  0.16500706623E+03  0.12934864052E+04  0.13537932373E+04  0.90558400764E+02 0.  0.
          4    1    3    3  502    0  0.70650327419E+02  0.13994634853E+03  0.39527926783E+02  0.16167531113E+03  0.00000000000E+00 0. -1.
         -3    1    3    3    0  502  0.41669848563E+02  0.85492728949E+02 -0.37616660934E+02  0.10227607815E+03  0.00000000000E+00 0.  1.
         11    1    5    5    0    0  0.87991863543E+02 -0.16530817816E+03  0.18522766769E+03  0.26339827390E+03  0.00000000000E+00 0. -1.
        -11    1    5    5    0    0  0.15213780501E+03 -0.22513796556E+03  0.44367259304E+03  0.52026760909E+03  0.00000000000E+00 0.  1.
          2    1    6    6  503    0 -0.33174428795E+03  0.14050918138E+03  0.10953680160E+04  0.11530950495E+04  0.00000000000E+00 0.  1.
         -2    1    6    6    0  503 -0.20705556584E+02  0.24497884855E+02  0.19811838920E+03  0.20069818777E+03  0.00000000000E+00 0. -1.
<mgrwt>
<rscale>  0 0.14366106E+04</rscale>
<asrwt>0</asrwt>
<pdfrwt beam="1">  1        2 0.33274679E+00 0.14366106E+04</pdfrwt>
<pdfrwt beam="2">  1       -1 0.36700969E-01 0.14366106E+04</pdfrwt>
<totfact> 0.42728583E+01</totfact>
</mgrwt>
</event>
<event>
12    6  0.9533401E-008  0.2518830E+04  0.7818608E-02  0.8396308E-01
          2   -1    0    0  501    0  0.00000000000E+00  0.00000000000E+00  0.20898003527E+04  0.20898003527E+04  0.00000000000E+00 0. -1.
         -1   -1    0    0    0  501 -0.00000000000E+00 -0.00000000000E+00 -0.75898436922E+03  0.75898436922E+03  0.00000000000E+00 0.  1.
         24    2    1    2    0    0  0.36164940504E+03  0.18609745591E+03 -0.57071195054E+03  0.70507197240E+03  0.77406721338E+02 0.  0.
        254    2    1    2    0    0 -0.36164940504E+03 -0.18609745591E+03  0.19015279340E+04  0.21437127495E+04  0.90237094000E+03 0.  0.
         23    2    4    4    0    0  0.11201029665E+03  0.15484634195E+02  0.14370331723E+04  0.14446238655E+04  0.95329396498E+02 0.  0.
         23    2    4    4    0    0 -0.47365970169E+03 -0.20158209010E+03  0.46449476165E+03  0.69908888403E+03  0.89336622456E+02 0.  0.
          4    1    3    3  502    0  0.13624671452E+03  0.91159167375E+02 -0.17427774374E+03  0.23926113971E+03  0.00000000000E+00 0. -1.
         -3    1    3    3    0  502  0.22540269052E+03  0.94938288533E+02 -0.39643420680E+03  0.46581083268E+03  0.00000000000E+00 0.  1.
         11    1    5    5    0    0 -0.30731001288E+01  0.31547891072E+02  0.30523826133E+03  0.30687963366E+03  0.00000000000E+00 0. -1.
        -11    1    5    5    0    0  0.11508339678E+03 -0.16063256877E+02  0.11317949110E+04  0.11377442318E+04  0.00000000000E+00 0.  1.
          4    1    6    6  503    0 -0.45439845524E+03 -0.16945750154E+03  0.43341840498E+03  0.65041933760E+03  0.00000000000E+00 0.  1.
         -4    1    6    6    0  503 -0.19261246458E+02 -0.32124588566E+02  0.31076356666E+02  0.48669546425E+02  0.00000000000E+00 0. -1.
<mgrwt>
<rscale>  0 0.25188297E+04</rscale>
<asrwt>0</asrwt>
<pdfrwt beam="1">  1        2 0.32150774E+00 0.25188297E+04</pdfrwt>
<pdfrwt beam="2">  1       -1 0.11676683E+00 0.25188297E+04</pdfrwt>
<totfact> 0.39905492E+00</totfact>
</mgrwt>
</event>
<event>
12    6  0.9533401E-008  0.1098106E+04  0.7818608E-02  0.9207040E-01
         -1   -1    0    0    0  501 -0.00000000000E+00  0.00000000000E+00  0.20772729794E+03  0.20772729794E+03  0.00000000000E+00 0.  1.
          2   -1    0    0  501    0  0.00000000000E+00 -0.00000000000E+00 -0.14512244410E+04  0.14512244410E+04  0.00000000000E+00 0. -1.
         24    2    1    2    0    0  0.35009425385E+02 -0.16183212520E+03 -0.34727260472E+03  0.39288969986E+03  0.79679091737E+02 0.  0.
        254    2    1    2    0    0 -0.35009425385E+02  0.16183212520E+03 -0.89622453831E+03  0.12660620390E+04  0.87879426887E+03 0.  0.
         23    2    4    4    0    0  0.19538912211E+03  0.16503693367E+03  0.58755743097E+02  0.27858314799E+03  0.93499917032E+02 0.  0.
         23    2    4    4    0    0 -0.23039854749E+03 -0.32048084641E+01 -0.95498028140E+03  0.98747889104E+03  0.10016716479E+03 0.  0.
          2    1    3    3  502    0  0.49898703536E+02 -0.15855616419E+03 -0.29693946223E+03  0.34029837209E+03  0.00000000000E+00 0. -1.
         -1    1    3    3    0  502 -0.14889278151E+02 -0.32759610065E+01 -0.50333142484E+02  0.52591327771E+02  0.00000000000E+00 0.  1.
         11    1    5    5    0    0  0.94779230595E+02  0.10502193465E+03  0.75319751336E+02  0.16026782039E+03  0.00000000000E+00 0. -1.
        -11    1    5    5    0    0  0.10060989151E+03  0.60014999014E+02 -0.16564008239E+02  0.11831532760E+03  0.00000000000E+00 0.  1.
          2    1    6    6  503    0 -0.15057072728E+03 -0.48145407582E+02 -0.65604175299E+03  0.67481872073E+03  0.00000000000E+00 0. -1.
         -2    1    6    6    0  503 -0.79827820211E+02  0.44940599118E+02 -0.29893852842E+03  0.31266017032E+03  0.00000000000E+00 0.  1.
<mgrwt>
<rscale>  0 0.10981055E+04</rscale>
<asrwt>0</asrwt>
<pdfrwt beam="1">  1        2 0.22326530E+00 0.10981055E+04</pdfrwt>
<pdfrwt beam="2">  1       -1 0.31958045E-01 0.10981055E+04</pdfrwt>
<totfact> 0.13957720E+02</totfact>
</mgrwt>
</event>
<event>
12    6  0.9533401E-008  0.3402323E+04  0.7818608E-02  0.8137336E-01
          2   -1    0    0  501    0  0.00000000000E+00  0.00000000000E+00  0.30258527695E+04  0.30258527695E+04  0.00000000000E+00 0. -1.
         -1   -1    0    0    0  501 -0.00000000000E+00 -0.00000000000E+00 -0.95640839285E+03  0.95640839285E+03  0.00000000000E+00 0.  1.
         24    2    1    2    0    0 -0.38840803817E+03 -0.68938019139E+03  0.25651116334E+04  0.26857919789E+04  0.87034530890E+02 0.  0.
        254    2    1    2    0    0  0.38840803817E+03  0.68938019139E+03 -0.49566725674E+03  0.12964691835E+04  0.89946676533E+03 0.  0.
         23    2    4    4    0    0 -0.11418343653E+03  0.41410284415E+03 -0.56114270225E+03  0.71250774400E+03  0.90923760716E+02 0.  0.
         23    2    4    4    0    0  0.50259147470E+03  0.27527734724E+03  0.65475445514E+02  0.58396143949E+03  0.91368049633E+02 0.  0.
          4    1    3    3  502    0 -0.37118258255E+03 -0.63737220925E+03  0.23112821508E+04  0.24261172732E+04  0.00000000000E+00 0. -1.
         -3    1    3    3    0  502 -0.17225455626E+02 -0.52007982139E+02  0.25382948267E+03  0.25967470574E+03  0.00000000000E+00 0.  1.
         11    1    5    5    0    0 -0.10857678819E+03  0.38674749923E+03 -0.55285052563E+03  0.68337855599E+03  0.00000000000E+00 0. -1.
        -11    1    5    5    0    0 -0.56066483469E+01  0.27355344916E+02 -0.82921766191E+01  0.29129188012E+02  0.00000000000E+00 0.  1.
          1    1    6    6  503    0  0.29719150585E+03  0.21098254139E+03  0.28491542044E+02  0.36557925527E+03  0.00000000000E+00 0. -1.
         -1    1    6    6    0  503  0.20539996886E+03  0.64294805851E+02  0.36983903470E+02  0.21838218421E+03  0.00000000000E+00 0.  1.
<mgrwt>
<rscale>  0 0.34023233E+04</rscale>
<asrwt>0</asrwt>
<pdfrwt beam="1">  1        2 0.46551581E+00 0.34023233E+04</pdfrwt>
<pdfrwt beam="2">  1       -1 0.14713975E+00 0.34023233E+04</pdfrwt>
<totfact> 0.57923002E-01</totfact>
</mgrwt>
</event>
<event>
12    6  0.9533401E-008  0.3325898E+04  0.7818608E-02  0.8156337E-01
          2   -1    0    0  501    0  0.00000000000E+00  0.00000000000E+00  0.28384465007E+04  0.28384465007E+04  0.00000000000E+00 0. -1.
         -1   -1    0    0    0  501 -0.00000000000E+00 -0.00000000000E+00 -0.97426533178E+03  0.97426533178E+03  0.00000000000E+00 0.  1.
         24    2    1    2    0    0  0.13177344275E+04 -0.72587723736E+03  0.12358018195E+04  0.19484473241E+04  0.76935377392E+02 0.  0.
        254    2    1    2    0    0 -0.13177344275E+04  0.72587723736E+03  0.62837934943E+03  0.18642645084E+04  0.90404632923E+03 0.  0.
         23    2    4    4    0    0 -0.51746102870E+03  0.77234001369E+03  0.21898121340E+03  0.95967552421E+03  0.93537837040E+02 0.  0.
         23    2    4    4    0    0 -0.80027339884E+03 -0.46462776338E+02  0.40939813603E+03  0.90458898423E+03  0.89878218364E+02 0.  0.
          2    1    3    3  502    0  0.10399189027E+04 -0.53754155896E+03  0.94970909537E+03  0.15074248298E+04  0.00000000000E+00 0. -1.
         -1    1    3    3    0  502  0.27781552485E+03 -0.18833567839E+03  0.28609272412E+03  0.44102249421E+03  0.00000000000E+00 0.  1.
         11    1    5    5    0    0 -0.62264706541E+02  0.15694695650E+03  0.43832039435E+02  0.17444336764E+03  0.00000000000E+00 0.  1.
        -11    1    5    5    0    0 -0.45519632216E+03  0.61539305720E+03  0.17514917396E+03  0.78523215656E+03  0.00000000000E+00 0. -1.
          4    1    6    6  503    0 -0.37335175905E+03 -0.80063966300E+01  0.23865873375E+03  0.44318577320E+03  0.00000000000E+00 0. -1.
         -4    1    6    6    0  503 -0.42692163978E+03 -0.38456379708E+02  0.17073940228E+03  0.46140321103E+03  0.00000000000E+00 0.  1.
<mgrwt>
<rscale>  0 0.33258984E+04</rscale>
<asrwt>0</asrwt>
<pdfrwt beam="1">  1        2 0.43668407E+00 0.33258984E+04</pdfrwt>
<pdfrwt beam="2">  1       -1 0.14988698E+00 0.33258984E+04</pdfrwt>
<totfact> 0.72493050E-01</totfact>
</mgrwt>
</event>
<event>
12    6  0.9533401E-008  0.3866837E+04  0.7818608E-02  0.8031962E-01
         -1   -1    0    0    0  501 -0.00000000000E+00  0.00000000000E+00  0.18114546543E+04  0.18114546543E+04  0.00000000000E+00 0.  1.
          2   -1    0    0  501    0  0.00000000000E+00 -0.00000000000E+00 -0.20635943052E+04  0.20635943052E+04  0.00000000000E+00 0. -1.
         24    2    1    2    0    0  0.11710453936E+04  0.13582145869E+04 -0.47908453848E+03  0.18579503197E+04  0.79769778339E+02 0.  0.
        254    2    1    2    0    0 -0.11710453936E+04 -0.13582145869E+04  0.22694488764E+03  0.20170986398E+04  0.89503562094E+03 0.  0.
         23    2    4    4    0    0 -0.11567863216E+04 -0.10000843511E+04  0.43537370392E+03  0.15925723415E+04  0.91722940555E+02 0.  0.
         23    2    4    4    0    0 -0.14259071970E+02 -0.35813023583E+03 -0.20842881628E+03  0.42452629826E+03  0.91210851959E+02 0.  0.
          4    1    3    3  502    0  0.10786559596E+04  0.12327737089E+04 -0.41747703569E+03  0.16904191113E+04  0.00000000000E+00 0. -1.
         -3    1    3    3    0  502  0.92389434023E+02  0.12544087800E+03 -0.61607502790E+02  0.16753120841E+03  0.00000000000E+00 0.  1.
         11    1    5    5    0    0 -0.97883309735E+03 -0.87013663258E+03  0.40002593816E+03  0.13694059818E+04  0.00000000000E+00 0. -1.
        -11    1    5    5    0    0 -0.17795322426E+03 -0.12994771850E+03  0.35347765760E+02  0.22316635972E+03  0.00000000000E+00 0.  1.
          1    1    6    6  503    0 -0.31199079328E+02 -0.32712569829E+03 -0.20853925135E+03  0.38919561198E+03  0.00000000000E+00 0. -1.
         -1    1    6    6    0  503  0.16940007358E+02 -0.31004537539E+02  0.11043507199E+00  0.35330686283E+02  0.00000000000E+00 0.  1.
<mgrwt>
<rscale>  0 0.38668372E+04</rscale>
<asrwt>0</asrwt>
<pdfrwt beam="1">  1        2 0.31747605E+00 0.38668372E+04</pdfrwt>
<pdfrwt beam="2">  1       -1 0.27868533E+00 0.38668372E+04</pdfrwt>
<totfact> 0.25351515E-01</totfact>
</mgrwt>
</event>
<event>
12    6  0.9533401E-008  0.1671860E+04  0.7818608E-02  0.8777578E-01
         -1   -1    0    0    0  501 -0.00000000000E+00  0.00000000000E+00  0.17363535626E+03  0.17363535626E+03  0.00000000000E+00 0.  1.
          2   -1    0    0  501    0  0.00000000000E+00 -0.00000000000E+00 -0.40244045796E+04  0.40244045796E+04  0.00000000000E+00 0. -1.
         24    2    1    2    0    0 -0.98279592411E+02  0.40057389289E+03 -0.24272033526E+04  0.24633309204E+04  0.81023371693E+02 0.  0.
        254    2    1    2    0    0  0.98279592411E+02 -0.40057389289E+03 -0.14235658707E+04  0.17347090154E+04  0.90141957925E+03 0.  0.
         23    2    4    4    0    0  0.29686126730E+03  0.18770245536E+03 -0.54806166246E+03  0.65745646702E+03  0.92296242598E+02 0.  0.
         23    2    4    4    0    0 -0.19858167489E+03 -0.58827634825E+03 -0.87550420824E+03  0.10772525484E+04  0.91987449011E+02 0.  0.
          4    1    3    3  502    0 -0.67330042650E+02  0.35595572930E+03 -0.19828093976E+04  0.20156316437E+04  0.00000000000E+00 0. -1.
         -3    1    3    3    0  502 -0.30949549761E+02  0.44618163590E+02 -0.44439395501E+03  0.44769927675E+03  0.00000000000E+00 0.  1.
         11    1    5    5    0    0  0.10402804725E+03  0.53248784304E+02 -0.11096209763E+03  0.16115165142E+03  0.00000000000E+00 0. -1.
        -11    1    5    5    0    0  0.19283322005E+03  0.13445367106E+03 -0.43709956483E+03  0.49630481560E+03  0.00000000000E+00 0.  1.
          1    1    6    6  503    0 -0.18312053524E+01 -0.95124044435E+02 -0.16199374244E+03  0.18786673397E+03  0.00000000000E+00 0. -1.
         -1    1    6    6    0  503 -0.19675046954E+03 -0.49315230381E+03 -0.71351046581E+03  0.88938581439E+03  0.00000000000E+00 0.  1.
<mgrwt>
<rscale>  0 0.16718599E+04</rscale>
<asrwt>0</asrwt>
<pdfrwt beam="1">  1        2 0.61913914E+00 0.16718599E+04</pdfrwt>
<pdfrwt beam="2">  1       -1 0.26713133E-01 0.16718599E+04</pdfrwt>
<totfact> 0.45164475E+00</totfact>
</mgrwt>
</event>
<event>
12    6  0.9533401E-008  0.2222096E+04  0.7818608E-02  0.8509287E-01
         -1   -1    0    0    0  501 -0.00000000000E+00  0.00000000000E+00  0.44755269578E+03  0.44755269578E+03  0.00000000000E+00 0.  1.
          2   -1    0    0  501    0  0.00000000000E+00 -0.00000000000E+00 -0.27581722626E+04  0.27581722626E+04  0.00000000000E+00 0. -1.
         24    2    1    2    0    0  0.40922166303E+03  0.56931410923E+03 -0.97937313414E+02  0.71221437569E+03  0.77953031522E+02 0.  0.
        254    2    1    2    0    0 -0.40922166303E+03 -0.56931410923E+03 -0.22126822534E+04  0.24935105827E+04  0.91107153782E+03 0.  0.
         23    2    4    4    0    0 -0.43293835257E+03 -0.59624567890E+02 -0.37269556389E+03  0.58167327217E+03  0.91929897201E+02 0.  0.
         23    2    4    4    0    0  0.23716689541E+02 -0.50968954133E+03 -0.18399866895E+04  0.19118373105E+04  0.96046730253E+02 0.  0.
          4    1    3    3  502    0  0.12823080213E+03  0.24276339209E+03 -0.32382887304E+02  0.27645226449E+03  0.00000000000E+00 0. -1.
         -3    1    3    3    0  502  0.28099086090E+03  0.32655071714E+03 -0.65554426111E+02  0.43576211120E+03  0.00000000000E+00 0.  1.
         11    1    5    5    0    0 -0.26182432143E+03  0.95916441841E+01 -0.21715362637E+03  0.34029350916E+03  0.00000000000E+00 0. -1.
        -11    1    5    5    0    0 -0.17111403114E+03 -0.69216212074E+02 -0.15554193752E+03  0.24137976302E+03  0.00000000000E+00 0.  1.
          2    1    6    6  503    0 -0.10552784000E+02 -0.67996821000E+02 -0.15506855374E+03  0.16965018502E+03  0.00000000000E+00 0. -1.
         -2    1    6    6    0  503  0.34269473542E+02 -0.44169272033E+03 -0.16849181358E+04  0.17421871255E+04  0.00000000000E+00 0.  1.
<mgrwt>
<rscale>  0 0.22220958E+04</rscale>
<asrwt>0</asrwt>
<pdfrwt beam="1">  1        2 0.42433420E+00 0.22220958E+04</pdfrwt>
<pdfrwt beam="2">  1       -1 0.68854260E-01 0.22220958E+04</pdfrwt>
<totfact> 0.54331151E+00</totfact>
</mgrwt>
</event>
<event>
12    6  0.9533401E-008  0.1561894E+04  0.7818608E-02  0.8844306E-01
         -1   -1    0    0    0  501 -0.00000000000E+00  0.00000000000E+00  0.21342519036E+03  0.21342519036E+03  0.00000000000E+00 0.  1.
          2   -1    0    0  501    0  0.00000000000E+00 -0.00000000000E+00 -0.28575723487E+04  0.28575723487E+04  0.00000000000E+00 0. -1.
         24    2    1    2    0    0 -0.10289453821E+03  0.38566411970E+01 -0.18780820964E+04  0.18828094272E+04  0.84716107188E+02 0.  0.
        254    2    1    2    0    0  0.10289453821E+03 -0.38566411970E+01 -0.76606506201E+03  0.11881881119E+04  0.90240409481E+03 0.  0.
         23    2    4    4    0    0  0.15667472459E+03  0.42666193713E+03 -0.36987338012E+03  0.59323389824E+03  0.92372954794E+02 0.  0.
         23    2    4    4    0    0 -0.53780186383E+02 -0.43051857833E+03 -0.39619168189E+03  0.59495421365E+03  0.93616840376E+02 0.  0.
          4    1    3    3  502    0 -0.39865997041E+02 -0.33037176157E+02 -0.11259731003E+04  0.11271628877E+04  0.00000000000E+00 0. -1.
         -3    1    3    3    0  502 -0.63028541165E+02  0.36893817354E+02 -0.75210899606E+03  0.75564653954E+03  0.00000000000E+00 0.  1.
         11    1    5    5    0    0 -0.29816397033E+00  0.30624505833E+02 -0.56885888966E+02  0.64606142298E+02  0.00000000000E+00 0. -1.
        -11    1    5    5    0    0  0.15697288856E+03  0.39603743130E+03 -0.31298749115E+03  0.52862775594E+03  0.00000000000E+00 0.  1.
          3    1    6    6  503    0 -0.16769205178E+02 -0.15815455096E+02 -0.43789041786E+02  0.49485503359E+02  0.00000000000E+00 0. -1.
         -3    1    6    6    0  503 -0.37010981205E+02 -0.41470312323E+03 -0.35240264011E+03  0.54546871029E+03  0.00000000000E+00 0.  1.
<mgrwt>
<rscale>  0 0.15618936E+04</rscale>
<asrwt>0</asrwt>
<pdfrwt beam="1">  1        2 0.43962650E+00 0.15618936E+04</pdfrwt>
<pdfrwt beam="2">  1       -1 0.32834646E-01 0.15618936E+04</pdfrwt>
<totfact> 0.20423230E+01</totfact>
</mgrwt>
</event>
<event>
12    6  0.9533401E-008  0.2674956E+04  0.7818608E-02  0.8343177E-01
          2   -1    0    0  501    0  0.00000000000E+00  0.00000000000E+00  0.23679576893E+04  0.23679576893E+04  0.00000000000E+00 0. -1.
         -1   -1    0    0    0  501 -0.00000000000E+00 -0.00000000000E+00 -0.75543865469E+03  0.75543865469E+03  0.00000000000E+00 0.  1.
         24    2    1    2    0    0  0.75060470697E+03 -0.89525818823E+03  0.87736016977E+03  0.14632966370E+04  0.81126632917E+02 0.  0.
        254    2    1    2    0    0 -0.75060470697E+03  0.89525818823E+03  0.73515886483E+03  0.16600997070E+04  0.92226776531E+03 0.  0.
         23    2    4    4    0    0 -0.15455990634E+03  0.69024062841E+03  0.73451166095E+03  0.10235691343E+04  0.88687670840E+02 0.  0.
         23    2    4    4    0    0 -0.59604480063E+03  0.20501755981E+03  0.64720388157E+00  0.63653057265E+03  0.88708211908E+02 0.  0.
          2    1    3    3  502    0  0.39909940176E+03 -0.52215521924E+03  0.45876809981E+03  0.80149521201E+03  0.00000000000E+00 0. -1.
         -1    1    3    3    0  502  0.35150530520E+03 -0.37310296899E+03  0.41859206996E+03  0.66180142497E+03  0.00000000000E+00 0.  1.
         11    1    5    5    0    0 -0.34419603636E+01  0.19574216192E+03  0.19785810930E+03  0.27834272482E+03  0.00000000000E+00 0.  1.
        -11    1    5    5    0    0 -0.15111794597E+03  0.49449846649E+03  0.53665355165E+03  0.74522640953E+03  0.00000000000E+00 0. -1.
          2    1    6    6  503    0 -0.53191825079E+03  0.15901298341E+03  0.19001644403E+02  0.55550267047E+03  0.00000000000E+00 0.  1.
         -2    1    6    6    0  503 -0.64126549840E+02  0.46004576402E+02 -0.18354440522E+02  0.81027902177E+02  0.00000000000E+00 0. -1.
<mgrwt>
<rscale>  0 0.26749555E+04</rscale>
<asrwt>0</asrwt>
<pdfrwt beam="1">  1        2 0.36430118E+00 0.26749555E+04</pdfrwt>
<pdfrwt beam="2">  1       -1 0.11622133E+00 0.26749555E+04</pdfrwt>
<totfact> 0.27736221E+00</totfact>
</mgrwt>
</event>
<event>
12    6  0.9533401E-008  0.2393662E+04  0.7818608E-02  0.8441880E-01
          2   -1    0    0  501    0  0.00000000000E+00  0.00000000000E+00  0.14820582733E+04  0.14820582733E+04  0.00000000000E+00 0. -1.
         -1   -1    0    0    0  501 -0.00000000000E+00 -0.00000000000E+00 -0.96649655400E+03  0.96649655400E+03  0.00000000000E+00 0.  1.
         24    2    1    2    0    0  0.80496662148E+03  0.37580585205E+03 -0.29471128714E+03  0.93934915999E+03  0.79503468302E+02 0.  0.
        254    2    1    2    0    0 -0.80496662148E+03 -0.37580585205E+03  0.81027300644E+03  0.15092056673E+04  0.91211737245E+03 0.  0.
         23    2    4    4    0    0 -0.52179027265E+02 -0.38411797952E+03 -0.17409458581E+01  0.39824994013E+03  0.91272727839E+02 0.  0.
         23    2    4    4    0    0 -0.75278759422E+03  0.83121274658E+01  0.81201395230E+03  0.11109557272E+04  0.89987307699E+02 0.  0.
          4    1    3    3  502    0  0.36475459340E+03  0.20708094094E+03 -0.16144568295E+03  0.44943646720E+03  0.00000000000E+00 0. -1.
         -3    1    3    3    0  502  0.44021202808E+03  0.16872491111E+03 -0.13326560420E+03  0.48991269279E+03  0.00000000000E+00 0.  1.
         11    1    5    5    0    0 -0.27229284821E+02 -0.20591892590E+03  0.44590158732E+02  0.21244368725E+03  0.00000000000E+00 0. -1.
        -11    1    5    5    0    0 -0.24949742443E+02 -0.17819905361E+03 -0.46331104590E+02  0.18580625288E+03  0.00000000000E+00 0.  1.
          2    1    6    6  503    0 -0.13314049528E+03  0.33527803186E+02  0.12882920825E+03  0.18827498498E+03  0.00000000000E+00 0. -1.
         -2    1    6    6    0  503 -0.61964709894E+03 -0.25215675721E+02  0.68318474405E+03  0.92268074220E+03  0.00000000000E+00 0.  1.
<mgrwt>
<rscale>  0 0.23936618E+04</rscale>
<asrwt>0</asrwt>
<pdfrwt beam="1">  1        2 0.22800897E+00 0.23936618E+04</pdfrwt>
<pdfrwt beam="2">  1       -1 0.14869178E+00 0.23936618E+04</pdfrwt>
<totfact> 0.47575498E+00</totfact>
</mgrwt>
</event>
<event>
12    6  0.9533401E-008  0.1353755E+04  0.7818608E-02  0.8987990E-01
          2   -1    0    0  501    0  0.00000000000E+00  0.00000000000E+00  0.21300174912E+04  0.21300174912E+04  0.00000000000E+00 0. -1.
         -1   -1    0    0    0  501 -0.00000000000E+00 -0.00000000000E+00 -0.21509839061E+03  0.21509839061E+03  0.00000000000E+00 0.  1.
         24    2    1    2    0    0 -0.89414949164E+02 -0.95506379506E+02  0.11370861852E+04  0.11477981658E+04  0.85785401476E+02 0.  0.
        254    2    1    2    0    0  0.89414949164E+02  0.95506379506E+02  0.77783291534E+03  0.11973177160E+04  0.90079363186E+03 0.  0.
         23    2    4    4    0    0 -0.20609664505E+03 -0.45873848641E+02 -0.10382681550E+03  0.25215534352E+03  0.90675644803E+02 0.  0.
         23    2    4    4    0    0  0.29551159421E+03  0.14138022815E+03  0.88165973084E+03  0.94516237248E+03  0.93233889448E+02 0.  0.
          2    1    3    3  502    0 -0.92266601603E+02 -0.10576686900E+03  0.93961708634E+03  0.95004211764E+03  0.00000000000E+00 0. -1.
         -1    1    3    3    0  502  0.28516524386E+01  0.10260489489E+02  0.19746909890E+03  0.19775604817E+03  0.00000000000E+00 0.  1.
         11    1    5    5    0    0  0.89912744662E+01 -0.24765022553E+01  0.18753302524E+00  0.93279820209E+01  0.00000000000E+00 0. -1.
        -11    1    5    5    0    0 -0.21508791951E+03 -0.43397346385E+02 -0.10401434853E+03  0.24282736150E+03  0.00000000000E+00 0.  1.
          1    1    6    6  503    0  0.12758517329E+03  0.24652831859E+02  0.43325036610E+03  0.45231804993E+03  0.00000000000E+00 0. -1.
         -1    1    6    6    0  503  0.16792642092E+03  0.11672739629E+03  0.44840936474E+03  0.49284432255E+03  0.00000000000E+00 0.  1.
<mgrwt>
<rscale>  0 0.13537553E+04</rscale>
<asrwt>0</asrwt>
<pdfrwt beam="1">  1        2 0.32769498E+00 0.13537553E+04</pdfrwt>
<pdfrwt beam="2">  1       -1 0.33092062E-01 0.13537553E+04</pdfrwt>
<totfact> 0.54010242E+01</totfact>
</mgrwt>
</event>
<event>
12    6  0.9533401E-008  0.3049336E+04  0.7818608E-02  0.8229781E-01
          2   -1    0    0  501    0  0.00000000000E+00  0.00000000000E+00  0.25541541508E+04  0.25541541508E+04  0.00000000000E+00 0. -1.
         -1   -1    0    0    0  501 -0.00000000000E+00 -0.00000000000E+00 -0.91013035312E+03  0.91013035312E+03  0.00000000000E+00 0.  1.
         24    2    1    2    0    0  0.11760124820E+04  0.17911923290E+02  0.15973166627E+04  0.19852068803E+04  0.79370284704E+02 0.  0.
        254    2    1    2    0    0 -0.11760124820E+04 -0.17911923290E+02  0.46707135062E+02  0.14790776237E+04  0.89563545353E+03 0.  0.
         23    2    4    4    0    0  0.19042228264E+02  0.22993519623E+03  0.63616526035E+02  0.25507897996E+03  0.88235042424E+02 0.  0.
         23    2    4    4    0    0 -0.11950547102E+04 -0.24784711952E+03 -0.16909390973E+02  0.12239986437E+04  0.91119686056E+02 0.  0.
          4    1    3    3  502    0  0.84095775866E+03 -0.22910026068E+02  0.11344803273E+04  0.14123669616E+04  0.00000000000E+00 0. -1.
         -3    1    3    3    0  502  0.33505472330E+03  0.40821949357E+02  0.46283633536E+03  0.57283991873E+03  0.00000000000E+00 0.  1.
         11    1    5    5    0    0  0.20270085596E+02  0.17579899904E+03  0.85670253622E+02  0.19661016451E+03  0.00000000000E+00 0.  1.
        -11    1    5    5    0    0 -0.12278573324E+01  0.54136197186E+02 -0.22053727587E+02  0.58468815447E+02  0.00000000000E+00 0. -1.
          2    1    6    6  503    0 -0.90474203646E+02 -0.44049956192E+02  0.97359143769E+00  0.10063263907E+03  0.00000000000E+00 0. -1.
         -2    1    6    6    0  503 -0.11045805066E+04 -0.20379716332E+03 -0.17882982411E+02  0.11233660046E+04  0.00000000000E+00 0.  1.
<mgrwt>
<rscale>  0 0.30493365E+04</rscale>
<asrwt>0</asrwt>
<pdfrwt beam="1">  1        2 0.39294679E+00 0.30493365E+04</pdfrwt>
<pdfrwt beam="2">  1       -1 0.14002006E+00 0.30493365E+04</pdfrwt>
<totfact> 0.13139955E+00</totfact>
</mgrwt>
</event>
<event>
12    6  0.9533401E-008  0.3708666E+04  0.7818608E-02  0.8066044E-01
          2   -1    0    0  501    0  0.00000000000E+00  0.00000000000E+00  0.38920500204E+04  0.38920500204E+04  0.00000000000E+00 0. -1.
         -1   -1    0    0    0  501 -0.00000000000E+00 -0.00000000000E+00 -0.88348066825E+03  0.88348066825E+03  0.00000000000E+00 0.  1.
         24    2    1    2    0    0  0.76129349249E+03  0.11794687532E+04  0.27391744692E+04  0.30789897384E+04  0.79916926413E+02 0.  0.
        254    2    1    2    0    0 -0.76129349249E+03 -0.11794687532E+04  0.26939488293E+03  0.16965409502E+04  0.91376324679E+03 0.  0.
         23    2    4    4    0    0  0.10248718542E+03 -0.15248217058E+03  0.28475494582E+03  0.35123888628E+03  0.92352263365E+02 0.  0.
         23    2    4    4    0    0 -0.86378067790E+03 -0.10269865827E+04 -0.15360062887E+02  0.13453020639E+04  0.93718787695E+02 0.  0.
          4    1    3    3  502    0  0.43440450659E+03  0.73609632349E+03  0.16243799331E+04  0.18355258755E+04  0.00000000000E+00 0. -1.
         -3    1    3    3    0  502  0.32688898589E+03  0.44337242975E+03  0.11147945361E+04  0.12434638629E+04  0.00000000000E+00 0.  1.
         11    1    5    5    0    0  0.11780305711E+03 -0.13961983432E+03  0.23526625832E+03  0.29786149584E+03  0.00000000000E+00 0. -1.
        -11    1    5    5    0    0 -0.15315871695E+02 -0.12862336257E+02  0.49488687505E+02  0.53377390445E+02  0.00000000000E+00 0.  1.
          3    1    6    6  503    0 -0.85334483718E+03 -0.10173908362E+04 -0.25063068712E+02  0.13281226156E+04  0.00000000000E+00 0. -1.
         -3    1    6    6    0  503 -0.10435840724E+02 -0.95957464839E+01  0.97030058248E+01  0.17179448310E+02  0.00000000000E+00 0.  1.
<mgrwt>
<rscale>  0 0.37086660E+04</rscale>
<asrwt>0</asrwt>
<pdfrwt beam="1">  1        2 0.59877692E+00 0.37086660E+04</pdfrwt>
<pdfrwt beam="2">  1       -1 0.13592010E+00 0.37086660E+04</pdfrwt>
<totfact> 0.17254234E-01</totfact>
</mgrwt>
</event>
<event>
12    6  0.9533401E-008  0.2056755E+04  0.7818608E-02  0.8580536E-01
          2   -1    0    0  501    0  0.00000000000E+00  0.00000000000E+00  0.83785882065E+03  0.83785882065E+03  0.00000000000E+00 0. -1.
         -1   -1    0    0    0  501 -0.00000000000E+00 -0.00000000000E+00 -0.12622180020E+04  0.12622180020E+04  0.00000000000E+00 0.  1.
         24    2    1    2    0    0 -0.81404849641E+03  0.86842594889E+02 -0.32235130560E+03  0.88367061271E+03  0.82138886984E+02 0.  0.
        254    2    1    2    0    0  0.81404849641E+03 -0.86842594889E+02 -0.10200787576E+03  0.12164062099E+04  0.89388023251E+03 0.  0.
         23    2    4    4    0    0  0.29870169766E+03  0.16864559315E+03  0.33478418309E+03  0.48846571241E+03  0.94097091752E+02 0.  0.
         23    2    4    4    0    0  0.51534679875E+03 -0.25548818804E+03 -0.43679205886E+03  0.72794049753E+03  0.90848929844E+02 0.  0.
          4    1    3    3  502    0 -0.42829351655E+03  0.43373080637E+02 -0.21339928861E+03  0.48047457458E+03  0.00000000000E+00 0. -1.
         -3    1    3    3    0  502 -0.38575497987E+03  0.43469514253E+02 -0.10895201699E+03  0.40319603813E+03  0.00000000000E+00 0.  1.
         11    1    5    5    0    0  0.29946672813E+03  0.17084328374E+03  0.33908439784E+03  0.48357623775E+03  0.00000000000E+00 0. -1.
        -11    1    5    5    0    0 -0.76503047431E+00 -0.21976905898E+01 -0.43002147477E+01  0.48894746580E+01  0.00000000000E+00 0.  1.
          2    1    6    6  503    0  0.41417014582E+03 -0.19548873653E+03 -0.38929009969E+03  0.60108197237E+03  0.00000000000E+00 0. -1.
         -2    1    6    6    0  503  0.10117665293E+03 -0.59999451513E+02 -0.47501959171E+02  0.12685852516E+03  0.00000000000E+00 0.  1.
<mgrwt>
<rscale>  0 0.20567552E+04</rscale>
<asrwt>0</asrwt>
<pdfrwt beam="1">  1        2 0.12890136E+00 0.20567552E+04</pdfrwt>
<pdfrwt beam="2">  1       -1 0.19418738E+00 0.20567552E+04</pdfrwt>
<totfact> 0.56407873E+00</totfact>
</mgrwt>
</event>
<event>
12    6  0.9533401E-008  0.2072721E+04  0.7818608E-02  0.8573356E-01
          2   -1    0    0  501    0  0.00000000000E+00  0.00000000000E+00  0.23048120018E+04  0.23048120018E+04  0.00000000000E+00 0. -1.
         -1   -1    0    0    0  501 -0.00000000000E+00 -0.00000000000E+00 -0.46600048577E+03  0.46600048577E+03  0.00000000000E+00 0.  1.
         24    2    1    2    0    0 -0.55767189540E+03  0.41663658953E+03  0.12126014146E+03  0.71113955202E+03  0.80196320985E+02 0.  0.
        254    2    1    2    0    0  0.55767189540E+03 -0.41663658953E+03  0.17175513746E+04  0.20596729356E+04  0.89871346184E+03 0.  0.
         23    2    4    4    0    0  0.55538360545E+03  0.26821715306E+02  0.13937167288E+04  0.15031133603E+04  0.87938047462E+02 0.  0.
         23    2    4    4    0    0  0.22882899481E+01 -0.44345830483E+03  0.32383464580E+03  0.55655957526E+03  0.90714820181E+02 0.  0.
          2    1    3    3  502    0 -0.98268961546E+02  0.54252353669E+02  0.45529495343E+02  0.12113233106E+03  0.00000000000E+00 0. -1.
         -1    1    3    3    0  502 -0.45940293385E+03  0.36238423586E+03  0.75730646114E+02  0.59000722096E+03  0.00000000000E+00 0.  1.
         11    1    5    5    0    0  0.39146367830E+03  0.58998996840E+02  0.98397406372E+03  0.10606270085E+04  0.00000000000E+00 0.  1.
        -11    1    5    5    0    0  0.16391992715E+03 -0.32177281534E+02  0.40974266509E+03  0.44248635183E+03  0.00000000000E+00 0. -1.
          2    1    6    6  503    0  0.41971956704E+02 -0.21614323229E+03  0.18233552366E+03  0.28587722051E+03  0.00000000000E+00 0.  1.
         -2    1    6    6    0  503 -0.39683666756E+02 -0.22731507254E+03  0.14149912215E+03  0.27068235476E+03  0.00000000000E+00 0. -1.
<mgrwt>
<rscale>  0 0.20727214E+04</rscale>
<asrwt>0</asrwt>
<pdfrwt beam="1">  1        2 0.35458646E+00 0.20727214E+04</pdfrwt>
<pdfrwt beam="2">  1       -1 0.71692384E-01 0.20727214E+04</pdfrwt>
<totfact> 0.93026880E+00</totfact>
</mgrwt>
</event>
<event>
12    6  0.9533401E-008  0.1475563E+04  0.7818608E-02  0.8900868E-01
         -1   -1    0    0    0  501 -0.00000000000E+00  0.00000000000E+00  0.34054421426E+03  0.34054421426E+03  0.00000000000E+00 0.  1.
          2   -1    0    0  501    0  0.00000000000E+00 -0.00000000000E+00 -0.15983879989E+04  0.15983879989E+04  0.00000000000E+00 0. -1.
         24    2    1    2    0    0 -0.26042761916E+03 -0.57559412400E+02 -0.91257246384E+03  0.95414494948E+03  0.80426687671E+02 0.  0.
        254    2    1    2    0    0  0.26042761916E+03  0.57559412400E+02 -0.34527132083E+03  0.98478726371E+03  0.88286920831E+03 0.  0.
         23    2    4    4    0    0  0.89029772535E+01  0.34950425599E+03 -0.44815645593E+03  0.57546952332E+03  0.89935951195E+02 0.  0.
         23    2    4    4    0    0  0.25152464191E+03 -0.29194484358E+03  0.10288513510E+03  0.40931774039E+03  0.91974041943E+02 0.  0.
          2    1    3    3  502    0 -0.89926028383E+02 -0.59908123388E+02 -0.35171511778E+03  0.36793912255E+03  0.00000000000E+00 0. -1.
         -1    1    3    3    0  502 -0.17050159078E+03  0.23487109880E+01 -0.56085734606E+03  0.58620582693E+03  0.00000000000E+00 0.  1.
         11    1    5    5    0    0  0.33878067735E+02  0.31689834044E+03 -0.41095629725E+03  0.52005515082E+03  0.00000000000E+00 0. -1.
        -11    1    5    5    0    0 -0.24975090481E+02  0.32605915542E+02 -0.37200158686E+02  0.55414372497E+02  0.00000000000E+00 0.  1.
          3    1    6    6  503    0  0.22754914238E+03 -0.25572530040E+03  0.11985660154E+03  0.36268394836E+03  0.00000000000E+00 0. -1.
         -3    1    6    6    0  503  0.23975499521E+02 -0.36219543186E+02 -0.16971466443E+02  0.46633792030E+02  0.00000000000E+00 0.  1.
<mgrwt>
<rscale>  0 0.14755633E+04</rscale>
<asrwt>0</asrwt>
<pdfrwt beam="1">  1        2 0.24590585E+00 0.14755633E+04</pdfrwt>
<pdfrwt beam="2">  1       -1 0.52391417E-01 0.14755633E+04</pdfrwt>
<totfact> 0.45230263E+01</totfact>
</mgrwt>
</event>
<event>
12    6  0.9533401E-008  0.1277379E+04  0.7818608E-02  0.9047698E-01
          2   -1    0    0  501    0  0.00000000000E+00  0.00000000000E+00  0.16301151851E+04  0.16301151851E+04  0.00000000000E+00 0. -1.
         -1   -1    0    0    0  501 -0.00000000000E+00 -0.00000000000E+00 -0.25024276263E+03  0.25024276263E+03  0.00000000000E+00 0.  1.
         24    2    1    2    0    0  0.25658040030E+03  0.80316197099E+02  0.10505565280E+03  0.30026092774E+03  0.82678541373E+02 0.  0.
        254    2    1    2    0    0 -0.25658040030E+03 -0.80316197099E+02  0.12748167697E+04  0.15800970200E+04  0.89401599710E+03 0.  0.
         23    2    4    4    0    0 -0.32033067947E+03 -0.43847871082E+03  0.65030802269E+03  0.85188641913E+03  0.89076499040E+02 0.  0.
         23    2    4    4    0    0  0.63750279171E+02  0.35816251372E+03  0.62450874700E+03  0.72821060089E+03  0.89078728350E+02 0.  0.
          4    1    3    3  502    0  0.31519651205E+02 -0.15747628931E+02  0.38178935801E+01  0.35440831542E+02  0.00000000000E+00 0. -1.
         -3    1    3    3    0  502  0.22506074910E+03  0.96063826030E+02  0.10123775922E+03  0.26482009619E+03  0.00000000000E+00 0.  1.
         11    1    5    5    0    0 -0.24406099290E+03 -0.29754032520E+03  0.50991991751E+03  0.63883827034E+03  0.00000000000E+00 0.  1.
        -11    1    5    5    0    0 -0.76269686575E+02 -0.14093838561E+03  0.14038810518E+03  0.21304814880E+03  0.00000000000E+00 0. -1.
          3    1    6    6  503    0  0.12380971159E+02  0.65720104280E+02  0.19429234790E+03  0.20547977275E+03  0.00000000000E+00 0. -1.
         -3    1    6    6    0  503  0.51369308012E+02  0.29244240944E+03  0.43021639910E+03  0.52273082815E+03  0.00000000000E+00 0.  1.
<mgrwt>
<rscale>  0 0.12773794E+04</rscale>
<asrwt>0</asrwt>
<pdfrwt beam="1">  1        2 0.25078694E+00 0.12773794E+04</pdfrwt>
<pdfrwt beam="2">  1       -1 0.38498888E-01 0.12773794E+04</pdfrwt>
<totfact> 0.78353893E+01</totfact>
</mgrwt>
</event>
<event>
12    6  0.9533401E-008  0.2965517E+04  0.7818608E-02  0.8253647E-01
          2   -1    0    0  501    0  0.00000000000E+00  0.00000000000E+00  0.24589272646E+04  0.24589272646E+04  0.00000000000E+00 0. -1.
         -1   -1    0    0    0  501 -0.00000000000E+00 -0.00000000000E+00 -0.89411877363E+03  0.89411877363E+03  0.00000000000E+00 0.  1.
         24    2    1    2    0    0 -0.73013195619E+02  0.10779916578E+04 -0.19786106968E+03  0.11012963226E+04  0.79420691512E+02 0.  0.
        254    2    1    2    0    0  0.73013195619E+02 -0.10779916578E+04  0.17626695607E+04  0.22517497157E+04  0.89217479282E+03 0.  0.
         23    2    4    4    0    0 -0.34685752549E+03 -0.17415333681E+03  0.55378441164E+03  0.68238397400E+03  0.91275328968E+02 0.  0.
         23    2    4    4    0    0  0.41987072111E+03 -0.90383832097E+03  0.12088851491E+04  0.15693657417E+04  0.91051604664E+02 0.  0.
          2    1    3    3  502    0 -0.75264460788E+02  0.10742107638E+04 -0.20156278941E+03  0.10955460110E+04  0.00000000000E+00 0. -1.
         -1    1    3    3    0  502  0.22512651687E+01  0.37808939328E+01  0.37017197320E+01  0.57503115363E+01  0.00000000000E+00 0.  1.
         11    1    5    5    0    0 -0.14494953527E+03 -0.11292510823E+03  0.30612743258E+03  0.35703844726E+03  0.00000000000E+00 0. -1.
        -11    1    5    5    0    0 -0.20190799022E+03 -0.61228228581E+02  0.24765697906E+03  0.32534552673E+03  0.00000000000E+00 0.  1.
          2    1    6    6  503    0  0.98880467465E+02 -0.22613287123E+03  0.36291529671E+03  0.43888601582E+03  0.00000000000E+00 0.  1.
         -2    1    6    6    0  503  0.32099025365E+03 -0.67770544974E+03  0.84596985234E+03  0.11304797259E+04  0.00000000000E+00 0. -1.
<mgrwt>
<rscale>  0 0.29655172E+04</rscale>
<asrwt>0</asrwt>
<pdfrwt beam="1">  1        2 0.37829650E+00 0.29655172E+04</pdfrwt>
<pdfrwt beam="2">  1       -1 0.13755674E+00 0.29655172E+04</pdfrwt>
<totfact> 0.15743142E+00</totfact>
</mgrwt>
</event>
<event>
12    6  0.9533401E-008  0.1837277E+04  0.7818608E-02  0.8686723E-01
         -1   -1    0    0    0  501 -0.00000000000E+00  0.00000000000E+00  0.22572476875E+04  0.22572476875E+04  0.00000000000E+00 0.  1.
          2   -1    0    0  501    0  0.00000000000E+00 -0.00000000000E+00 -0.37386103734E+03  0.37386103734E+03  0.00000000000E+00 0. -1.
         24    2    1    2    0    0 -0.19984109566E+03 -0.28452611872E+03 -0.14501270611E+03  0.38595275509E+03  0.83900348505E+02 0.  0.
        254    2    1    2    0    0  0.19984109566E+03  0.28452611872E+03  0.20283993563E+04  0.22451559698E+04  0.89745741082E+03 0.  0.
         23    2    4    4    0    0  0.37840223368E+03 -0.19495993377E+03  0.10383186700E+04  0.11259227155E+04  0.91644283535E+02 0.  0.
         23    2    4    4    0    0 -0.17856113802E+03  0.47948605249E+03  0.99008068632E+03  0.11192332542E+04  0.10311332324E+03 0.  0.
          4    1    3    3  502    0 -0.18311752971E+03 -0.27782001953E+03 -0.15301569434E+03  0.36623734880E+03  0.00000000000E+00 0. -1.
         -3    1    3    3    0  502 -0.16723565950E+02 -0.67060991914E+01  0.80029882392E+01  0.19715406291E+02  0.00000000000E+00 0.  1.
         11    1    5    5    0    0  0.24283856201E+03 -0.10931675119E+03  0.53393187389E+03  0.59666067848E+03  0.00000000000E+00 0.  1.
        -11    1    5    5    0    0  0.13556367167E+03 -0.85643182586E+02  0.50438679609E+03  0.52926203706E+03  0.00000000000E+00 0. -1.
          1    1    6    6  503    0 -0.30428109029E+02  0.46369941264E+02  0.54924539449E+02  0.78056045925E+02  0.00000000000E+00 0. -1.
         -1    1    6    6    0  503 -0.14813302899E+03  0.43311611123E+03  0.93515614688E+03  0.10411772083E+04  0.00000000000E+00 0.  1.
<mgrwt>
<rscale>  0 0.18372773E+04</rscale>
<asrwt>0</asrwt>
<pdfrwt beam="1">  1        2 0.57517084E-01 0.18372773E+04</pdfrwt>
<pdfrwt beam="2">  1       -1 0.34726887E+00 0.18372773E+04</pdfrwt>
<totfact> 0.14994570E+00</totfact>
</mgrwt>
</event>
<event>
12    6  0.9533401E-008  0.3935893E+04  0.7818608E-02  0.8017605E-01
         -1   -1    0    0    0  501 -0.00000000000E+00  0.00000000000E+00  0.12638681931E+04  0.12638681931E+04  0.00000000000E+00 0.  1.
          2   -1    0    0  501    0  0.00000000000E+00 -0.00000000000E+00 -0.30642543251E+04  0.30642543251E+04  0.00000000000E+00 0. -1.
         24    2    1    2    0    0  0.27320153701E+03 -0.20068910316E+03 -0.28697676811E+04  0.28908262673E+04  0.79967296966E+02 0.  0.
        254    2    1    2    0    0 -0.27320153701E+03  0.20068910316E+03  0.10693815491E+04  0.14372962508E+04  0.89851456258E+03 0.  0.
         23    2    4    4    0    0  0.21213943758E+02 -0.25362579358E+03  0.42932088398E+02  0.27329398919E+03  0.89835214340E+02 0.  0.
         23    2    4    4    0    0 -0.29441548076E+03  0.45431489674E+03  0.10264494607E+04  0.11640022616E+04  0.90665699379E+02 0.  0.
          4    1    3    3  502    0  0.27717885050E+03 -0.20309372993E+03 -0.28270839766E+04  0.28478902698E+04  0.00000000000E+00 0. -1.
         -3    1    3    3    0  502 -0.39773134990E+01  0.24046267697E+01 -0.42683704498E+02  0.42935997511E+02  0.00000000000E+00 0.  1.
         11    1    5    5    0    0  0.51709123035E+02 -0.13253905633E+03  0.33698679530E+01  0.14230878704E+03  0.00000000000E+00 0. -1.
        -11    1    5    5    0    0 -0.30495179278E+02 -0.12108673725E+03  0.39562220445E+02  0.13098520215E+03  0.00000000000E+00 0.  1.
          1    1    6    6  503    0 -0.24741798593E+03  0.30733283935E+03  0.73088182499E+03  0.83057653230E+03  0.00000000000E+00 0. -1.
         -1    1    6    6    0  503 -0.46997494835E+02  0.14698205739E+03  0.29556763568E+03  0.33342572932E+03  0.00000000000E+00 0.  1.
<mgrwt>
<rscale>  0 0.39358931E+04</rscale>
<asrwt>0</asrwt>
<pdfrwt beam="1">  1        2 0.47142374E+00 0.39358931E+04</pdfrwt>
<pdfrwt beam="2">  1       -1 0.19444126E+00 0.39358931E+04</pdfrwt>
<totfact> 0.23471405E-01</totfact>
</mgrwt>
</event>
<event>
12    6  0.9533401E-008  0.2150752E+04  0.7818608E-02  0.8539210E-01
          2   -1    0    0  501    0  0.00000000000E+00  0.00000000000E+00  0.15158108246E+04  0.15158108246E+04  0.00000000000E+00 0. -1.
         -1   -1    0    0    0  501 -0.00000000000E+00 -0.00000000000E+00 -0.76291428822E+03  0.76291428822E+03  0.00000000000E+00 0.  1.
         24    2    1    2    0    0  0.54958957570E+02  0.45591174682E+03 -0.49327549234E+03  0.67847783443E+03  0.78329129734E+02 0.  0.
        254    2    1    2    0    0 -0.54958957570E+02 -0.45591174682E+03  0.12461720287E+04  0.16002472784E+04  0.89273210928E+03 0.  0.
         23    2    4    4    0    0  0.24676817109E+02 -0.71870559509E+02 -0.12489269679E+03  0.17122025094E+03  0.89128368062E+02 0.  0.
         23    2    4    4    0    0 -0.79635774679E+02 -0.38404118731E+03  0.13710647255E+04  0.14290270274E+04  0.92034088954E+02 0.  0.
          4    1    3    3  502    0 -0.13422646197E+02  0.20625339505E+02 -0.34490179034E+02  0.42369145736E+02  0.00000000000E+00 0. -1.
         -3    1    3    3    0  502  0.68381603767E+02  0.43528640732E+03 -0.45878531330E+03  0.63610868870E+03  0.00000000000E+00 0.  1.
         11    1    5    5    0    0 -0.13236154089E+02 -0.42901564958E+02 -0.11365440475E+03  0.12220091558E+03  0.00000000000E+00 0.  1.
        -11    1    5    5    0    0  0.37912971198E+02 -0.28968994550E+02 -0.11238292037E+02  0.49019335351E+02  0.00000000000E+00 0. -1.
          3    1    6    6  503    0  0.15038914447E+02 -0.18777151042E+02  0.11591949141E+03  0.11838952166E+03  0.00000000000E+00 0. -1.
         -3    1    6    6    0  503 -0.94674689126E+02 -0.36526403627E+03  0.12551452341E+04  0.13106375058E+04  0.00000000000E+00 0.  1.
<mgrwt>
<rscale>  0 0.21507522E+04</rscale>
<asrwt>0</asrwt>
<pdfrwt beam="1">  1        2 0.23320166E+00 0.21507522E+04</pdfrwt>
<pdfrwt beam="2">  1       -1 0.11737143E+00 0.21507522E+04</pdfrwt>
<totfact> 0.84958635E+00</totfact>
</mgrwt>
</event>
<event>
12    6  0.9533401E-008  0.2049730E+04  0.7818608E-02  0.8583717E-01
         -1   -1    0    0    0  501 -0.00000000000E+00  0.00000000000E+00  0.15371569894E+04  0.15371569894E+04  0.00000000000E+00 0.  1.
          2   -1    0    0  501    0  0.00000000000E+00 -0.00000000000E+00 -0.68330586994E+03  0.68330586994E+03  0.00000000000E+00 0. -1.
         24    2    1    2    0    0 -0.39177636923E+02  0.38215284577E+03 -0.44576728990E+03  0.59368008216E+03  0.78561303753E+02 0.  0.
        254    2    1    2    0    0  0.39177636923E+02 -0.38215284577E+03  0.12996184094E+04  0.16267827772E+04  0.89991027853E+03 0.  0.
         23    2    4    4    0    0  0.71812660951E+02  0.23133638683E+03  0.10525051502E+03  0.27996203000E+03  0.92884256933E+02 0.  0.
         23    2    4    4    0    0 -0.32635024028E+02 -0.61348923259E+03  0.11943678944E+04  0.13468207472E+04  0.99886809378E+02 0.  0.
          4    1    3    3  502    0 -0.21154447187E+02  0.36497597429E+03 -0.42908741728E+03  0.56371179171E+03  0.00000000000E+00 0. -1.
         -3    1    3    3    0  502 -0.18023189736E+02  0.17176871474E+02 -0.16679872626E+02  0.29968290454E+02  0.00000000000E+00 0.  1.
         11    1    5    5    0    0 -0.19312054222E+02  0.68615802913E+02  0.43499396388E+02  0.83506175423E+02  0.00000000000E+00 0.  1.
        -11    1    5    5    0    0  0.91124715173E+02  0.16272058391E+03  0.61751118630E+02  0.19645585458E+03  0.00000000000E+00 0. -1.
          1    1    6    6  503    0 -0.29368354075E+02 -0.58700242166E+03  0.10819643981E+04  0.12312925331E+04  0.00000000000E+00 0. -1.
         -1    1    6    6    0  503 -0.32666699532E+01 -0.26486810938E+02  0.11240349623E+03  0.11552821409E+03  0.00000000000E+00 0.  1.
<mgrwt>
<rscale>  0 0.20497301E+04</rscale>
<asrwt>0</asrwt>
<pdfrwt beam="1">  1        2 0.10512398E+00 0.20497301E+04</pdfrwt>
<pdfrwt beam="2">  1       -1 0.23648569E+00 0.20497301E+04</pdfrwt>
<totfact> 0.38152700E+00</totfact>
</mgrwt>
</event>
<event>
12    6  0.9533401E-008  0.1535664E+04  0.7818608E-02  0.8861077E-01
         -1   -1    0    0    0  501 -0.00000000000E+00  0.00000000000E+00  0.23516343811E+03  0.23516343811E+03  0.00000000000E+00 0.  1.
          2   -1    0    0  501    0  0.00000000000E+00 -0.00000000000E+00 -0.25070466993E+04  0.25070466993E+04  0.00000000000E+00 0. -1.
         24    2    1    2    0    0  0.42716175337E+03 -0.21280900881E+03 -0.46977754597E+03  0.67471421590E+03  0.82422646615E+02 0.  0.
        254    2    1    2    0    0 -0.42716175337E+03  0.21280900881E+03 -0.18021057152E+04  0.20674959215E+04  0.89397960764E+03 0.  0.
         23    2    4    4    0    0 -0.39327586389E+03 -0.11903310996E+03 -0.27832979226E+03  0.50499474513E+03  0.93367194273E+02 0.  0.
         23    2    4    4    0    0 -0.33885889478E+02  0.33184211877E+03 -0.15237759230E+04  0.15625011764E+04  0.90826304083E+02 0.  0.
          4    1    3    3  502    0  0.27249720563E+03 -0.15112151860E+03 -0.25304880730E+03  0.40140520591E+03  0.00000000000E+00 0. -1.
         -3    1    3    3    0  502  0.15466454774E+03 -0.61687490207E+02 -0.21672873867E+03  0.27330900999E+03  0.00000000000E+00 0.  1.
         11    1    5    5    0    0 -0.35379832029E+03 -0.10092837911E+03 -0.20885132382E+03  0.42305870114E+03  0.00000000000E+00 0.  1.
        -11    1    5    5    0    0 -0.39477543599E+02 -0.18104730854E+02 -0.69478468445E+02  0.81936043994E+02  0.00000000000E+00 0. -1.
          3    1    6    6  503    0 -0.11036345470E+02  0.79476160272E+02 -0.21645340271E+03  0.23084699807E+03  0.00000000000E+00 0. -1.
         -3    1    6    6    0  503 -0.22849544008E+02  0.25236595849E+03 -0.13073225202E+04  0.13316541783E+04  0.00000000000E+00 0.  1.
<mgrwt>
<rscale>  0 0.15356637E+04</rscale>
<asrwt>0</asrwt>
<pdfrwt beam="1">  1        2 0.38569950E+00 0.15356637E+04</pdfrwt>
<pdfrwt beam="2">  1       -1 0.36178990E-01 0.15356637E+04</pdfrwt>
<totfact> 0.27737487E+01</totfact>
</mgrwt>
</event>
<event>
12    6  0.9533401E-008  0.1817032E+04  0.7818608E-02  0.8697294E-01
         -1   -1    0    0    0  501 -0.00000000000E+00  0.00000000000E+00  0.56087363505E+03  0.56087363505E+03  0.00000000000E+00 0.  1.
          2   -1    0    0  501    0  0.00000000000E+00 -0.00000000000E+00 -0.14716354582E+04  0.14716354582E+04  0.00000000000E+00 0. -1.
         24    2    1    2    0    0 -0.41565486077E+03  0.26654509502E+03  0.18245737796E+03  0.53242691636E+03  0.79827786683E+02 0.  0.
        254    2    1    2    0    0  0.41565486077E+03 -0.26654509502E+03 -0.10932192011E+04  0.15000821769E+04  0.90072363397E+03 0.  0.
         23    2    4    4    0    0  0.53942843207E+03  0.93783269005E+02 -0.91309593120E+03  0.10686524928E+04  0.92171773882E+02 0.  0.
         23    2    4    4    0    0 -0.12377357130E+03 -0.36032836403E+03 -0.18012326989E+03  0.43142968409E+03  0.92362076000E+02 0.  0.
          4    1    3    3  502    0 -0.17589433118E+03  0.10710674954E+03  0.34862073868E+02  0.20886846515E+03  0.00000000000E+00 0. -1.
         -1    1    3    3    0  502 -0.23976052959E+03  0.15943834549E+03  0.14759530409E+03  0.32355845121E+03  0.00000000000E+00 0.  1.
         11    1    5    5    0    0  0.50563654603E+03  0.63161173898E+02 -0.84216354773E+03  0.98432570407E+03  0.00000000000E+00 0. -1.
        -11    1    5    5    0    0  0.33791886041E+02  0.30622095107E+02 -0.70932383462E+02  0.84326788713E+02  0.00000000000E+00 0.  1.
          3    1    6    6  503    0 -0.92155009147E+02 -0.31845098737E+03 -0.12232546268E+03  0.35336538581E+03  0.00000000000E+00 0. -1.
         -3    1    6    6    0  503 -0.31618562149E+02 -0.41877376662E+02 -0.57797807209E+02  0.78064298284E+02  0.00000000000E+00 0.  1.
<mgrwt>
<rscale>  0 0.18170322E+04</rscale>
<asrwt>0</asrwt>
<pdfrwt beam="1">  1        2 0.22640545E+00 0.18170322E+04</pdfrwt>
<pdfrwt beam="2">  1       -1 0.86288252E-01 0.18170322E+04</pdfrwt>
<totfact> 0.18750217E+01</totfact>
</mgrwt>
</event>
<event>
12    6  0.9533401E-008  0.1509720E+04  0.7818608E-02  0.8878015E-01
         -1   -1    0    0    0  501 -0.00000000000E+00  0.00000000000E+00  0.34105473613E+03  0.34105473613E+03  0.00000000000E+00 0.  1.
          2   -1    0    0  501    0  0.00000000000E+00 -0.00000000000E+00 -0.16707397016E+04  0.16707397016E+04  0.00000000000E+00 0. -1.
         24    2    1    2    0    0 -0.24769629668E+03  0.20330016823E+03 -0.92355213366E+03  0.98083407553E+03  0.80015788101E+02 0.  0.
        254    2    1    2    0    0  0.24769629668E+03 -0.20330016823E+03 -0.40613283178E+03  0.10309603622E+04  0.89176845512E+03 0.  0.
         23    2    4    4    0    0 -0.18922282764E+02 -0.33977010611E+03 -0.57606030185E+03  0.67458797506E+03  0.86149213201E+02 0.  0.
         23    2    4    4    0    0  0.26661857944E+03  0.13646993788E+03  0.16992747006E+03  0.35637238712E+03  0.91741061531E+02 0.  0.
          2    1    3    3  502    0 -0.17548201948E+03  0.14416912536E+03 -0.53460929711E+03  0.58084918561E+03  0.00000000000E+00 0. -1.
         -1    1    3    3    0  502 -0.72214277199E+02  0.59131042875E+02 -0.38894283655E+03  0.39998488992E+03  0.00000000000E+00 0.  1.
         11    1    5    5    0    0  0.65280097137E+01 -0.22323692508E+03 -0.30122898200E+03  0.37498831878E+03  0.00000000000E+00 0. -1.
        -11    1    5    5    0    0 -0.25450292478E+02 -0.11653318104E+03 -0.27483131985E+03  0.29959965627E+03  0.00000000000E+00 0.  1.
          2    1    6    6  503    0 -0.55366809941E+01 -0.40193807157E+01  0.52978795656E+01  0.86531951128E+01  0.00000000000E+00 0. -1.
         -2    1    6    6    0  503  0.27215526044E+03  0.14048931860E+03  0.16462959050E+03  0.34771919201E+03  0.00000000000E+00 0.  1.
<mgrwt>
<rscale>  0 0.15097201E+04</rscale>
<asrwt>0</asrwt>
<pdfrwt beam="1">  1        2 0.25703687E+00 0.15097201E+04</pdfrwt>
<pdfrwt beam="2">  1       -1 0.52469960E-01 0.15097201E+04</pdfrwt>
<totfact> 0.40985332E+01</totfact>
</mgrwt>
</event>
<event>
12    6  0.9533401E-008  0.1974251E+04  0.7818608E-02  0.8618754E-01
          2   -1    0    0  501    0  0.00000000000E+00  0.00000000000E+00  0.13247321056E+04  0.13247321056E+04  0.00000000000E+00 0. -1.
         -1   -1    0    0    0  501 -0.00000000000E+00 -0.00000000000E+00 -0.73555784037E+03  0.73555784037E+03  0.00000000000E+00 0.  1.
         24    2    1    2    0    0  0.14914993293E+03 -0.72836536842E+03  0.47015161899E+03  0.88331342895E+03  0.80238747088E+02 0.  0.
        254    2    1    2    0    0 -0.14914993293E+03  0.72836536842E+03  0.11902264626E+03  0.11769765170E+04  0.90462451820E+03 0.  0.
         23    2    4    4    0    0 -0.22667728989E+03  0.73260200143E+03  0.40080848344E+03  0.87022071930E+03  0.92457415347E+02 0.  0.
         23    2    4    4    0    0  0.77527356963E+02 -0.42366330095E+01 -0.28178583718E+03  0.30675579774E+03  0.93098986420E+02 0.  0.
          4    1    3    3  502    0  0.12038743951E+03 -0.51298079836E+03  0.29263736446E+03  0.60272635760E+03  0.00000000000E+00 0. -1.
         -3    1    3    3    0  502  0.28762493415E+02 -0.21538457006E+03  0.17751425453E+03  0.28058707135E+03  0.00000000000E+00 0.  1.
         11    1    5    5    0    0 -0.20185691278E+03  0.70696155314E+03  0.36996171141E+03  0.82305073888E+03  0.00000000000E+00 0.  1.
        -11    1    5    5    0    0 -0.24820377110E+02  0.25640448284E+02  0.30846772034E+02  0.47169980422E+02  0.00000000000E+00 0. -1.
          1    1    6    6  503    0  0.55438043782E+02  0.33412743051E+02 -0.23046283322E+03  0.23938025313E+03  0.00000000000E+00 0. -1.
         -1    1    6    6    0  503  0.22089313181E+02 -0.37649376061E+02 -0.51323003967E+02  0.67375544605E+02  0.00000000000E+00 0.  1.
<mgrwt>
<rscale>  0 0.19742513E+04</rscale>
<asrwt>0</asrwt>
<pdfrwt beam="1">  1        2 0.20380494E+00 0.19742513E+04</pdfrwt>
<pdfrwt beam="2">  1       -1 0.11316275E+00 0.19742513E+04</pdfrwt>
<totfact> 0.12107762E+01</totfact>
</mgrwt>
</event>
<event>
12    6  0.9533401E-008  0.1826006E+04  0.7818608E-02  0.8692591E-01
          2   -1    0    0  501    0  0.00000000000E+00  0.00000000000E+00  0.82015616149E+03  0.82015616149E+03  0.00000000000E+00 0. -1.
         -1   -1    0    0    0  501 -0.00000000000E+00 -0.00000000000E+00 -0.10163603215E+04  0.10163603215E+04  0.00000000000E+00 0.  1.
         24    2    1    2    0    0  0.66430060833E+03 -0.15643671003E+03 -0.90061075140E+02  0.69366286683E+03  0.85378176969E+02 0.  0.
        254    2    1    2    0    0 -0.66430060833E+03  0.15643671003E+03 -0.10614308488E+03  0.11428536162E+04  0.91053846215E+03 0.  0.
         23    2    4    4    0    0 -0.67818104945E+03  0.22366185381E+03  0.25560017327E+03  0.76386259441E+03  0.90556357484E+02 0.  0.
         23    2    4    4    0    0  0.13880441122E+02 -0.67225143781E+02 -0.36174325815E+03  0.37899102176E+03  0.89800463002E+02 0.  0.
          2    1    3    3  502    0  0.49864697976E+03 -0.10335279369E+03 -0.10178266610E+03  0.51931716851E+03  0.00000000000E+00 0. -1.
         -1    1    3    3    0  502  0.16565362856E+03 -0.53083916341E+02  0.11721590957E+02  0.17434569833E+03  0.00000000000E+00 0.  1.
         11    1    5    5    0    0 -0.22122710814E+03  0.10827471175E+03  0.11651256032E+03  0.27247022460E+03  0.00000000000E+00 0.  1.
        -11    1    5    5    0    0 -0.45695394131E+03  0.11538714205E+03  0.13908761294E+03  0.49139236981E+03  0.00000000000E+00 0. -1.
          2    1    6    6  503    0  0.30701425104E+02  0.37337777353E+01 -0.49681036366E+02  0.58521141256E+02  0.00000000000E+00 0. -1.
         -2    1    6    6    0  503 -0.16820983981E+02 -0.70958921517E+02 -0.31206222178E+03  0.32046988050E+03  0.00000000000E+00 0.  1.
<mgrwt>
<rscale>  0 0.18260057E+04</rscale>
<asrwt>0</asrwt>
<pdfrwt beam="1">  1        2 0.12617787E+00 0.18260057E+04</pdfrwt>
<pdfrwt beam="2">  1       -1 0.15636313E+00 0.18260057E+04</pdfrwt>
<totfact> 0.11160800E+01</totfact>
</mgrwt>
</event>
<event>
12    6  0.9533401E-008  0.2640005E+04  0.7818608E-02  0.8354738E-01
          2   -1    0    0  501    0  0.00000000000E+00  0.00000000000E+00  0.15991917260E+04  0.15991917260E+04  0.00000000000E+00 0. -1.
         -1   -1    0    0    0  501 -0.00000000000E+00 -0.00000000000E+00 -0.10895541698E+04  0.10895541698E+04  0.00000000000E+00 0.  1.
         24    2    1    2    0    0 -0.56854542952E+03 -0.98250481485E+03  0.49160685124E+03  0.12396842172E+04  0.81117480329E+02 0.  0.
        254    2    1    2    0    0  0.56854542952E+03  0.98250481485E+03  0.18030704895E+02  0.14490616786E+04  0.90049709903E+03 0.  0.
         23    2    4    4    0    0  0.76082031410E+03  0.58186954750E+03 -0.13219600425E+03  0.97133250929E+03  0.92689478411E+02 0.  0.
         23    2    4    4    0    0 -0.19227488458E+03  0.40063526735E+03  0.15022670915E+03  0.47772916928E+03  0.90436974511E+02 0.  0.
          2    1    3    3  502    0 -0.40922305607E+03 -0.63731559272E+03  0.31039718193E+03  0.81852372287E+03  0.00000000000E+00 0. -1.
         -3    1    3    3    0  502 -0.15932237345E+03 -0.34518922213E+03  0.18120966931E+03  0.42116049435E+03  0.00000000000E+00 0.  1.
         11    1    5    5    0    0  0.14194755046E+03  0.65678397392E+02 -0.21655255235E+02  0.15789778036E+03  0.00000000000E+00 0.  1.
        -11    1    5    5    0    0  0.61887276365E+03  0.51619115011E+03 -0.11054074902E+03  0.81343472893E+03  0.00000000000E+00 0. -1.
          4    1    6    6  503    0 -0.19149810233E+03  0.37184503733E+03  0.11816239693E+03  0.43462927540E+03  0.00000000000E+00 0. -1.
         -4    1    6    6    0  503 -0.77678225277E+00  0.28790230019E+02  0.32064312218E+02  0.43099893889E+02  0.00000000000E+00 0.  1.
<mgrwt>
<rscale>  0 0.26400046E+04</rscale>
<asrwt>0</asrwt>
<pdfrwt beam="1">  1        2 0.24602950E+00 0.26400046E+04</pdfrwt>
<pdfrwt beam="2">  1       -1 0.16762372E+00 0.26400046E+04</pdfrwt>
<totfact> 0.28714332E+00</totfact>
</mgrwt>
</event>
<event>
12    6  0.9533401E-008  0.2526758E+04  0.7818608E-02  0.8393515E-01
         -1   -1    0    0    0  501 -0.00000000000E+00  0.00000000000E+00  0.11406045271E+04  0.11406045271E+04  0.00000000000E+00 0.  1.
          2   -1    0    0  501    0  0.00000000000E+00 -0.00000000000E+00 -0.13993685900E+04  0.13993685900E+04  0.00000000000E+00 0. -1.
         24    2    1    2    0    0  0.33304339536E+03 -0.76778652395E+03 -0.83343519971E+03  0.11828858777E+04  0.64735755997E+02 0.  0.
        254    2    1    2    0    0 -0.33304339536E+03  0.76778652395E+03  0.57467113682E+03  0.13570872393E+04  0.90056915893E+03 0.  0.
         23    2    4    4    0    0  0.28309397712E+03  0.33789816830E+03  0.34322778078E+03  0.56570435938E+03  0.88874859785E+02 0.  0.
         23    2    4    4    0    0 -0.61613737248E+03  0.42988835565E+03  0.23144335605E+03  0.79138287991E+03  0.91058088433E+02 0.  0.
          4    1    3    3  502    0  0.20826366780E+03 -0.55096951990E+03 -0.59759226221E+03  0.83908144958E+03  0.00000000000E+00 0. -1.
         -3    1    3    3    0  502  0.12477972756E+03 -0.21681700405E+03 -0.23584293751E+03  0.34380442817E+03  0.00000000000E+00 0.  1.
         11    1    5    5    0    0  0.17735036816E+03  0.16832725012E+03  0.14525432226E+03  0.28440470172E+03  0.00000000000E+00 0.  1.
        -11    1    5    5    0    0  0.10574360896E+03  0.16957091817E+03  0.19797345851E+03  0.28129965766E+03  0.00000000000E+00 0. -1.
          4    1    6    6  503    0 -0.48154287901E+03  0.36716344591E+03  0.15855083562E+03  0.62596398285E+03  0.00000000000E+00 0. -1.
         -4    1    6    6    0  503 -0.13459449347E+03  0.62724909739E+02  0.72892520422E+02  0.16541889707E+03  0.00000000000E+00 0.  1.
<mgrwt>
<rscale>  0 0.25267577E+04</rscale>
<asrwt>0</asrwt>
<pdfrwt beam="1">  1        2 0.21528748E+00 0.25267577E+04</pdfrwt>
<pdfrwt beam="2">  1       -1 0.17547762E+00 0.25267577E+04</pdfrwt>
<totfact> 0.32947085E+00</totfact>
</mgrwt>
</event>
<event>
12    6  0.9533401E-008  0.1453885E+04  0.7818608E-02  0.8915711E-01
          2   -1    0    0  501    0  0.00000000000E+00  0.00000000000E+00  0.10155295763E+04  0.10155295763E+04  0.00000000000E+00 0. -1.
         -1   -1    0    0    0  501 -0.00000000000E+00 -0.00000000000E+00 -0.52036444984E+03  0.52036444984E+03  0.00000000000E+00 0.  1.
         24    2    1    2    0    0  0.20231381628E+03  0.37545660855E+03  0.26698091271E+03  0.50937202755E+03  0.79262283199E+02 0.  0.
        254    2    1    2    0    0 -0.20231381628E+03 -0.37545660855E+03  0.22818421370E+03  0.10265219985E+04  0.90541749097E+03 0.  0.
         23    2    4    4    0    0  0.20486035220E+03 -0.51254048339E+03  0.16030480639E+03  0.58179549703E+03  0.90126901589E+02 0.  0.
         23    2    4    4    0    0 -0.40717416848E+03  0.13708387484E+03  0.67879407314E+02  0.44472650151E+03  0.92689023033E+02 0.  0.
          4    1    3    3  502    0  0.11810768067E+03  0.23828410773E+03  0.20916384432E+03  0.33834635213E+03  0.00000000000E+00 0. -1.
         -3    1    3    3    0  502  0.84206135613E+02  0.13717250082E+03  0.57817068395E+02  0.17102567542E+03  0.00000000000E+00 0.  1.
         11    1    5    5    0    0  0.10442704125E+03 -0.36884936150E+03  0.97255711474E+02  0.39549150666E+03  0.00000000000E+00 0. -1.
        -11    1    5    5    0    0  0.10043331095E+03 -0.14369112190E+03  0.63049094912E+02  0.18630399037E+03  0.00000000000E+00 0.  1.
          3    1    6    6  503    0 -0.50256796826E+02  0.39846538712E+02  0.35702056750E+02  0.73403876810E+02  0.00000000000E+00 0. -1.
         -3    1    6    6    0  503 -0.35691737166E+03  0.97237336130E+02  0.32177350563E+02  0.37132262470E+03  0.00000000000E+00 0.  1.
<mgrwt>
<rscale>  0 0.14538851E+04</rscale>
<asrwt>0</asrwt>
<pdfrwt beam="1">  1        2 0.15623532E+00 0.14538851E+04</pdfrwt>
<pdfrwt beam="2">  1       -1 0.80056069E-01 0.14538851E+04</pdfrwt>
<totfact> 0.42419423E+01</totfact>
</mgrwt>
</event>
<event>
12    6  0.9533401E-008  0.1326282E+04  0.7818608E-02  0.9008979E-01
         -3   -1    0    0    0  501 -0.00000000000E+00  0.00000000000E+00  0.20281680952E+03  0.20281680952E+03  0.00000000000E+00 0.  1.
          2   -1    0    0  501    0  0.00000000000E+00 -0.00000000000E+00 -0.21682427355E+04  0.21682427355E+04  0.00000000000E+00 0. -1.
         24    2    1    2    0    0 -0.42540213797E+02  0.14526074604E+03  0.33343357409E+02  0.17452604136E+03  0.80232197385E+02 0.  0.
        254    2    1    2    0    0  0.42540213797E+02 -0.14526074604E+03 -0.19987692833E+04  0.21965335036E+04  0.89820400265E+03 0.  0.
         23    2    4    4    0    0  0.36649765726E+03 -0.30517894371E+03 -0.14796742346E+04  0.15574926178E+04  0.94301080075E+02 0.  0.
         23    2    4    4    0    0 -0.32395744347E+03  0.15991819766E+03 -0.51909504878E+03  0.63904088580E+03  0.91604197107E+02 0.  0.
          4    1    3    3  502    0 -0.52558742670E+02  0.63424469200E+02  0.40460469376E+02  0.91772186999E+02  0.00000000000E+00 0. -1.
         -3    1    3    3    0  502  0.10018528873E+02  0.81836276844E+02 -0.71171119668E+01  0.82753854358E+02  0.00000000000E+00 0.  1.
         11    1    5    5    0    0  0.26837046308E+03 -0.25054148460E+03 -0.12320200040E+04  0.12855609792E+04  0.00000000000E+00 0.  1.
        -11    1    5    5    0    0  0.98127194188E+02 -0.54637459108E+02 -0.24765423051E+03  0.27193163859E+03  0.00000000000E+00 0. -1.
          3    1    6    6  503    0 -0.28413244641E+03  0.13122873863E+03 -0.49162839520E+03  0.58279559702E+03  0.00000000000E+00 0. -1.
         -3    1    6    6    0  503 -0.39824997054E+02  0.28689459032E+02 -0.27466653586E+02  0.56245288773E+02  0.00000000000E+00 0.  1.
<mgrwt>
<rscale>  0 0.13262821E+04</rscale>
<asrwt>0</asrwt>
<pdfrwt beam="1">  1        2 0.33357581E+00 0.13262821E+04</pdfrwt>
<pdfrwt beam="2">  1       -3 0.31202586E-01 0.13262821E+04</pdfrwt>
<totfact> 0.34341065E+01</totfact>
</mgrwt>
</event>
<event>
12    6  0.9533401E-008  0.1667672E+04  0.7818608E-02  0.8780020E-01
          2   -1    0    0  501    0  0.00000000000E+00  0.00000000000E+00  0.33173862134E+04  0.33173862134E+04  0.00000000000E+00 0. -1.
         -1   -1    0    0    0  501 -0.00000000000E+00 -0.00000000000E+00 -0.20958736911E+03  0.20958736911E+03  0.00000000000E+00 0.  1.
         24    2    1    2    0    0  0.53674719105E+03 -0.43733972845E+02  0.59996506712E+03  0.81010723243E+03  0.79406793037E+02 0.  0.
        254    2    1    2    0    0 -0.53674719105E+03  0.43733972845E+02  0.25078337772E+04  0.27168663501E+04  0.89561280856E+03 0.  0.
         23    2    4    4    0    0 -0.49059753503E+03  0.40544575985E+03  0.18506982157E+04  0.19595460748E+04  0.98309350555E+02 0.  0.
         23    2    4    4    0    0 -0.46149656026E+02 -0.36171178700E+03  0.65713556154E+03  0.75732027528E+03  0.93496767342E+02 0.  0.
          4    1    3    3  502    0  0.93723860560E+02 -0.36583408439E+02  0.96014496147E+02  0.13907297107E+03  0.00000000000E+00 0. -1.
         -3    1    3    3    0  502  0.44302333049E+03 -0.71505644058E+01  0.50395057097E+03  0.67103426136E+03  0.00000000000E+00 0.  1.
         11    1    5    5    0    0 -0.14365552007E+03  0.16976126347E+03  0.56631979170E+03  0.60841918238E+03  0.00000000000E+00 0. -1.
        -11    1    5    5    0    0 -0.34694201496E+03  0.23568449638E+03  0.12843784240E+04  0.13511268925E+04  0.00000000000E+00 0.  1.
          1    1    6    6  503    0 -0.16359904531E+02 -0.20056233305E+03  0.45193827911E+03  0.49471315329E+03  0.00000000000E+00 0. -1.
         -1    1    6    6    0  503 -0.29789751495E+02 -0.16114945395E+03  0.20519728243E+03  0.26260712199E+03  0.00000000000E+00 0.  1.
<mgrwt>
<rscale>  0 0.16676717E+04</rscale>
<asrwt>0</asrwt>
<pdfrwt beam="1">  1        2 0.51036707E+00 0.16676717E+04</pdfrwt>
<pdfrwt beam="2">  1       -1 0.32244213E-01 0.16676717E+04</pdfrwt>
<totfact> 0.10669337E+01</totfact>
</mgrwt>
</event>
<event>
12    6  0.9533401E-008  0.4435118E+04  0.7818608E-02  0.7922095E-01
         -1   -1    0    0    0  501 -0.00000000000E+00  0.00000000000E+00  0.20372808900E+04  0.20372808900E+04  0.00000000000E+00 0.  1.
          2   -1    0    0  501    0  0.00000000000E+00 -0.00000000000E+00 -0.24137897522E+04  0.24137897522E+04  0.00000000000E+00 0. -1.
         24    2    1    2    0    0 -0.20815955791E+04  0.39755021263E+03 -0.28829520343E+03  0.21401706966E+04  0.78295334653E+02 0.  0.
        254    2    1    2    0    0  0.20815955791E+04 -0.39755021263E+03 -0.88213658752E+02  0.23108999456E+04  0.91727345021E+03 0.  0.
         23    2    4    4    0    0  0.21069251231E+04 -0.31740089334E+03  0.44817436942E+02  0.21331245013E+04  0.91294762754E+02 0.  0.
         23    2    4    4    0    0 -0.25329543972E+02 -0.80149319292E+02 -0.13303109569E+03  0.17777544437E+03  0.82712375252E+02 0.  0.
          4    1    3    3  502    0 -0.49358059195E+03  0.12819660430E+03 -0.72234619157E+02  0.51504758063E+03  0.00000000000E+00 0. -1.
         -3    1    3    3    0  502 -0.15880149872E+04  0.26935360832E+03 -0.21606058427E+03  0.16251231159E+04  0.00000000000E+00 0.  1.
         11    1    5    5    0    0  0.57228339061E+03 -0.73481302716E+02  0.50733916684E+02  0.57920783085E+03  0.00000000000E+00 0. -1.
        -11    1    5    5    0    0  0.15346417325E+04 -0.24391959062E+03 -0.59164797416E+01  0.15539166704E+04  0.00000000000E+00 0.  1.
          4    1    6    6  503    0  0.26128274291E+02 -0.35045849668E+02 -0.80151969440E+02  0.91297516404E+02  0.00000000000E+00 0. -1.
         -4    1    6    6    0  503 -0.51457818263E+02 -0.45103469624E+02 -0.52879126254E+02  0.86477927970E+02  0.00000000000E+00 0.  1.
<mgrwt>
<rscale>  0 0.44351179E+04</rscale>
<asrwt>0</asrwt>
<pdfrwt beam="1">  1        2 0.37135227E+00 0.44351179E+04</pdfrwt>
<pdfrwt beam="2">  1       -1 0.31342783E+00 0.44351179E+04</pdfrwt>
<totfact> 0.91341096E-02</totfact>
</mgrwt>
</event>
<event>
12    6  0.9533401E-008  0.2504142E+04  0.7818608E-02  0.8401511E-01
         -1   -1    0    0    0  501 -0.00000000000E+00  0.00000000000E+00  0.75945711784E+03  0.75945711784E+03  0.00000000000E+00 0.  1.
          2   -1    0    0  501    0  0.00000000000E+00 -0.00000000000E+00 -0.20642138461E+04  0.20642138461E+04  0.00000000000E+00 0. -1.
         24    2    1    2    0    0  0.43020563770E+03  0.80148930573E+03  0.11070902620E+03  0.91974656059E+03  0.78836852645E+02 0.  0.
        254    2    1    2    0    0 -0.43020563770E+03 -0.80148930573E+03 -0.14154657545E+04  0.19039244034E+04  0.89102347542E+03 0.  0.
         23    2    4    4    0    0 -0.55865688789E+03 -0.69370062849E+03 -0.14554812090E+04  0.17088154640E+04  0.91140878799E+02 0.  0.
         23    2    4    4    0    0  0.12845125019E+03 -0.10778867724E+03  0.40015454516E+02  0.19510893941E+03  0.91368151027E+02 0.  0.
          4    1    3    3  502    0  0.84235879817E+02  0.11877989510E+03 -0.48863177713E+01  0.14569908383E+03  0.00000000000E+00 0. -1.
         -3    1    3    3    0  502  0.34596975788E+03  0.68270941063E+03  0.11559534397E+03  0.77404747676E+03  0.00000000000E+00 0.  1.
         11    1    5    5    0    0 -0.28458951108E+03 -0.41765843136E+03 -0.78333554677E+03  0.93222547376E+03  0.00000000000E+00 0. -1.
        -11    1    5    5    0    0 -0.27406737681E+03 -0.27604219713E+03 -0.67214566222E+03  0.77658999020E+03  0.00000000000E+00 0.  1.
          3    1    6    6  503    0  0.14468635335E+02 -0.26400229904E+02  0.45940871945E+02  0.54926107294E+02  0.00000000000E+00 0. -1.
         -3    1    6    6    0  503  0.11398261485E+03 -0.81388447340E+02 -0.59254174292E+01  0.14018283212E+03  0.00000000000E+00 0.  1.
<mgrwt>
<rscale>  0 0.25041421E+04</rscale>
<asrwt>0</asrwt>
<pdfrwt beam="1">  1        2 0.31757136E+00 0.25041421E+04</pdfrwt>
<pdfrwt beam="2">  1       -1 0.11683956E+00 0.25041421E+04</pdfrwt>
<totfact> 0.41230700E+00</totfact>
</mgrwt>
</event>
<event>
12    6  0.9533401E-008  0.2458558E+04  0.7818608E-02  0.8417900E-01
         -1   -1    0    0    0  501 -0.00000000000E+00  0.00000000000E+00  0.21842729746E+04  0.21842729746E+04  0.00000000000E+00 0.  1.
          2   -1    0    0  501    0  0.00000000000E+00 -0.00000000000E+00 -0.69182122771E+03  0.69182122771E+03  0.00000000000E+00 0. -1.
         24    2    1    2    0    0  0.80012865150E+03 -0.50698980513E+03  0.80491847223E+02  0.95356496741E+03  0.74583430754E+02 0.  0.
        254    2    1    2    0    0 -0.80012865150E+03  0.50698980513E+03  0.14119598997E+04  0.19225292349E+04  0.89735354199E+03 0.  0.
         23    2    4    4    0    0 -0.18929520715E+02 -0.10837435161E+03  0.65144066224E+03  0.66736062486E+03  0.94297085563E+02 0.  0.
         23    2    4    4    0    0 -0.78119913079E+03  0.61536415674E+03  0.76051923745E+03  0.12551686101E+04  0.90075533935E+02 0.  0.
          4    1    3    3  502    0  0.75055059945E+03 -0.46421438540E+03  0.58323847385E+02  0.88443364314E+03  0.00000000000E+00 0. -1.
         -3    1    3    3    0  502  0.49578052049E+02 -0.42775419726E+02  0.22167999838E+02  0.69131324264E+02  0.00000000000E+00 0.  1.
         11    1    5    5    0    0 -0.16802680937E+02 -0.12545229876E+03  0.59677237616E+03  0.61004743939E+03  0.00000000000E+00 0.  1.
        -11    1    5    5    0    0 -0.21268397784E+01  0.17077947144E+02  0.54668286078E+02  0.57313185470E+02  0.00000000000E+00 0. -1.
          4    1    6    6  503    0 -0.78201720097E+03  0.60976402380E+03  0.76018783773E+03  0.12494993461E+04  0.00000000000E+00 0.  1.
         -4    1    6    6    0  503  0.81807018794E+00  0.56001329425E+01  0.33139971980E+00  0.56692639364E+01  0.00000000000E+00 0. -1.
<mgrwt>
<rscale>  0 0.24585576E+04</rscale>
<asrwt>0</asrwt>
<pdfrwt beam="1">  1        2 0.10643404E+00 0.24585576E+04</pdfrwt>
<pdfrwt beam="2">  1       -1 0.33604199E+00 0.24585576E+04</pdfrwt>
<totfact> 0.81604642E-01</totfact>
</mgrwt>
</event>
<event>
12    6  0.9533401E-008  0.1539226E+04  0.7818608E-02  0.8858779E-01
          4   -1    0    0  501    0  0.00000000000E+00  0.00000000000E+00  0.72503085674E+03  0.72503085674E+03  0.00000000000E+00 0. -1.
         -3   -1    0    0    0  501 -0.00000000000E+00 -0.00000000000E+00 -0.81693681382E+03  0.81693681382E+03  0.00000000000E+00 0.  1.
         24    2    1    2    0    0 -0.19210072555E+03  0.34654398235E+03  0.25066101643E+03  0.47565237525E+03  0.80117516584E+02 0.  0.
        254    2    1    2    0    0  0.19210072555E+03 -0.34654398235E+03 -0.34256697351E+03  0.10663152953E+04  0.92880609237E+03 0.  0.
         23    2    4    4    0    0  0.27625365544E+03 -0.50557210488E+03  0.89447156473E+02  0.58969585158E+03  0.88437368777E+02 0.  0.
         23    2    4    4    0    0 -0.84152929889E+02  0.15902812253E+03 -0.43201412998E+03  0.47661944373E+03  0.90322900053E+02 0.  0.
          2    1    3    3  502    0 -0.19187152433E+03  0.29798115683E+03  0.23217602859E+03  0.42368993371E+03  0.00000000000E+00 0. -1.
         -1    1    3    3    0  502 -0.22920122437E+00  0.48562825518E+02  0.18484987838E+02  0.51962441541E+02  0.00000000000E+00 0.  1.
         11    1    5    5    0    0  0.11323674899E+03 -0.12631649825E+03  0.36296637913E+02  0.17348159838E+03  0.00000000000E+00 0. -1.
        -11    1    5    5    0    0  0.16301690645E+03 -0.37925560662E+03  0.53150518560E+02  0.41621425320E+03  0.00000000000E+00 0.  1.
          4    1    6    6  503    0 -0.45098218500E+02  0.15040830193E+03 -0.29901936508E+03  0.33774115428E+03  0.00000000000E+00 0.  1.
         -4    1    6    6    0  503 -0.39054711389E+02  0.86198205931E+01 -0.13299476491E+03  0.13887828945E+03  0.00000000000E+00 0. -1.
<mgrwt>
<rscale>  0 0.15392263E+04</rscale>
<asrwt>0</asrwt>
<pdfrwt beam="1">  1        4 0.11154321E+00 0.15392263E+04</pdfrwt>
<pdfrwt beam="2">  1       -3 0.12568259E+00 0.15392263E+04</pdfrwt>
<totfact> 0.70498651E-01</totfact>
</mgrwt>
</event>
<event>
12    6  0.1051087E-007  0.2330209E+04  0.7818608E-02  0.8466104E-01
          2   -1    0    0  501    0  0.00000000000E+00  0.00000000000E+00  0.17866133251E+04  0.17866133251E+04  0.00000000000E+00 0. -1.
         -1   -1    0    0    0  501 -0.00000000000E+00 -0.00000000000E+00 -0.75980003531E+03  0.75980003531E+03  0.00000000000E+00 0.  1.
         24    2    1    2    0    0  0.10866839678E+03  0.31908330788E+03  0.14248915016E+04  0.14666871852E+04  0.85044282952E+02 0.  0.
        254    2    1    2    0    0 -0.10866839678E+03 -0.31908330788E+03 -0.39807821186E+03  0.10797261752E+04  0.94536732162E+03 0.  0.
         23    2    4    4    0    0  0.13447661576E+03 -0.38915295483E+03  0.16618227570E+03  0.45315178310E+03  0.90587015208E+02 0.  0.
         23    2    4    4    0    0 -0.24314501254E+03  0.70069646958E+02 -0.56426048756E+03  0.62657439208E+03  0.10087774002E+03 0.  0.
          4    1    3    3  502    0  0.90521632031E+02  0.28438259773E+03  0.13450244171E+04  0.13777366622E+04  0.00000000000E+00 0. -1.
         -1    1    3    3    0  502  0.18146764749E+02  0.34700710142E+02  0.79867084461E+02  0.88950522964E+02  0.00000000000E+00 0.  1.
         11    1    5    5    0    0  0.21417695008E+02 -0.18912068637E+02 -0.64407536071E+01  0.29289371905E+02  0.00000000000E+00 0.  1.
        -11    1    5    5    0    0  0.11305892076E+03 -0.37024088620E+03  0.17262302931E+03  0.42386241119E+03  0.00000000000E+00 0. -1.
          4    1    6    6  503    0 -0.12094298760E+03  0.81827319813E+02 -0.35659521675E+03  0.38533500376E+03  0.00000000000E+00 0. -1.
         -4    1    6    6    0  503 -0.12220202494E+03 -0.11757672856E+02 -0.20766527082E+03  0.24123938831E+03  0.00000000000E+00 0.  1.
<mgrwt>
<rscale>  0 0.23302093E+04</rscale>
<asrwt>0</asrwt>
<pdfrwt beam="1">  1        2 0.27486359E+00 0.23302093E+04</pdfrwt>
<pdfrwt beam="2">  1       -1 0.11689231E+00 0.23302093E+04</pdfrwt>
<totfact> 0.59641046E+00</totfact>
</mgrwt>
</event>
<event>
12    6  0.9533401E-008  0.1355943E+04  0.7818608E-02  0.8986342E-01
         -1   -1    0    0    0  501 -0.00000000000E+00  0.00000000000E+00  0.29143542016E+03  0.29143542016E+03  0.00000000000E+00 0.  1.
          2   -1    0    0  501    0  0.00000000000E+00 -0.00000000000E+00 -0.15771766991E+04  0.15771766991E+04  0.00000000000E+00 0. -1.
         24    2    1    2    0    0 -0.34823562181E+03 -0.30885444854E+02 -0.18879611327E+03  0.40567147432E+03  0.81874377486E+02 0.  0.
        254    2    1    2    0    0  0.34823562181E+03  0.30885444854E+02 -0.10969451657E+04  0.14629406449E+04  0.90259884508E+03 0.  0.
         23    2    4    4    0    0  0.10912916623E+03  0.45190704890E+03 -0.57909802344E+03  0.74823449475E+03  0.91494167146E+02 0.  0.
         23    2    4    4    0    0  0.23910645559E+03 -0.42102160404E+03 -0.51784714223E+03  0.71470615019E+03  0.90598731921E+02 0.  0.
          2    1    3    3  502    0 -0.24224177187E+02  0.36952224505E+01 -0.41232769341E+02  0.47964640068E+02  0.00000000000E+00 0. -1.
         -1    1    3    3    0  502 -0.32401144462E+03 -0.34580667304E+02 -0.14756334392E+03  0.35770683425E+03  0.00000000000E+00 0.  1.
         11    1    5    5    0    0  0.12522647736E+03  0.37907935981E+03 -0.48859557575E+03  0.63095837288E+03  0.00000000000E+00 0. -1.
        -11    1    5    5    0    0 -0.16097311133E+02  0.72827689086E+02 -0.90502447691E+02  0.11727612187E+03  0.00000000000E+00 0.  1.
          1    1    6    6  503    0  0.23660087531E+03 -0.35919588237E+03 -0.44064667074E+03  0.61576874274E+03  0.00000000000E+00 0. -1.
         -1    1    6    6    0  503  0.25055802775E+01 -0.61825721672E+02 -0.77200471496E+02  0.98937407445E+02  0.00000000000E+00 0.  1.
<mgrwt>
<rscale>  0 0.13559427E+04</rscale>
<asrwt>0</asrwt>
<pdfrwt beam="1">  1        2 0.24264257E+00 0.13559427E+04</pdfrwt>
<pdfrwt beam="2">  1       -1 0.44836218E-01 0.13559427E+04</pdfrwt>
<totfact> 0.62990955E+01</totfact>
</mgrwt>
</event>
<event>
12    6  0.9533401E-008  0.1846608E+04  0.7818608E-02  0.8681899E-01
          2   -1    0    0  501    0  0.00000000000E+00  0.00000000000E+00  0.22644931395E+04  0.22644931395E+04  0.00000000000E+00 0. -1.
         -3   -1    0    0    0  501 -0.00000000000E+00 -0.00000000000E+00 -0.37645969312E+03  0.37645969312E+03  0.00000000000E+00 0.  1.
         24    2    1    2    0    0  0.60401301950E+03  0.32908832578E+03  0.53181980436E+03  0.87317585055E+03  0.80454383238E+02 0.  0.
        254    2    1    2    0    0 -0.60401301950E+03 -0.32908832578E+03  0.13562136421E+04  0.17677769821E+04  0.90143727552E+03 0.  0.
         23    2    4    4    0    0  0.19640406261E+03 -0.16468239067E+03  0.56486366679E+03  0.62697104137E+03  0.91251734479E+02 0.  0.
         23    2    4    4    0    0 -0.80041708211E+03 -0.16440593510E+03  0.79134997526E+03  0.11408059407E+04  0.86640603990E+02 0.  0.
          4    1    3    3  502    0  0.73602900936E+02  0.35574347902E+02  0.98602783663E+02  0.12808368437E+03  0.00000000000E+00 0. -1.
         -3    1    3    3    0  502  0.53041011856E+03  0.29351397788E+03  0.43321702070E+03  0.74509216618E+03  0.00000000000E+00 0.  1.
         11    1    5    5    0    0  0.17057728158E+03 -0.93495445405E+02  0.43750958295E+03  0.47880334426E+03  0.00000000000E+00 0.  1.
        -11    1    5    5    0    0  0.25826781029E+02 -0.71186945266E+02  0.12735408384E+03  0.14816769711E+03  0.00000000000E+00 0. -1.
          1    1    6    6  503    0 -0.23707785997E+03 -0.63566468962E+02  0.18771777122E+03  0.30900577551E+03  0.00000000000E+00 0. -1.
         -1    1    6    6    0  503 -0.56333922213E+03 -0.10083946614E+03  0.60363220405E+03  0.83180016523E+03  0.00000000000E+00 0.  1.
<mgrwt>
<rscale>  0 0.18466081E+04</rscale>
<asrwt>0</asrwt>
<pdfrwt beam="1">  1        2 0.34838355E+00 0.18466081E+04</pdfrwt>
<pdfrwt beam="2">  1       -3 0.57916877E-01 0.18466081E+04</pdfrwt>
<totfact> 0.83951007E+00</totfact>
</mgrwt>
</event>
<event>
12    6  0.9533401E-008  0.1760819E+04  0.7818608E-02  0.8727418E-01
         -1   -1    0    0    0  501 -0.00000000000E+00  0.00000000000E+00  0.56403820681E+03  0.56403820681E+03  0.00000000000E+00 0.  1.
          2   -1    0    0  501    0  0.00000000000E+00 -0.00000000000E+00 -0.13742346214E+04  0.13742346214E+04  0.00000000000E+00 0. -1.
         24    2    1    2    0    0  0.13238363166E+03  0.26507121235E+03 -0.92732980199E+03  0.97672114470E+03  0.79091461652E+02 0.  0.
        254    2    1    2    0    0 -0.13238363166E+03 -0.26507121235E+03  0.11713338738E+03  0.96155168352E+03  0.90723383761E+03 0.  0.
         23    2    4    4    0    0 -0.50980322505E+03 -0.10201636034E+03  0.11754965723E+03  0.54075425322E+03  0.91052591455E+02 0.  0.
         23    2    4    4    0    0  0.37741959338E+03 -0.16305485201E+03 -0.41626984850E+00  0.42079743031E+03  0.89654168010E+02 0.  0.
          4    1    3    3  502    0  0.51555550238E+02  0.14948350384E+03 -0.38170636738E+03  0.41316224849E+03  0.00000000000E+00 0. -1.
         -3    1    3    3    0  502  0.80828081426E+02  0.11558770851E+03 -0.54562343461E+03  0.56355889621E+03  0.00000000000E+00 0.  1.
         11    1    5    5    0    0 -0.17751739695E+03 -0.77596787562E+02  0.28009117386E+02  0.19575034691E+03  0.00000000000E+00 0. -1.
        -11    1    5    5    0    0 -0.33228582810E+03 -0.24419572781E+02  0.89540539847E+02  0.34500390630E+03  0.00000000000E+00 0.  1.
          1    1    6    6  503    0  0.18629196883E+03 -0.32543106163E+02 -0.73608424714E+01  0.18925626386E+03  0.00000000000E+00 0. -1.
         -1    1    6    6    0  503  0.19112762455E+03 -0.13051174584E+03  0.69445726229E+01  0.23154116644E+03  0.00000000000E+00 0.  1.
<mgrwt>
<rscale>  0 0.17608189E+04</rscale>
<asrwt>0</asrwt>
<pdfrwt beam="1">  1        2 0.21142071E+00 0.17608189E+04</pdfrwt>
<pdfrwt beam="2">  1       -1 0.86775110E-01 0.17608189E+04</pdfrwt>
<totfact> 0.21152198E+01</totfact>
</mgrwt>
</event>
<event>
12    6  0.9533401E-008  0.1565807E+04  0.7818608E-02  0.8841834E-01
         -1   -1    0    0    0  501 -0.00000000000E+00  0.00000000000E+00  0.29972474464E+03  0.29972474464E+03  0.00000000000E+00 0.  1.
          2   -1    0    0  501    0  0.00000000000E+00 -0.00000000000E+00 -0.20450025856E+04  0.20450025856E+04  0.00000000000E+00 0. -1.
         24    2    1    2    0    0 -0.11611367656E+03 -0.46456961746E+03 -0.91494415978E+03  0.10358398823E+04  0.80833971100E+02 0.  0.
        254    2    1    2    0    0  0.11611367656E+03  0.46456961746E+03 -0.83033368117E+03  0.13088874479E+04  0.89130523051E+03 0.  0.
         23    2    4    4    0    0 -0.49464647152E+02  0.58941964467E+03 -0.18596971893E+03  0.62699790554E+03  0.93163127613E+02 0.  0.
         23    2    4    4    0    0  0.16557832371E+03 -0.12485002721E+03 -0.64436396224E+03  0.68188954240E+03  0.82247927768E+02 0.  0.
          2    1    3    3  502    0 -0.12308631309E+03 -0.46214024714E+03 -0.90122143642E+03  0.10202567941E+04  0.00000000000E+00 0. -1.
         -1    1    3    3    0  502  0.69726365367E+01 -0.24293703209E+01 -0.13722723355E+02  0.15583088163E+02  0.00000000000E+00 0.  1.
         11    1    5    5    0    0 -0.41867799819E+02  0.26174996177E+03 -0.12718533097E+03  0.29401031200E+03  0.00000000000E+00 0. -1.
        -11    1    5    5    0    0 -0.75968473327E+01  0.32766968290E+03 -0.58784387961E+02  0.33298759353E+03  0.00000000000E+00 0.  1.
          2    1    6    6  503    0  0.12012753388E+03 -0.12035590264E+03 -0.42372705602E+03  0.45657506032E+03  0.00000000000E+00 0. -1.
         -2    1    6    6    0  503  0.45450789831E+02 -0.44941245752E+01 -0.22063690622E+03  0.22531448208E+03  0.00000000000E+00 0.  1.
<mgrwt>
<rscale>  0 0.15658070E+04</rscale>
<asrwt>0</asrwt>
<pdfrwt beam="1">  1        2 0.31461578E+00 0.15658070E+04</pdfrwt>
<pdfrwt beam="2">  1       -1 0.46111499E-01 0.15658070E+04</pdfrwt>
<totfact> 0.32322384E+01</totfact>
</mgrwt>
</event>
<event>
12    6  0.9533401E-008  0.1544849E+04  0.7818608E-02  0.8855165E-01
         -1   -1    0    0    0  501 -0.00000000000E+00  0.00000000000E+00  0.16895311108E+03  0.16895311108E+03  0.00000000000E+00 0.  1.
          2   -1    0    0  501    0  0.00000000000E+00 -0.00000000000E+00 -0.35313908166E+04  0.35313908166E+04  0.00000000000E+00 0. -1.
         24    2    1    2    0    0 -0.31977930249E+03 -0.22969464476E+03 -0.35654709499E+03  0.53698571674E+03  0.78799726540E+02 0.  0.
        254    2    1    2    0    0  0.31977930249E+03  0.22969464476E+03 -0.30058906106E+04  0.31633582110E+04  0.90356979592E+03 0.  0.
         23    2    4    4    0    0  0.42451552601E+03 -0.20740878796E+03 -0.20101804615E+04  0.20669159607E+04  0.89912533884E+02 0.  0.
         23    2    4    4    0    0 -0.10473622352E+03  0.43710343272E+03 -0.99571014909E+03  0.10964422503E+04  0.93369265638E+02 0.  0.
          2    1    3    3  502    0 -0.39059819647E+02 -0.18718009742E+02 -0.76171777709E+02  0.87625185414E+02  0.00000000000E+00 0. -1.
         -1    1    3    3    0  502 -0.28071948285E+03 -0.21097663502E+03 -0.28037531728E+03  0.44936053132E+03  0.00000000000E+00 0.  1.
         11    1    5    5    0    0  0.32944877564E+03 -0.12643958500E+03 -0.15831893681E+04  0.16220394692E+04  0.00000000000E+00 0. -1.
        -11    1    5    5    0    0  0.95066750367E+02 -0.80969202958E+02 -0.42699109338E+03  0.44487649149E+03  0.00000000000E+00 0.  1.
          3    1    6    6  503    0 -0.11087946763E+03  0.37348731072E+03 -0.78682101429E+03  0.87799449665E+03  0.00000000000E+00 0. -1.
         -3    1    6    6    0  503  0.61432441140E+01  0.63616122002E+02 -0.20888913480E+03  0.21844775363E+03  0.00000000000E+00 0.  1.
<mgrwt>
<rscale>  0 0.15448488E+04</rscale>
<asrwt>0</asrwt>
<pdfrwt beam="1">  1        2 0.54329087E+00 0.15448488E+04</pdfrwt>
<pdfrwt beam="2">  1       -1 0.25992788E-01 0.15448488E+04</pdfrwt>
<totfact> 0.11249161E+01</totfact>
</mgrwt>
</event>
<event>
12    6  0.9533401E-008  0.1712425E+04  0.7818608E-02  0.8754309E-01
         -1   -1    0    0    0  501 -0.00000000000E+00  0.00000000000E+00  0.30985169635E+03  0.30985169635E+03  0.00000000000E+00 0.  1.
          2   -1    0    0  501    0  0.00000000000E+00 -0.00000000000E+00 -0.23659705393E+04  0.23659705393E+04  0.00000000000E+00 0. -1.
         24    2    1    2    0    0 -0.36193440783E+03 -0.39049525750E+03 -0.12338533960E+04  0.13462865658E+04  0.81303460418E+02 0.  0.
        254    2    1    2    0    0  0.36193440783E+03  0.39049525750E+03 -0.82226544697E+03  0.13295356699E+04  0.89892244967E+03 0.  0.
         23    2    4    4    0    0  0.15228501248E+03  0.55984676924E+03 -0.16145204523E+03  0.60915748018E+03  0.91580252713E+02 0.  0.
         23    2    4    4    0    0  0.20964939535E+03 -0.16935151175E+03 -0.66081340174E+03  0.72037818971E+03  0.98171181056E+02 0.  0.
          2    1    3    3  502    0 -0.25600309089E+03 -0.22906147213E+03 -0.73300874656E+03  0.80951131128E+03  0.00000000000E+00 0. -1.
         -1    1    3    3    0  502 -0.10593131694E+03 -0.16143378536E+03 -0.50084464946E+03  0.53677525451E+03  0.00000000000E+00 0.  1.
         11    1    5    5    0    0 -0.11771803016E+02  0.48519534111E+02 -0.72182484298E+01  0.50446245123E+02  0.00000000000E+00 0.  1.
        -11    1    5    5    0    0  0.16405681550E+03  0.51132723513E+03 -0.15423379680E+03  0.55871123505E+03  0.00000000000E+00 0. -1.
          4    1    6    6  503    0  0.17481085208E+03 -0.82636130133E+02 -0.44175839984E+03  0.48222199021E+03  0.00000000000E+00 0.  1.
         -4    1    6    6    0  503  0.34838543272E+02 -0.86715381614E+02 -0.21905500190E+03  0.23815619950E+03  0.00000000000E+00 0. -1.
<mgrwt>
<rscale>  0 0.17124252E+04</rscale>
<asrwt>0</asrwt>
<pdfrwt beam="1">  1        2 0.36399548E+00 0.17124252E+04</pdfrwt>
<pdfrwt beam="2">  1       -1 0.47669490E-01 0.17124252E+04</pdfrwt>
<totfact> 0.19799909E+01</totfact>
</mgrwt>
</event>
<event>
12    6  0.9533401E-008  0.1850963E+04  0.7818608E-02  0.8679658E-01
          2   -1    0    0  501    0  0.00000000000E+00  0.00000000000E+00  0.12587657593E+04  0.12587657593E+04  0.00000000000E+00 0. -1.
         -1   -1    0    0    0  501 -0.00000000000E+00 -0.00000000000E+00 -0.68044138706E+03  0.68044138706E+03  0.00000000000E+00 0.  1.
         24    2    1    2    0    0  0.36805263260E+02 -0.69657353604E+02 -0.50850960806E+03  0.52083754794E+03  0.80516802844E+02 0.  0.
        254    2    1    2    0    0 -0.36805263260E+02  0.69657353604E+02  0.10868339803E+04  0.14183695984E+04  0.90794132117E+03 0.  0.
         23    2    4    4    0    0 -0.21915935184E+03  0.10941325649E+03  0.11671081486E+04  0.11959321095E+04  0.90056081378E+02 0.  0.
         23    2    4    4    0    0  0.18235408858E+03 -0.39755902888E+02 -0.80274168270E+02  0.22243748896E+03  0.90559091026E+02 0.  0.
          4    1    3    3  502    0  0.31056602592E+01 -0.35940988282E+02 -0.61548854137E+02  0.71341861554E+02  0.00000000000E+00 0. -1.
         -3    1    3    3    0  502  0.33699603000E+02 -0.33716365322E+02 -0.44696075392E+03  0.44949568639E+03  0.00000000000E+00 0.  1.
         11    1    5    5    0    0 -0.13008705704E+03  0.85537044805E+02  0.53707179122E+03  0.55918274058E+03  0.00000000000E+00 0.  1.
        -11    1    5    5    0    0 -0.89072294801E+02  0.23876211687E+02  0.63003635735E+03  0.63674936888E+03  0.00000000000E+00 0. -1.
          2    1    6    6  503    0  0.47929680756E+01 -0.25849674012E+02  0.17584833551E+01  0.26349012377E+02  0.00000000000E+00 0. -1.
         -2    1    6    6    0  503  0.17756112051E+03 -0.13906228876E+02 -0.82032651625E+02  0.19608847659E+03  0.00000000000E+00 0.  1.
<mgrwt>
<rscale>  0 0.18509633E+04</rscale>
<asrwt>0</asrwt>
<pdfrwt beam="1">  1        2 0.19365627E+00 0.18509633E+04</pdfrwt>
<pdfrwt beam="2">  1       -1 0.10468329E+00 0.18509633E+04</pdfrwt>
<totfact> 0.16064809E+01</totfact>
</mgrwt>
</event>
<event>
12    6  0.1192949E-007  0.2314326E+04  0.7818608E-02  0.8472294E-01
         -1   -1    0    0    0  501 -0.00000000000E+00  0.00000000000E+00  0.14239262491E+04  0.14239262491E+04  0.00000000000E+00 0.  1.
          2   -1    0    0  501    0  0.00000000000E+00 -0.00000000000E+00 -0.94037621950E+03  0.94037621950E+03  0.00000000000E+00 0. -1.
         24    2    1    2    0    0  0.85129135523E+03 -0.34161057037E+03  0.65463808583E+02  0.92316045505E+03  0.80900940966E+02 0.  0.
        254    2    1    2    0    0 -0.85129135523E+03  0.34161057037E+03  0.41808622105E+03  0.14411420136E+04  0.10299026468E+04 0.  0.
         23    2    4    4    0    0 -0.36636565532E+01 -0.25308246946E+03  0.28857537729E+03  0.39412317022E+03  0.89404508840E+02 0.  0.
         23    2    4    4    0    0 -0.84762769868E+03  0.59469303983E+03  0.12951084375E+03  0.10470188434E+04  0.85690562450E+02 0.  0.
          4    1    3    3  502    0  0.52003478072E+03 -0.23348371202E+03  0.72471835218E+02  0.57463291225E+03  0.00000000000E+00 0. -1.
         -3    1    3    3    0  502  0.33125657451E+03 -0.10812685835E+03 -0.70080266346E+01  0.34852754280E+03  0.00000000000E+00 0.  1.
         11    1    5    5    0    0 -0.38778691992E+01 -0.13728981929E+03  0.89849692887E+02  0.16412342813E+03  0.00000000000E+00 0. -1.
        -11    1    5    5    0    0  0.21421264602E+00 -0.11579265017E+03  0.19872568440E+03  0.22999974209E+03  0.00000000000E+00 0.  1.
          3    1    6    6  503    0 -0.48462313569E+03  0.33930673449E+03  0.11666728557E+03  0.60299245372E+03  0.00000000000E+00 0. -1.
         -3    1    6    6    0  503 -0.36300456299E+03  0.25538630534E+03  0.12843558186E+02  0.44402638963E+03  0.00000000000E+00 0.  1.
<mgrwt>
<rscale>  0 0.23143262E+04</rscale>
<asrwt>0</asrwt>
<pdfrwt beam="1">  1        2 0.14467326E+00 0.23143262E+04</pdfrwt>
<pdfrwt beam="2">  1       -1 0.21906558E+00 0.23143262E+04</pdfrwt>
<totfact> 0.31765863E+00</totfact>
</mgrwt>
</event>
<event>
12    6  0.9533401E-008  0.1535648E+04  0.7818608E-02  0.8861087E-01
         -1   -1    0    0    0  501 -0.00000000000E+00  0.00000000000E+00  0.70241810409E+03  0.70241810409E+03  0.00000000000E+00 0.  1.
          2   -1    0    0  501    0  0.00000000000E+00 -0.00000000000E+00 -0.83932061662E+03  0.83932061662E+03  0.00000000000E+00 0. -1.
         24    2    1    2    0    0 -0.16716650363E+03  0.46739627236E+03  0.50349261254E+02  0.50557302135E+03  0.81640164478E+02 0.  0.
        254    2    1    2    0    0  0.16716650363E+03 -0.46739627236E+03 -0.18725177378E+03  0.10361656994E+04  0.89004056895E+03 0.  0.
         23    2    4    4    0    0  0.46465207541E+03 -0.97139358839E+02  0.70860955432E+02  0.48804404466E+03  0.88476597499E+02 0.  0.
         23    2    4    4    0    0 -0.29748557178E+03 -0.37025691353E+03 -0.25811272921E+03  0.54812165470E+03  0.90704575062E+02 0.  0.
          2    1    3    3  502    0 -0.77366838914E+02  0.13733242066E+03  0.43193779163E+02  0.16343660571E+03  0.00000000000E+00 0. -1.
         -1    1    3    3    0  502 -0.89799664717E+02  0.33006385171E+03  0.71554820906E+01  0.34213641564E+03  0.00000000000E+00 0.  1.
         11    1    5    5    0    0  0.46324237879E+03 -0.88028891170E+02  0.62607438600E+02  0.47567034651E+03  0.00000000000E+00 0. -1.
        -11    1    5    5    0    0  0.14096966231E+01 -0.91104676687E+01  0.82535168320E+01  0.12373698146E+02  0.00000000000E+00 0.  1.
          1    1    6    6  503    0 -0.28630134503E+03 -0.37392344290E+03 -0.24636104930E+03  0.53148938647E+03  0.00000000000E+00 0. -1.
         -1    1    6    6    0  503 -0.11184226747E+02  0.36665293763E+01 -0.11751679915E+02  0.16632268229E+02  0.00000000000E+00 0.  1.
<mgrwt>
<rscale>  0 0.15356484E+04</rscale>
<asrwt>0</asrwt>
<pdfrwt beam="1">  1        2 0.12912625E+00 0.15356484E+04</pdfrwt>
<pdfrwt beam="2">  1       -1 0.10806432E+00 0.15356484E+04</pdfrwt>
<totfact> 0.28277490E+01</totfact>
</mgrwt>
</event>
<event>
12    6  0.9533401E-008  0.1880775E+04  0.7818608E-02  0.8664485E-01
          2   -1    0    0  501    0  0.00000000000E+00  0.00000000000E+00  0.81009095670E+03  0.81009095670E+03  0.00000000000E+00 0. -1.
         -1   -1    0    0    0  501 -0.00000000000E+00 -0.00000000000E+00 -0.10916413875E+04  0.10916413875E+04  0.00000000000E+00 0.  1.
         24    2    1    2    0    0 -0.42832450289E+03 -0.20954568453E+03  0.43723905514E+03  0.65190195365E+03  0.80167899734E+02 0.  0.
        254    2    1    2    0    0  0.42832450289E+03  0.20954568453E+03 -0.71878948599E+03  0.12498303906E+04  0.90445917896E+03 0.  0.
         23    2    4    4    0    0  0.61893543871E+03  0.31057601901E+03 -0.28327801155E+03  0.75474192713E+03  0.99249200810E+02 0.  0.
         23    2    4    4    0    0 -0.19061093582E+03 -0.10103033448E+03 -0.43551147444E+03  0.49508846347E+03  0.94354040487E+02 0.  0.
          2    1    3    3  502    0 -0.36896119827E+03 -0.14686060739E+03  0.35461277719E+03  0.53240081290E+03  0.00000000000E+00 0. -1.
         -1    1    3    3    0  502 -0.59363304620E+02 -0.62685077142E+02  0.82626277952E+02  0.11950114075E+03  0.00000000000E+00 0.  1.
         11    1    5    5    0    0  0.45680713391E+03  0.19444905569E+03 -0.23639697535E+03  0.54987882556E+03  0.00000000000E+00 0.  1.
        -11    1    5    5    0    0  0.16212830480E+03  0.11612696332E+03 -0.46881036207E+02  0.20486310157E+03  0.00000000000E+00 0. -1.
          3    1    6    6  503    0 -0.91522940988E+01 -0.21322385661E+02 -0.12197898279E+03  0.12416634350E+03  0.00000000000E+00 0. -1.
         -3    1    6    6    0  503 -0.18145864172E+03 -0.79707948821E+02 -0.31353249165E+03  0.37092211997E+03  0.00000000000E+00 0.  1.
<mgrwt>
<rscale>  0 0.18807752E+04</rscale>
<asrwt>0</asrwt>
<pdfrwt beam="1">  1        2 0.12462938E+00 0.18807752E+04</pdfrwt>
<pdfrwt beam="2">  1       -1 0.16794483E+00 0.18807752E+04</pdfrwt>
<totfact> 0.92407156E+00</totfact>
</mgrwt>
</event>
<event>
12    6  0.9533401E-008  0.1613189E+04  0.7818608E-02  0.8812486E-01
         -1   -1    0    0    0  501 -0.00000000000E+00  0.00000000000E+00  0.59508125983E+03  0.59508125983E+03  0.00000000000E+00 0.  1.
          2   -1    0    0  501    0  0.00000000000E+00 -0.00000000000E+00 -0.10932877194E+04  0.10932877194E+04  0.00000000000E+00 0. -1.
         24    2    1    2    0    0 -0.28596235665E+03  0.24516994336E+03  0.24964506096E+03  0.45882479329E+03  0.79465488946E+02 0.  0.
        254    2    1    2    0    0  0.28596235665E+03 -0.24516994336E+03 -0.74785152051E+03  0.12295441859E+04  0.90034117859E+03 0.  0.
         23    2    4    4    0    0  0.20004118179E+02 -0.17087367438E+03  0.17499538240E+03  0.26183488414E+03  0.91302493678E+02 0.  0.
         23    2    4    4    0    0  0.26595823847E+03 -0.74296268981E+02 -0.92284690291E+03  0.96770930178E+03  0.92526571002E+02 0.  0.
          4    1    3    3  502    0 -0.13859642456E+03  0.77271511130E+02  0.76361915812E+02  0.17609939670E+03  0.00000000000E+00 0. -1.
         -3    1    3    3    0  502 -0.14736593209E+03  0.16789843223E+03  0.17328314515E+03  0.28272539659E+03  0.00000000000E+00 0.  1.
         11    1    5    5    0    0 -0.20845539102E+02 -0.97842326348E+02  0.13774403875E+03  0.17023829633E+03  0.00000000000E+00 0. -1.
        -11    1    5    5    0    0  0.40849657280E+02 -0.73031348027E+02  0.37251343651E+02  0.91596587810E+02  0.00000000000E+00 0.  1.
          1    1    6    6  503    0  0.26283658042E+03 -0.66426510481E+02 -0.80229680865E+03  0.84686227834E+03  0.00000000000E+00 0. -1.
         -1    1    6    6    0  503  0.31216580463E+01 -0.78697585006E+01 -0.12055009426E+03  0.12084702344E+03  0.00000000000E+00 0.  1.
<mgrwt>
<rscale>  0 0.16131894E+04</rscale>
<asrwt>0</asrwt>
<pdfrwt beam="1">  1        2 0.16819811E+00 0.16131894E+04</pdfrwt>
<pdfrwt beam="2">  1       -1 0.91550963E-01 0.16131894E+04</pdfrwt>
<totfact> 0.27957502E+01</totfact>
</mgrwt>
</event>
<event>
12    6  0.9533401E-008  0.2463019E+04  0.7818608E-02  0.8416280E-01
          2   -1    0    0  501    0  0.00000000000E+00  0.00000000000E+00  0.30068171286E+04  0.30068171286E+04  0.00000000000E+00 0. -1.
         -1   -1    0    0    0  501 -0.00000000000E+00 -0.00000000000E+00 -0.50439220259E+03  0.50439220259E+03  0.00000000000E+00 0.  1.
         24    2    1    2    0    0 -0.44828476851E+03  0.11767170051E+03 -0.28159316698E+03  0.54805433307E+03  0.79138976056E+02 0.  0.
        254    2    1    2    0    0  0.44828476851E+03 -0.11767170051E+03  0.27840180930E+04  0.29631549981E+04  0.90262114865E+03 0.  0.
         23    2    4    4    0    0 -0.32995959517E+02  0.32996712614E+02 -0.27605775849E+02  0.10525445834E+03  0.90215884149E+02 0.  0.
         23    2    4    4    0    0  0.48128072802E+03 -0.15066841312E+03  0.28116238688E+04  0.28579005398E+04  0.89635961237E+02 0.  0.
          2    1    3    3  502    0 -0.18320890115E+03  0.28441543037E+02 -0.15224261573E+03  0.23990047286E+03  0.00000000000E+00 0. -1.
         -1    1    3    3    0  502 -0.26507586735E+03  0.89230157470E+02 -0.12935055124E+03  0.30815386021E+03  0.00000000000E+00 0.  1.
         11    1    5    5    0    0  0.63345691734E+00  0.31036349015E+02 -0.54116040479E+02  0.62387515298E+02  0.00000000000E+00 0. -1.
        -11    1    5    5    0    0 -0.33629416435E+02  0.19603635991E+01  0.26510264631E+02  0.42866943044E+02  0.00000000000E+00 0.  1.
          2    1    6    6  503    0  0.10760348088E+03 -0.29174020727E+02  0.85265589549E+03  0.85991377980E+03  0.00000000000E+00 0. -1.
         -2    1    6    6    0  503  0.37367724715E+03 -0.12149439239E+03  0.19589679734E+04  0.19979867600E+04  0.00000000000E+00 0.  1.
<mgrwt>
<rscale>  0 0.24630186E+04</rscale>
<asrwt>0</asrwt>
<pdfrwt beam="1">  1        2 0.46258724E+00 0.24630186E+04</pdfrwt>
<pdfrwt beam="2">  1       -1 0.77598802E-01 0.24630186E+04</pdfrwt>
<totfact> 0.29200688E+00</totfact>
</mgrwt>
</event>
<event>
12    6  0.9533401E-008  0.2030204E+04  0.7818608E-02  0.8592628E-01
          2   -1    0    0  501    0  0.00000000000E+00  0.00000000000E+00  0.13860047375E+04  0.13860047375E+04  0.00000000000E+00 0. -1.
         -1   -1    0    0    0  501 -0.00000000000E+00 -0.00000000000E+00 -0.74345522199E+03  0.74345522199E+03  0.00000000000E+00 0.  1.
         24    2    1    2    0    0 -0.29284844201E+03  0.28071663620E+03 -0.49369451746E+03  0.64670666654E+03  0.99665421046E+02 0.  0.
        254    2    1    2    0    0  0.29284844201E+03 -0.28071663620E+03  0.11362440330E+04  0.14827532930E+04  0.86194244908E+03 0.  0.
         23    2    4    4    0    0  0.14762678688E+03 -0.17524071112E+03 -0.73442321694E+02  0.25618735203E+03  0.87950040836E+02 0.  0.
         23    2    4    4    0    0  0.14522165513E+03 -0.10547592507E+03  0.12096863547E+04  0.12265659410E+04  0.94384484469E+02 0.  0.
          4    1    3    3  502    0 -0.20459155738E+03  0.18128492207E+03 -0.25681685165E+03  0.37506909178E+03  0.00000000000E+00 0. -1.
         -3    1    3    3    0  502 -0.88256884627E+02  0.99431714128E+02 -0.23687766581E+03  0.27163757475E+03  0.00000000000E+00 0.  1.
         11    1    5    5    0    0  0.77957270032E+02 -0.10367293680E+03 -0.85837090700E+02  0.15554234123E+03  0.00000000000E+00 0.  1.
        -11    1    5    5    0    0  0.69669516851E+02 -0.71567774324E+02  0.12394769006E+02  0.10064501080E+03  0.00000000000E+00 0. -1.
          4    1    6    6  503    0 -0.13952941820E+02 -0.10078228786E+02  0.10455218601E+03  0.10595949642E+03  0.00000000000E+00 0. -1.
         -4    1    6    6    0  503  0.15917459695E+03 -0.95397696287E+02  0.11051341687E+04  0.11206064446E+04  0.00000000000E+00 0.  1.
<mgrwt>
<rscale>  0 0.20302044E+04</rscale>
<asrwt>0</asrwt>
<pdfrwt beam="1">  1        2 0.21323150E+00 0.20302044E+04</pdfrwt>
<pdfrwt beam="2">  1       -1 0.11437773E+00 0.20302044E+04</pdfrwt>
<totfact> 0.10827435E+01</totfact>
</mgrwt>
</event>
<event>
12    6  0.9533401E-008  0.1985059E+04  0.7818608E-02  0.8613638E-01
          2   -1    0    0  501    0  0.00000000000E+00  0.00000000000E+00  0.26766502358E+04  0.26766502358E+04  0.00000000000E+00 0. -1.
         -1   -1    0    0    0  501 -0.00000000000E+00 -0.00000000000E+00 -0.36804011085E+03  0.36804011085E+03  0.00000000000E+00 0.  1.
         24    2    1    2    0    0 -0.50112456996E+02 -0.72211313608E+03  0.13762441025E+04  0.15570820355E+04  0.80610149451E+02 0.  0.
        254    2    1    2    0    0  0.50112456996E+02  0.72211313608E+03  0.93236602249E+03  0.14876083111E+04  0.90538027799E+03 0.  0.
         23    2    4    4    0    0 -0.41729225402E+03  0.32505974288E+03  0.47815410064E+03  0.71884221665E+03  0.91137954638E+02 0.  0.
         23    2    4    4    0    0  0.46740471102E+03  0.39705339320E+03  0.45421192186E+03  0.76876609447E+03  0.92597392628E+02 0.  0.
          4    1    3    3  502    0 -0.40318299079E+02 -0.67335682257E+03  0.12331665278E+04  0.14056082886E+04  0.00000000000E+00 0. -1.
         -3    1    3    3    0  502 -0.97941579169E+01 -0.48756313509E+02  0.14307757463E+03  0.15147374689E+03  0.00000000000E+00 0.  1.
         11    1    5    5    0    0 -0.14784140101E+03  0.14699957724E+03  0.13937247088E+03  0.25078006540E+03  0.00000000000E+00 0. -1.
        -11    1    5    5    0    0 -0.26945085301E+03  0.17806016564E+03  0.33878162975E+03  0.46806215125E+03  0.00000000000E+00 0.  1.
          4    1    6    6  503    0  0.67004911411E+02  0.36613013767E+02  0.92131267641E+02  0.11965927213E+03  0.00000000000E+00 0. -1.
         -4    1    6    6    0  503  0.40039979961E+03  0.36044037943E+03  0.36208065422E+03  0.64910682234E+03  0.00000000000E+00 0.  1.
<mgrwt>
<rscale>  0 0.19850588E+04</rscale>
<asrwt>0</asrwt>
<pdfrwt beam="1">  1        2 0.41179233E+00 0.19850588E+04</pdfrwt>
<pdfrwt beam="2">  1       -1 0.56621557E-01 0.19850588E+04</pdfrwt>
<totfact> 0.91757055E+00</totfact>
</mgrwt>
</event>
<event>
12    6  0.9533401E-008  0.1446834E+04  0.7818608E-02  0.8920599E-01
          2   -1    0    0  501    0  0.00000000000E+00  0.00000000000E+00  0.13840744797E+04  0.13840744797E+04  0.00000000000E+00 0. -1.
         -1   -1    0    0    0  501 -0.00000000000E+00 -0.00000000000E+00 -0.37810958273E+03  0.37810958273E+03  0.00000000000E+00 0.  1.
         24    2    1    2    0    0  0.37072375473E+03 -0.22531476330E+03  0.42631038311E+03  0.61353909310E+03  0.80540866203E+02 0.  0.
        254    2    1    2    0    0 -0.37072375473E+03  0.22531476330E+03  0.57965451384E+03  0.11486449693E+04  0.89173037699E+03 0.  0.
         23    2    4    4    0    0 -0.38690946263E+03 -0.74634524186E+02 -0.85516429903E+02  0.41346267895E+03  0.91482690340E+02 0.  0.
         23    2    4    4    0    0  0.16185707899E+02  0.29994928748E+03  0.66517094374E+03  0.73518229037E+03  0.88368905551E+02 0.  0.
          4    1    3    3  502    0  0.17807090706E+03 -0.14196293816E+03  0.26072477658E+03  0.34617933629E+03  0.00000000000E+00 0. -1.
         -3    1    3    3    0  502  0.19265284767E+03 -0.83351825140E+02  0.16558560653E+03  0.26735975681E+03  0.00000000000E+00 0.  1.
         11    1    5    5    0    0 -0.21672598527E+03 -0.33202113532E+02 -0.92966889347E+02  0.23814990142E+03  0.00000000000E+00 0. -1.
        -11    1    5    5    0    0 -0.17018347736E+03 -0.41432410654E+02  0.74504594439E+01  0.17531277753E+03  0.00000000000E+00 0.  1.
          4    1    6    6  503    0 -0.21152113894E+02  0.24742748583E+03  0.54162434240E+03  0.59583949261E+03  0.00000000000E+00 0. -1.
         -4    1    6    6    0  503  0.37337821793E+02  0.52521801650E+02  0.12354660134E+03  0.13934279776E+03  0.00000000000E+00 0.  1.
<mgrwt>
<rscale>  0 0.14468335E+04</rscale>
<asrwt>0</asrwt>
<pdfrwt beam="1">  1        2 0.21293453E+00 0.14468335E+04</pdfrwt>
<pdfrwt beam="2">  1       -1 0.58170706E-01 0.14468335E+04</pdfrwt>
<totfact> 0.48916568E+01</totfact>
</mgrwt>
</event>
<event>
12    6  0.9533401E-008  0.2649750E+04  0.7818608E-02  0.8351496E-01
         -1   -1    0    0    0  501 -0.00000000000E+00  0.00000000000E+00  0.86860553993E+03  0.86860553993E+03  0.00000000000E+00 0.  1.
          2   -1    0    0  501    0  0.00000000000E+00 -0.00000000000E+00 -0.20208180469E+04  0.20208180469E+04  0.00000000000E+00 0. -1.
         24    2    1    2    0    0  0.76222704261E+03  0.84052365943E+03 -0.22180802132E+03  0.11593450498E+04  0.86093318882E+02 0.  0.
        254    2    1    2    0    0 -0.76222704261E+03 -0.84052365943E+03 -0.93040448564E+03  0.17300785371E+04  0.91654195265E+03 0.  0.
         23    2    4    4    0    0 -0.88628095926E+03 -0.87104601971E+03 -0.95837143500E+03  0.15719626581E+04  0.91518761332E+02 0.  0.
         23    2    4    4    0    0  0.12405391665E+03  0.30522360282E+02  0.27966949359E+02  0.15811587901E+03  0.88867835716E+02 0.  0.
          4    1    3    3  502    0  0.65912611512E+03  0.76094669688E+03 -0.18100474655E+03  0.10228635439E+04  0.00000000000E+00 0. -1.
         -3    1    3    3    0  502  0.10310092749E+03  0.79576962552E+02 -0.40803274774E+02  0.13648150589E+03  0.00000000000E+00 0.  1.
         11    1    5    5    0    0 -0.17860782351E+02 -0.38589982687E+02 -0.24699896378E+02  0.49176002186E+02  0.00000000000E+00 0.  1.
        -11    1    5    5    0    0 -0.86842017691E+03 -0.83245603702E+03 -0.93367153862E+03  0.15227866559E+04  0.00000000000E+00 0. -1.
          1    1    6    6  503    0  0.71364547531E+02  0.30959228152E+02 -0.26646586390E+02  0.82227811708E+02  0.00000000000E+00 0. -1.
         -1    1    6    6    0  503  0.52689369124E+02 -0.43686786979E+00  0.54613535749E+02  0.75888067304E+02  0.00000000000E+00 0.  1.
<mgrwt>
<rscale>  0 0.26497500E+04</rscale>
<asrwt>0</asrwt>
<pdfrwt beam="1">  1        2 0.31089508E+00 0.26497500E+04</pdfrwt>
<pdfrwt beam="2">  1       -1 0.13363162E+00 0.26497500E+04</pdfrwt>
<totfact> 0.30825860E+00</totfact>
</mgrwt>
</event>
<event>
12    6  0.9533401E-008  0.2147334E+04  0.7818608E-02  0.8540674E-01
          2   -1    0    0  501    0  0.00000000000E+00  0.00000000000E+00  0.67019472402E+03  0.67019472402E+03  0.00000000000E+00 0. -1.
         -1   -1    0    0    0  501 -0.00000000000E+00 -0.00000000000E+00 -0.17200389616E+04  0.17200389616E+04  0.00000000000E+00 0.  1.
         24    2    1    2    0    0 -0.65552796042E+03 -0.32353753502E+03 -0.99085189143E+03  0.12339667107E+04  0.80578711933E+02 0.  0.
        254    2    1    2    0    0  0.65552796042E+03  0.32353753502E+03 -0.58992346119E+02  0.11562669749E+04  0.89391262266E+03 0.  0.
         23    2    4    4    0    0  0.13129492916E+03  0.54809445003E+03  0.30189314462E+02  0.57188965866E+03  0.92198169181E+02 0.  0.
         23    2    4    4    0    0  0.52423303126E+03 -0.22455691502E+03 -0.89181660581E+02  0.58437731627E+03  0.91090065517E+02 0.  0.
          4    1    3    3  502    0 -0.62804865143E+02 -0.11307948873E+02 -0.64297403423E+02  0.90589606911E+02  0.00000000000E+00 0. -1.
         -3    1    3    3    0  502 -0.59272309528E+03 -0.31222958614E+03 -0.92655448800E+03  0.11433771037E+04  0.00000000000E+00 0.  1.
         11    1    5    5    0    0  0.10749009886E+03  0.45736075491E+03  0.59588607682E+02  0.47358608895E+03  0.00000000000E+00 0. -1.
        -11    1    5    5    0    0  0.23804830297E+02  0.90733695126E+02 -0.29399293220E+02  0.98303569714E+02  0.00000000000E+00 0.  1.
          4    1    6    6  503    0  0.24210634544E+03 -0.15017420048E+03 -0.60047743515E+02  0.29115889904E+03  0.00000000000E+00 0. -1.
         -4    1    6    6    0  503  0.28212668582E+03 -0.74382714538E+02 -0.29133917066E+02  0.29321841722E+03  0.00000000000E+00 0.  1.
<mgrwt>
<rscale>  0 0.21473342E+04</rscale>
<asrwt>0</asrwt>
<pdfrwt beam="1">  1        2 0.10310688E+00 0.21473342E+04</pdfrwt>
<pdfrwt beam="2">  1       -1 0.26462138E+00 0.21473342E+04</pdfrwt>
<totfact> 0.25396015E+00</totfact>
</mgrwt>
</event>
<event>
12    6  0.9533401E-008  0.1006449E+04  0.7818608E-02  0.9301500E-01
         -1   -1    0    0    0  501 -0.00000000000E+00  0.00000000000E+00  0.16675171375E+03  0.16675171375E+03  0.00000000000E+00 0.  1.
          2   -1    0    0  501    0  0.00000000000E+00 -0.00000000000E+00 -0.15186330957E+04  0.15186330957E+04  0.00000000000E+00 0. -1.
         24    2    1    2    0    0 -0.17687693602E+02  0.61027247032E+02 -0.20115870714E+03  0.22600305072E+03  0.81088680398E+02 0.  0.
        254    2    1    2    0    0  0.17687693602E+02 -0.61027247032E+02 -0.11507226748E+04  0.14593817587E+04  0.89531852658E+03 0.  0.
         23    2    4    4    0    0 -0.16107827803E+03 -0.43090181609E+03 -0.51460848005E+03  0.69605796241E+03  0.89734121300E+02 0.  0.
         23    2    4    4    0    0  0.17876597163E+03  0.36987456906E+03 -0.63611419477E+03  0.76332379634E+03  0.96215798204E+02 0.  0.
          2    1    3    3  502    0 -0.47869545710E+02  0.53179806934E+02 -0.14755110806E+03  0.16398449549E+03  0.00000000000E+00 0. -1.
         -1    1    3    3    0  502  0.30181852109E+02  0.78474400986E+01 -0.53607599085E+02  0.62018555227E+02  0.00000000000E+00 0.  1.
         11    1    5    5    0    0 -0.14126469132E+03 -0.42262995404E+03 -0.50161478829E+03  0.67096139002E+03  0.00000000000E+00 0.  1.
        -11    1    5    5    0    0 -0.19813586708E+02 -0.82718620562E+01 -0.12993691759E+02  0.25096572389E+02  0.00000000000E+00 0. -1.
          2    1    6    6  503    0  0.18923135354E+03  0.33953223671E+03 -0.57126335764E+03  0.69096488240E+03  0.00000000000E+00 0.  1.
         -2    1    6    6    0  503 -0.10465381902E+02  0.30342332354E+02 -0.64850837124E+02  0.72358913941E+02  0.00000000000E+00 0. -1.
<mgrwt>
<rscale>  0 0.10064486E+04</rscale>
<asrwt>0</asrwt>
<pdfrwt beam="1">  1        2 0.23363587E+00 0.10064486E+04</pdfrwt>
<pdfrwt beam="2">  1       -1 0.25654109E-01 0.10064486E+04</pdfrwt>
<totfact> 0.18863251E+02</totfact>
</mgrwt>
</event>
<event>
12    6  0.9533401E-008  0.1507924E+04  0.7818608E-02  0.8879200E-01
          2   -1    0    0  501    0  0.00000000000E+00  0.00000000000E+00  0.16392586618E+04  0.16392586618E+04  0.00000000000E+00 0. -1.
         -1   -1    0    0    0  501 -0.00000000000E+00 -0.00000000000E+00 -0.34677810526E+03  0.34677810526E+03  0.00000000000E+00 0.  1.
         24    2    1    2    0    0 -0.23719180674E+03 -0.32217957156E+03  0.71872163016E+02  0.41428277781E+03  0.80031135559E+02 0.  0.
        254    2    1    2    0    0  0.23719180674E+03  0.32217957156E+03  0.12206083935E+04  0.15717539892E+04  0.90579585054E+03 0.  0.
         23    2    4    4    0    0  0.25303455545E+03  0.61709750643E+03  0.74261638272E+03  0.10023871212E+04  0.92005598261E+02 0.  0.
         23    2    4    4    0    0 -0.15842748709E+02 -0.29491793487E+03  0.47799201077E+03  0.56936686805E+03  0.92058063632E+02 0.  0.
          2    1    3    3  502    0 -0.61944647823E+02 -0.60528652301E+02  0.46612248452E+02  0.98354251810E+02  0.00000000000E+00 0. -1.
         -1    1    3    3    0  502 -0.17524715892E+03 -0.26165091926E+03  0.25259914564E+02  0.31592852600E+03  0.00000000000E+00 0.  1.
         11    1    5    5    0    0  0.23254336300E+01  0.25603183527E+02  0.58564759141E+02  0.63959062388E+02  0.00000000000E+00 0.  1.
        -11    1    5    5    0    0  0.25070912182E+03  0.59149432290E+03  0.68405162358E+03  0.93842805878E+03  0.00000000000E+00 0. -1.
          4    1    6    6  503    0 -0.22778449084E+02 -0.29761425059E+03  0.47568237485E+03  0.56157530362E+03  0.00000000000E+00 0. -1.
         -4    1    6    6    0  503  0.69357003741E+01  0.26963157223E+01  0.23096359231E+01  0.77915644290E+01  0.00000000000E+00 0.  1.
<mgrwt>
<rscale>  0 0.15079244E+04</rscale>
<asrwt>0</asrwt>
<pdfrwt beam="1">  1        2 0.25219364E+00 0.15079244E+04</pdfrwt>
<pdfrwt beam="2">  1       -1 0.53350479E-01 0.15079244E+04</pdfrwt>
<totfact> 0.41335608E+01</totfact>
</mgrwt>
</event>
<event>
12    6  0.9533401E-008  0.2108949E+04  0.7818608E-02  0.8557312E-01
         -1   -1    0    0    0  501 -0.00000000000E+00  0.00000000000E+00  0.10461559670E+04  0.10461559670E+04  0.00000000000E+00 0.  1.
          2   -1    0    0  501    0  0.00000000000E+00 -0.00000000000E+00 -0.10628588216E+04  0.10628588216E+04  0.00000000000E+00 0. -1.
         24    2    1    2    0    0 -0.58885144894E+03 -0.40870893947E+03  0.47311522944E+03  0.86250420766E+03  0.79287210720E+02 0.  0.
        254    2    1    2    0    0  0.58885144894E+03  0.40870893947E+03 -0.48981808404E+03  0.12465105809E+04  0.89447070761E+03 0.  0.
         23    2    4    4    0    0  0.31439414103E+03 -0.21766492642E+03  0.12262424189E+02  0.39323240610E+03  0.90882682911E+02 0.  0.
         23    2    4    4    0    0  0.27445730791E+03  0.62637386589E+03 -0.50208050823E+03  0.85327817482E+03  0.91256633457E+02 0.  0.
          2    1    3    3  502    0 -0.45421957133E+03 -0.31346960749E+03  0.40269587723E+03  0.68318561412E+03  0.00000000000E+00 0. -1.
         -1    1    3    3    0  502 -0.13463187761E+03 -0.95239331982E+02  0.70419352213E+02  0.17931859355E+03  0.00000000000E+00 0.  1.
         11    1    5    5    0    0  0.34636425567E+02 -0.22322926884E+02  0.30915913024E+02  0.51514936852E+02  0.00000000000E+00 0. -1.
        -11    1    5    5    0    0  0.27975771547E+03 -0.19534199953E+03 -0.18653488836E+02  0.34171746925E+03  0.00000000000E+00 0.  1.
          1    1    6    6  503    0  0.93515132514E+02  0.12247035818E+03 -0.12493523304E+03  0.19837560610E+03  0.00000000000E+00 0. -1.
         -1    1    6    6    0  503  0.18094217540E+03  0.50390350770E+03 -0.37714527519E+03  0.65490256872E+03  0.00000000000E+00 0.  1.
<mgrwt>
<rscale>  0 0.21089486E+04</rscale>
<asrwt>0</asrwt>
<pdfrwt beam="1">  1        2 0.16351674E+00 0.21089486E+04</pdfrwt>
<pdfrwt beam="2">  1       -1 0.16094707E+00 0.21089486E+04</pdfrwt>
<totfact> 0.69365673E+00</totfact>
</mgrwt>
</event>
<event>
12    6  0.9533401E-008  0.1404836E+04  0.7818608E-02  0.8950325E-01
         -1   -1    0    0    0  501 -0.00000000000E+00  0.00000000000E+00  0.93296511150E+03  0.93296511150E+03  0.00000000000E+00 0.  1.
          2   -1    0    0  501    0  0.00000000000E+00 -0.00000000000E+00 -0.52884219743E+03  0.52884219743E+03  0.00000000000E+00 0. -1.
         24    2    1    2    0    0 -0.84992101739E+02 -0.34075664611E+03  0.29625951869E+03  0.46632570060E+03  0.79694462804E+02 0.  0.
        254    2    1    2    0    0  0.84992101739E+02  0.34075664611E+03  0.10786339538E+03  0.99548160834E+03  0.92520828533E+03 0.  0.
         23    2    4    4    0    0 -0.10304310334E+03  0.62239800124E+03  0.93760884693E+02  0.64369953524E+03  0.86953062510E+02 0.  0.
         23    2    4    4    0    0  0.18803520508E+03 -0.28164135512E+03  0.14102510689E+02  0.35178207310E+03  0.94194770981E+02 0.  0.
          4    1    3    3  502    0  0.55275083316E+01 -0.13322169695E+03  0.99649872789E+02  0.16645921733E+03  0.00000000000E+00 0. -1.
         -3    1    3    3    0  502 -0.90519610071E+02 -0.20753494916E+03  0.19660964590E+03  0.29986648328E+03  0.00000000000E+00 0.  1.
         11    1    5    5    0    0 -0.95519704816E+02  0.43945488078E+03  0.99174996241E+02  0.46052175424E+03  0.00000000000E+00 0.  1.
        -11    1    5    5    0    0 -0.75233985246E+01  0.18294312046E+03 -0.54141115483E+01  0.18317778100E+03  0.00000000000E+00 0. -1.
          1    1    6    6  503    0  0.86302141664E+02 -0.83265170768E+02  0.42085124973E+02  0.12709172303E+03  0.00000000000E+00 0. -1.
         -1    1    6    6    0  503  0.10173306342E+03 -0.19837618436E+03 -0.27982614284E+02  0.22469035007E+03  0.00000000000E+00 0.  1.
<mgrwt>
<rscale>  0 0.14048364E+04</rscale>
<asrwt>0</asrwt>
<pdfrwt beam="1">  1        2 0.81360338E-01 0.14048364E+04</pdfrwt>
<pdfrwt beam="2">  1       -1 0.14353309E+00 0.14048364E+04</pdfrwt>
<totfact> 0.25181184E+01</totfact>
</mgrwt>
</event>
<event>
12    6  0.9533401E-008  0.1498468E+04  0.7818608E-02  0.8885472E-01
         -1   -1    0    0    0  501 -0.00000000000E+00  0.00000000000E+00  0.71928526993E+03  0.71928526993E+03  0.00000000000E+00 0.  1.
          2   -1    0    0  501    0  0.00000000000E+00 -0.00000000000E+00 -0.78042955971E+03  0.78042955971E+03  0.00000000000E+00 0. -1.
         24    2    1    2    0    0 -0.32475210728E+03 -0.28690583021E+03 -0.16297559289E+03  0.46982309870E+03  0.79961325644E+02 0.  0.
        254    2    1    2    0    0  0.32475210728E+03  0.28690583021E+03  0.10183130311E+03  0.10298917310E+04  0.92872411221E+03 0.  0.
         23    2    4    4    0    0  0.12970019089E+03 -0.10899002402E+03  0.43028777789E+03  0.47139388432E+03  0.91453034475E+02 0.  0.
         23    2    4    4    0    0  0.19505191639E+03  0.39589585423E+03 -0.32845647478E+03  0.55849784664E+03  0.96215442564E+02 0.  0.
          4    1    3    3  502    0 -0.13260406513E+03 -0.10551614751E+03 -0.23660331916E+02  0.17110612725E+03  0.00000000000E+00 0. -1.
         -3    1    3    3    0  502 -0.19214804215E+03 -0.18138968270E+03 -0.13931526097E+03  0.29871697145E+03  0.00000000000E+00 0.  1.
         11    1    5    5    0    0  0.11033548361E+03 -0.81446901932E+02  0.22603617179E+03  0.26438583119E+03  0.00000000000E+00 0. -1.
        -11    1    5    5    0    0  0.19364707279E+02 -0.27543122085E+02  0.20425160610E+03  0.20700805312E+03  0.00000000000E+00 0.  1.
          3    1    6    6  503    0  0.29250293177E+02  0.16284966437E+03 -0.12918803790E+03  0.20991698829E+03  0.00000000000E+00 0. -1.
         -3    1    6    6    0  503  0.16580162321E+03  0.23304618986E+03 -0.19926843688E+03  0.34858085834E+03  0.00000000000E+00 0.  1.
<mgrwt>
<rscale>  0 0.14984679E+04</rscale>
<asrwt>0</asrwt>
<pdfrwt beam="1">  1        2 0.12006609E+00 0.14984679E+04</pdfrwt>
<pdfrwt beam="2">  1       -1 0.11065927E+00 0.14984679E+04</pdfrwt>
<totfact> 0.29562145E+01</totfact>
</mgrwt>
</event>
<event>
12    6  0.9533401E-008  0.2186564E+04  0.7818608E-02  0.8524041E-01
          2   -1    0    0  501    0  0.00000000000E+00  0.00000000000E+00  0.12700236621E+04  0.12700236621E+04  0.00000000000E+00 0. -1.
         -1   -1    0    0    0  501 -0.00000000000E+00 -0.00000000000E+00 -0.94113676740E+03  0.94113676740E+03  0.00000000000E+00 0.  1.
         24    2    1    2    0    0 -0.55856155242E+03 -0.65666857049E+03 -0.14665712632E+03  0.87810679509E+03  0.79740902772E+02 0.  0.
        254    2    1    2    0    0  0.55856155242E+03  0.65666857049E+03  0.47554402097E+03  0.13330536344E+04  0.89871311158E+03 0.  0.
         23    2    4    4    0    0  0.54044648450E+03  0.14713011573E+02  0.40301904639E+03  0.68032876025E+03  0.90133206650E+02 0.  0.
         23    2    4    4    0    0  0.18115067915E+02  0.64195555891E+03  0.72524974580E+02  0.65272487413E+03  0.91404562574E+02 0.  0.
          4    1    3    3  502    0 -0.54030763299E+02 -0.50441275144E+02 -0.34111094704E+02  0.81407692528E+02  0.00000000000E+00 0. -1.
         -3    1    3    3    0  502 -0.50453078912E+03 -0.60622729534E+03 -0.11254603161E+03  0.79669910256E+03  0.00000000000E+00 0.  1.
         11    1    5    5    0    0  0.51679137410E+03 -0.53892793743E+01  0.37530316214E+03  0.63871341945E+03  0.00000000000E+00 0.  1.
        -11    1    5    5    0    0  0.23655110408E+02  0.20102290948E+02  0.27715884254E+02  0.41615340798E+02  0.00000000000E+00 0. -1.
          4    1    6    6  503    0  0.54775486339E+01  0.57943540876E+03  0.90429529182E+02  0.58647497492E+03  0.00000000000E+00 0.  1.
         -4    1    6    6    0  503  0.12637519281E+02  0.62520150155E+02 -0.17904554602E+02  0.66249899204E+02  0.00000000000E+00 0. -1.
<mgrwt>
<rscale>  0 0.21865644E+04</rscale>
<asrwt>0</asrwt>
<pdfrwt beam="1">  1        2 0.19538826E+00 0.21865644E+04</pdfrwt>
<pdfrwt beam="2">  1       -1 0.14479027E+00 0.21865644E+04</pdfrwt>
<totfact> 0.68866398E+00</totfact>
</mgrwt>
</event>
<event>
12    6  0.9533401E-008  0.1375678E+04  0.7818608E-02  0.8971615E-01
          2   -1    0    0  501    0  0.00000000000E+00  0.00000000000E+00  0.24726166116E+04  0.24726166116E+04  0.00000000000E+00 0. -1.
         -1   -1    0    0    0  501 -0.00000000000E+00 -0.00000000000E+00 -0.19134479136E+03  0.19134479136E+03  0.00000000000E+00 0.  1.
         24    2    1    2    0    0  0.20880005306E+03 -0.12062033935E+03  0.67743881141E+02  0.26270011149E+03  0.79217338510E+02 0.  0.
        254    2    1    2    0    0 -0.20880005306E+03  0.12062033935E+03  0.22135279391E+04  0.24012612914E+04  0.89900118151E+03 0.  0.
         23    2    4    4    0    0 -0.24512159921E+03  0.33159750559E+02  0.22492064065E+04  0.22645916502E+04  0.90893980144E+02 0.  0.
         23    2    4    4    0    0  0.36321546152E+02  0.87460588791E+02 -0.35678467414E+02  0.13666964127E+03  0.91853298808E+02 0.  0.
          4    1    3    3  502    0  0.97277323959E+02 -0.42872387698E+02 -0.88254692480E+01  0.10667149709E+03  0.00000000000E+00 0. -1.
         -3    1    3    3    0  502  0.11152272910E+03 -0.77747951653E+02  0.76569350389E+02  0.15602861440E+03  0.00000000000E+00 0.  1.
         11    1    5    5    0    0 -0.15081059940E+03  0.34682261270E+01  0.16893157529E+04  0.16960376111E+04  0.00000000000E+00 0. -1.
        -11    1    5    5    0    0 -0.94310999813E+02  0.29691524432E+02  0.55989065360E+03  0.56855403903E+03  0.00000000000E+00 0.  1.
          2    1    6    6  503    0 -0.66120902229E+00 -0.17641367065E+02  0.45163680569E+01  0.18222310768E+02  0.00000000000E+00 0.  1.
         -2    1    6    6    0  503  0.36982755175E+02  0.10510195586E+03 -0.40194835471E+02  0.11844733050E+03  0.00000000000E+00 0. -1.
<mgrwt>
<rscale>  0 0.13756777E+04</rscale>
<asrwt>0</asrwt>
<pdfrwt beam="1">  1        2 0.38040253E+00 0.13756777E+04</pdfrwt>
<pdfrwt beam="2">  1       -1 0.29437662E-01 0.13756777E+04</pdfrwt>
<totfact> 0.42449483E+01</totfact>
</mgrwt>
</event>
<event>
12    6  0.9533401E-008  0.2573984E+04  0.7818608E-02  0.8377092E-01
         -1   -1    0    0    0  501 -0.00000000000E+00  0.00000000000E+00  0.68682816724E+03  0.68682816724E+03  0.00000000000E+00 0.  1.
          2   -1    0    0  501    0  0.00000000000E+00 -0.00000000000E+00 -0.24115902176E+04  0.24115902176E+04  0.00000000000E+00 0. -1.
         24    2    1    2    0    0 -0.40752521581E+03  0.83646944412E+03  0.11167761665E+02  0.93402002535E+03  0.80689258208E+02 0.  0.
        254    2    1    2    0    0  0.40752521581E+03 -0.83646944412E+03 -0.17359298121E+04  0.21643983595E+04  0.89744638492E+03 0.  0.
         23    2    4    4    0    0 -0.15545512793E+03 -0.59045502169E+03 -0.11750827875E+04  0.13275026762E+04  0.92953581122E+02 0.  0.
         23    2    4    4    0    0  0.56298034374E+03 -0.24601442243E+03 -0.56084702452E+03  0.83689568334E+03  0.91515224952E+02 0.  0.
          2    1    3    3  502    0 -0.60584249334E+02  0.16675922647E+03 -0.23553458079E+02  0.17898004433E+03  0.00000000000E+00 0. -1.
         -1    1    3    3    0  502 -0.34694096647E+03  0.66971021765E+03  0.34721219744E+02  0.75503998103E+03  0.00000000000E+00 0.  1.
         11    1    5    5    0    0 -0.14982151989E+03 -0.44971461920E+03 -0.85045036890E+03  0.97363009223E+03  0.00000000000E+00 0.  1.
        -11    1    5    5    0    0 -0.56336080430E+01 -0.14074040249E+03 -0.32463241865E+03  0.35387258395E+03  0.00000000000E+00 0. -1.
          1    1    6    6  503    0  0.28869395127E+02 -0.10828433405E+02 -0.61612251521E+02  0.68896781365E+02  0.00000000000E+00 0. -1.
         -1    1    6    6    0  503  0.53411094861E+03 -0.23518598903E+03 -0.49923477300E+03  0.76799890197E+03  0.00000000000E+00 0.  1.
<mgrwt>
<rscale>  0 0.25739838E+04</rscale>
<asrwt>0</asrwt>
<pdfrwt beam="1">  1        2 0.37101388E+00 0.25739838E+04</pdfrwt>
<pdfrwt beam="2">  1       -1 0.10566587E+00 0.25739838E+04</pdfrwt>
<totfact> 0.33104324E+00</totfact>
</mgrwt>
</event>
<event>
12    6  0.9533401E-008  0.1559037E+04  0.7818608E-02  0.8846116E-01
          2   -1    0    0  501    0  0.00000000000E+00  0.00000000000E+00  0.94313147666E+03  0.94313147666E+03  0.00000000000E+00 0. -1.
         -1   -1    0    0    0  501 -0.00000000000E+00 -0.00000000000E+00 -0.64428864552E+03  0.64428864552E+03  0.00000000000E+00 0.  1.
         24    2    1    2    0    0  0.18442786891E+03 -0.30885260019E+03  0.47956371899E+03  0.60471267435E+03  0.79325219688E+02 0.  0.
        254    2    1    2    0    0 -0.18442786891E+03  0.30885260019E+03 -0.18072088784E+03  0.98270744783E+03  0.89646546015E+03 0.  0.
         23    2    4    4    0    0  0.16097872338E+03 -0.22645122582E+03  0.53161634981E+02  0.29764891536E+03  0.92598111886E+02 0.  0.
         23    2    4    4    0    0 -0.34540659229E+03  0.53530382601E+03 -0.23388252282E+03  0.68505853247E+03  0.93532124333E+02 0.  0.
          4    1    3    3  502    0  0.15950331708E+03 -0.22433209639E+03  0.40268151921E+03  0.48776900634E+03  0.00000000000E+00 0. -1.
         -1    1    3    3    0  502  0.24924551836E+02 -0.84520503791E+02  0.76882199771E+02  0.11694366801E+03  0.00000000000E+00 0.  1.
         11    1    5    5    0    0  0.62033605901E+01 -0.73233556587E+01 -0.17732349937E+02  0.20163071567E+02  0.00000000000E+00 0. -1.
        -11    1    5    5    0    0  0.15477536279E+03 -0.21912787017E+03  0.70893984918E+02  0.27748584380E+03  0.00000000000E+00 0.  1.
          4    1    6    6  503    0  0.21208041666E+01 -0.25793747396E+01 -0.12092053693E+00  0.33414975889E+01  0.00000000000E+00 0. -1.
         -4    1    6    6    0  503 -0.34752739646E+03  0.53788320075E+03 -0.23376160229E+03  0.68171703488E+03  0.00000000000E+00 0.  1.
<mgrwt>
<rscale>  0 0.15590368E+04</rscale>
<asrwt>0</asrwt>
<pdfrwt beam="1">  1        2 0.14509715E+00 0.15590368E+04</pdfrwt>
<pdfrwt beam="2">  1       -1 0.99121330E-01 0.15590368E+04</pdfrwt>
<totfact> 0.29295851E+01</totfact>
</mgrwt>
</event>
<event>
12    6  0.9533401E-008  0.1544019E+04  0.7818608E-02  0.8855697E-01
          2   -1    0    0  501    0  0.00000000000E+00  0.00000000000E+00  0.10974898630E+04  0.10974898630E+04  0.00000000000E+00 0. -1.
         -1   -1    0    0    0  501 -0.00000000000E+00 -0.00000000000E+00 -0.54305592685E+03  0.54305592685E+03  0.00000000000E+00 0.  1.
         24    2    1    2    0    0 -0.37706348805E+03 -0.10720325983E+03  0.49612385706E+03  0.63720634286E+03  0.78889979661E+02 0.  0.
        254    2    1    2    0    0  0.37706348805E+03  0.10720325983E+03  0.58310079033E+02  0.10033394469E+04  0.92174864662E+03 0.  0.
         23    2    4    4    0    0  0.63012590327E+03 -0.12148144011E+03  0.53722402781E+02  0.65032677021E+03  0.90677545295E+02 0.  0.
         23    2    4    4    0    0 -0.25306241522E+03  0.22868469994E+03  0.45876762522E+01  0.35301267674E+03  0.90882480043E+02 0.  0.
          2    1    3    3  502    0 -0.35969750806E+03 -0.10539087816E+03  0.43783427213E+03  0.57635786137E+03  0.00000000000E+00 0. -1.
         -1    1    3    3    0  502 -0.17365979988E+02 -0.18123816711E+01  0.58289584931E+02  0.60848481491E+02  0.00000000000E+00 0.  1.
         11    1    5    5    0    0  0.42025699745E+03 -0.93868606542E+02  0.76754717377E+02  0.43739975519E+03  0.00000000000E+00 0. -1.
        -11    1    5    5    0    0  0.20986890582E+03 -0.27612833572E+02 -0.23032314596E+02  0.21292701502E+03  0.00000000000E+00 0.  1.
          1    1    6    6  503    0 -0.10932646186E+03  0.57963564495E+02  0.32929036624E+02  0.12804831715E+03  0.00000000000E+00 0.  1.
         -1    1    6    6    0  503 -0.14373595336E+03  0.17072113545E+03 -0.28341360372E+02  0.22496435959E+03  0.00000000000E+00 0. -1.
<mgrwt>
<rscale>  0 0.15440186E+04</rscale>
<asrwt>0</asrwt>
<pdfrwt beam="1">  1        2 0.16884459E+00 0.15440186E+04</pdfrwt>
<pdfrwt beam="2">  1       -1 0.83547066E-01 0.15440186E+04</pdfrwt>
<totfact> 0.34136570E+01</totfact>
</mgrwt>
</event>
<event>
12    6  0.9533401E-008  0.1996824E+04  0.7818608E-02  0.8608107E-01
         -1   -1    0    0    0  501 -0.00000000000E+00  0.00000000000E+00  0.58181079462E+03  0.58181079462E+03  0.00000000000E+00 0.  1.
          2   -1    0    0  501    0  0.00000000000E+00 -0.00000000000E+00 -0.17133171295E+04  0.17133171295E+04  0.00000000000E+00 0. -1.
         24    2    1    2    0    0 -0.63739311541E+03 -0.16986945165E+03 -0.95698969594E+03  0.11650080477E+04  0.79302325331E+02 0.  0.
        254    2    1    2    0    0  0.63739311541E+03  0.16986945165E+03 -0.17451663892E+03  0.11301198764E+04  0.90088249160E+03 0.  0.
         23    2    4    4    0    0 -0.17152146713E+02  0.23177146000E+02  0.29209743498E+03  0.30789388378E+03  0.92985783380E+02 0.  0.
         23    2    4    4    0    0  0.65454526212E+03  0.14669230565E+03 -0.46661407391E+03  0.82222599266E+03  0.91535546805E+02 0.  0.
          4    1    3    3  502    0 -0.45226965601E+03 -0.15721433806E+03 -0.68570163823E+03  0.83633182799E+03  0.00000000000E+00 0. -1.
         -3    1    3    3    0  502 -0.18512345940E+03 -0.12655113587E+02 -0.27128805770E+03  0.32867621966E+03  0.00000000000E+00 0.  1.
         11    1    5    5    0    0  0.23008200241E+02  0.19307582718E+02  0.29103422086E+02  0.41823070258E+02  0.00000000000E+00 0. -1.
        -11    1    5    5    0    0 -0.40160346954E+02  0.38695632827E+01  0.26299401290E+03  0.26607081352E+03  0.00000000000E+00 0.  1.
          1    1    6    6  503    0  0.47054339455E+03  0.63767330602E+02 -0.33907814898E+03  0.58348209031E+03  0.00000000000E+00 0.  1.
         -1    1    6    6    0  503  0.18400186758E+03  0.82924975049E+02 -0.12753592493E+03  0.23874390234E+03  0.00000000000E+00 0. -1.
<mgrwt>
<rscale>  0 0.19968239E+04</rscale>
<asrwt>0</asrwt>
<pdfrwt beam="1">  1        2 0.26358725E+00 0.19968239E+04</pdfrwt>
<pdfrwt beam="2">  1       -1 0.89509354E-01 0.19968239E+04</pdfrwt>
<totfact> 0.12475176E+01</totfact>
</mgrwt>
</event>
<event>
12    6  0.9533401E-008  0.1284297E+04  0.7818608E-02  0.9042111E-01
          2   -1    0    0  501    0  0.00000000000E+00  0.00000000000E+00  0.16010465545E+04  0.16010465545E+04  0.00000000000E+00 0. -1.
         -1   -1    0    0    0  501 -0.00000000000E+00 -0.00000000000E+00 -0.25755324336E+03  0.25755324336E+03  0.00000000000E+00 0.  1.
         24    2    1    2    0    0  0.14865393980E+03 -0.21896984113E+03  0.64020210694E+03  0.69710125869E+03  0.77753726608E+02 0.  0.
        254    2    1    2    0    0 -0.14865393980E+03  0.21896984113E+03  0.70329120420E+03  0.11614985392E+04  0.88567180909E+03 0.  0.
         23    2    4    4    0    0 -0.41757910795E+03  0.27066210134E+03  0.70930192081E+03  0.87175367179E+03  0.95994608734E+02 0.  0.
         23    2    4    4    0    0  0.26892516816E+03 -0.51692260209E+02 -0.60107166120E+01  0.28974486737E+03  0.94462286742E+02 0.  0.
          2    1    3    3  502    0  0.14011519387E+03 -0.22026569193E+03  0.63600968858E+03  0.68750095750E+03  0.00000000000E+00 0. -1.
         -1    1    3    3    0  502  0.85387459238E+01  0.12958508011E+01  0.41924183528E+01  0.96003011877E+01  0.00000000000E+00 0.  1.
         11    1    5    5    0    0 -0.33713429044E+02  0.49977715473E+02  0.12360098288E+03  0.13751934522E+03  0.00000000000E+00 0. -1.
        -11    1    5    5    0    0 -0.38386567891E+03  0.22068438587E+03  0.58570093793E+03  0.73423432657E+03  0.00000000000E+00 0.  1.
          2    1    6    6  503    0 -0.61322782928E+01  0.53678088851E+01 -0.33695613480E+01  0.88188521342E+01  0.00000000000E+00 0. -1.
         -2    1    6    6    0  503  0.27505744645E+03 -0.57060069094E+02 -0.26411552639E+01  0.28092601523E+03  0.00000000000E+00 0.  1.
<mgrwt>
<rscale>  0 0.12842971E+04</rscale>
<asrwt>0</asrwt>
<pdfrwt beam="1">  1        2 0.24631485E+00 0.12842971E+04</pdfrwt>
<pdfrwt beam="2">  1       -1 0.39623577E-01 0.12842971E+04</pdfrwt>
<totfact> 0.77141144E+01</totfact>
</mgrwt>
</event>
<event>
12    6  0.9533401E-008  0.1751636E+04  0.7818608E-02  0.8732450E-01
          2   -1    0    0  501    0  0.00000000000E+00  0.00000000000E+00  0.22793310107E+04  0.22793310107E+04  0.00000000000E+00 0. -1.
         -1   -1    0    0    0  501 -0.00000000000E+00 -0.00000000000E+00 -0.33652742105E+03  0.33652742105E+03  0.00000000000E+00 0.  1.
         24    2    1    2    0    0 -0.10959193280E+03 -0.20093059794E+03  0.16108030861E+04  0.16289004348E+04  0.79035103215E+02 0.  0.
        254    2    1    2    0    0  0.10959193280E+03  0.20093059794E+03  0.33200050353E+03  0.98695799689E+03  0.90082087917E+03 0.  0.
         23    2    4    4    0    0 -0.70126336255E+02  0.47613869869E+03  0.40947203759E+03  0.63810466505E+03  0.88794428692E+02 0.  0.
         23    2    4    4    0    0  0.17971826906E+03 -0.27520810075E+03 -0.77471534059E+02  0.34885333184E+03  0.87513733734E+02 0.  0.
          2    1    3    3  502    0 -0.11853356349E+03 -0.16340357407E+03  0.12738209231E+04  0.12897172860E+04  0.00000000000E+00 0. -1.
         -1    1    3    3    0  502  0.89416306885E+01 -0.37527023861E+02  0.33698216301E+03  0.33918314886E+03  0.00000000000E+00 0.  1.
         11    1    5    5    0    0  0.10077114622E+02  0.13202661642E+03  0.14771861449E+03  0.19837682513E+03  0.00000000000E+00 0. -1.
        -11    1    5    5    0    0 -0.80203450876E+02  0.34411208227E+03  0.26175342310E+03  0.43972783992E+03  0.00000000000E+00 0.  1.
          3    1    6    6  503    0  0.64317782466E+02 -0.17199628126E+03 -0.24689586138E+02  0.18528106642E+03  0.00000000000E+00 0. -1.
         -3    1    6    6    0  503  0.11540048659E+03 -0.10321181949E+03 -0.52781947921E+02  0.16357226542E+03  0.00000000000E+00 0.  1.
<mgrwt>
<rscale>  0 0.17516362E+04</rscale>
<asrwt>0</asrwt>
<pdfrwt beam="1">  1        2 0.35066630E+00 0.17516362E+04</pdfrwt>
<pdfrwt beam="2">  1       -1 0.51773451E-01 0.17516362E+04</pdfrwt>
<totfact> 0.18885468E+01</totfact>
</mgrwt>
</event>
<event>
12    6  0.9533401E-008  0.1307233E+04  0.7818608E-02  0.9023849E-01
         -1   -1    0    0    0  501 -0.00000000000E+00  0.00000000000E+00  0.14850493537E+04  0.14850493537E+04  0.00000000000E+00 0.  1.
          2   -1    0    0  501    0  0.00000000000E+00 -0.00000000000E+00 -0.28767720046E+03  0.28767720046E+03  0.00000000000E+00 0. -1.
         24    2    1    2    0    0 -0.14331076105E+03  0.30256794083E+03  0.30426938641E+03  0.45938255941E+03  0.79794381545E+02 0.  0.
        254    2    1    2    0    0  0.14331076105E+03 -0.30256794083E+03  0.89310276679E+03  0.13133439947E+04  0.90285910493E+03 0.  0.
         23    2    4    4    0    0  0.38725967254E+03  0.13132446877E+03  0.22739279620E+03  0.47721889342E+03  0.93884068897E+02 0.  0.
         23    2    4    4    0    0 -0.24394891149E+03 -0.43389240960E+03  0.66570997059E+03  0.83612510130E+03  0.90342268945E+02 0.  0.
          4    1    3    3  502    0 -0.36898036005E+02  0.10342294894E+03  0.15009630835E+03  0.18597492629E+03  0.00000000000E+00 0. -1.
         -3    1    3    3    0  502 -0.10641272505E+03  0.19914499189E+03  0.15417307807E+03  0.27340763312E+03  0.00000000000E+00 0.  1.
         11    1    5    5    0    0  0.36276439875E+03  0.14522296368E+03  0.21844974832E+03  0.44766953294E+03  0.00000000000E+00 0. -1.
        -11    1    5    5    0    0  0.24495273789E+02 -0.13898494914E+02  0.89430478799E+01  0.29549360472E+02  0.00000000000E+00 0.  1.
          4    1    6    6  503    0 -0.24093638121E+03 -0.40476977582E+03  0.65046750789E+03  0.80311698402E+03  0.00000000000E+00 0. -1.
         -4    1    6    6    0  503 -0.30125302832E+01 -0.29122633783E+02  0.15242462699E+02  0.33008117279E+02  0.00000000000E+00 0.  1.
<mgrwt>
<rscale>  0 0.13072335E+04</rscale>
<asrwt>0</asrwt>
<pdfrwt beam="1">  1        2 0.44258031E-01 0.13072335E+04</pdfrwt>
<pdfrwt beam="2">  1       -1 0.22846913E+00 0.13072335E+04</pdfrwt>
<totfact> 0.12487109E+01</totfact>
</mgrwt>
</event>
<event>
12    6  0.9533401E-008  0.3231013E+04  0.7818608E-02  0.8180674E-01
          2   -1    0    0  501    0  0.00000000000E+00  0.00000000000E+00  0.13065342489E+04  0.13065342489E+04  0.00000000000E+00 0. -1.
         -1   -1    0    0    0  501 -0.00000000000E+00 -0.00000000000E+00 -0.19975453190E+04  0.19975453190E+04  0.00000000000E+00 0.  1.
         24    2    1    2    0    0 -0.13258902160E+04 -0.24402725422E+03  0.34036827182E+03  0.13928513005E+04  0.81547649446E+02 0.  0.
        254    2    1    2    0    0  0.13258902160E+04  0.24402725422E+03 -0.10313793419E+04  0.19112282674E+04  0.87835982236E+03 0.  0.
         23    2    4    4    0    0  0.11582782270E+04 -0.13792735262E+03 -0.85525361425E+03  0.14492280017E+04  0.90391649728E+02 0.  0.
         23    2    4    4    0    0  0.16761198899E+03  0.38195460684E+03 -0.17612572763E+03  0.46200026573E+03  0.91874224143E+02 0.  0.
          2    1    3    3  502    0 -0.54914333287E+03 -0.12670374390E+03  0.10992885042E+03  0.57419212021E+03  0.00000000000E+00 0. -1.
         -1    1    3    3    0  502 -0.77674688313E+03 -0.11732351032E+03  0.23043942141E+03  0.81865918028E+03  0.00000000000E+00 0.  1.
         11    1    5    5    0    0  0.58727753123E+03 -0.25210318729E+02 -0.41934709101E+03  0.72206816964E+03  0.00000000000E+00 0. -1.
        -11    1    5    5    0    0  0.57100069578E+03 -0.11271703389E+03 -0.43590652323E+03  0.72715983202E+03  0.00000000000E+00 0.  1.
          2    1    6    6  503    0  0.17419880829E+03  0.37865053093E+03 -0.17960692967E+03  0.45385030415E+03  0.00000000000E+00 0. -1.
         -2    1    6    6    0  503 -0.65868193049E+01  0.33040759050E+01  0.34812020418E+01  0.81499615825E+01  0.00000000000E+00 0.  1.
<mgrwt>
<rscale>  0 0.32310131E+04</rscale>
<asrwt>0</asrwt>
<pdfrwt beam="1">  1        2 0.20100527E+00 0.32310131E+04</pdfrwt>
<pdfrwt beam="2">  1       -1 0.30731466E+00 0.32310131E+04</pdfrwt>
<totfact> 0.46398243E-01</totfact>
</mgrwt>
</event>
<event>
12    6  0.9533401E-008  0.1467864E+04  0.7818608E-02  0.8906109E-01
         -1   -1    0    0    0  501 -0.00000000000E+00  0.00000000000E+00  0.51932288387E+03  0.51932288387E+03  0.00000000000E+00 0.  1.
          2   -1    0    0  501    0  0.00000000000E+00 -0.00000000000E+00 -0.10372279550E+04  0.10372279550E+04  0.00000000000E+00 0. -1.
         24    2    1    2    0    0 -0.55394711951E+02 -0.35792221888E+03  0.12493648740E+03  0.39259924521E+03  0.85721365935E+02 0.  0.
        254    2    1    2    0    0  0.55394711951E+02  0.35792221888E+03 -0.64284155854E+03  0.11639515937E+04  0.90020061882E+03 0.  0.
         23    2    4    4    0    0  0.29512055556E+03  0.53974634639E+03 -0.56415958276E+03  0.83953913966E+03  0.90153599121E+02 0.  0.
         23    2    4    4    0    0 -0.23972584361E+03 -0.18182412751E+03 -0.78681975779E+02  0.32441245401E+03  0.92326017801E+02 0.  0.
          2    1    3    3  502    0 -0.14403672842E+02 -0.21024473520E+03  0.31437886143E+02  0.21306960167E+03  0.00000000000E+00 0. -1.
         -1    1    3    3    0  502 -0.40991039109E+02 -0.14767748367E+03  0.93498601258E+02  0.17952964354E+03  0.00000000000E+00 0.  1.
         11    1    5    5    0    0  0.10736117750E+03  0.25201858915E+03 -0.29925680231E+03  0.40570238531E+03  0.00000000000E+00 0.  1.
        -11    1    5    5    0    0  0.18775937806E+03  0.28772775724E+03 -0.26490278045E+03  0.43383675435E+03  0.00000000000E+00 0. -1.
          3    1    6    6  503    0 -0.15432564463E+03 -0.59472017096E+02 -0.46002243460E+02  0.17166692113E+03  0.00000000000E+00 0. -1.
         -3    1    6    6    0  503 -0.85400198982E+02 -0.12235211042E+03 -0.32679732319E+02  0.15274553288E+03  0.00000000000E+00 0.  1.
<mgrwt>
<rscale>  0 0.14678640E+04</rscale>
<asrwt>0</asrwt>
<pdfrwt beam="1">  1        2 0.15957353E+00 0.14678640E+04</pdfrwt>
<pdfrwt beam="2">  1       -1 0.79895829E-01 0.14678640E+04</pdfrwt>
<totfact> 0.41222512E+01</totfact>
</mgrwt>
</event>
<event>
12    6  0.9533401E-008  0.1204698E+04  0.7818608E-02  0.9108754E-01
         -1   -1    0    0    0  501 -0.00000000000E+00  0.00000000000E+00  0.20092916468E+03  0.20092916468E+03  0.00000000000E+00 0.  1.
          2   -1    0    0  501    0  0.00000000000E+00 -0.00000000000E+00 -0.18057326458E+04  0.18057326458E+04  0.00000000000E+00 0. -1.
         24    2    1    2    0    0 -0.10243820291E+03 -0.23580645411E+03 -0.45472830289E+03  0.52843053232E+03  0.79766715000E+02 0.  0.
        254    2    1    2    0    0  0.10243820291E+03  0.23580645411E+03 -0.11500751783E+04  0.14782312782E+04  0.89241051483E+03 0.  0.
         23    2    4    4    0    0  0.16122989740E+03  0.20252219561E+03  0.44495282733E+02  0.27825011247E+03  0.91831233113E+02 0.  0.
         23    2    4    4    0    0 -0.58791694489E+02  0.33284258496E+02 -0.11945704610E+04  0.11999811657E+04  0.91607350161E+02 0.  0.
          2    1    3    3  502    0 -0.73526988657E+02 -0.17395297796E+03 -0.25474627869E+03  0.31711436913E+03  0.00000000000E+00 0. -1.
         -1    1    3    3    0  502 -0.28911214256E+02 -0.61853476145E+02 -0.19998202420E+03  0.21131616318E+03  0.00000000000E+00 0.  1.
         11    1    5    5    0    0  0.44781265970E+02  0.11608791013E+03  0.47535957056E+02  0.13319696646E+03  0.00000000000E+00 0.  1.
        -11    1    5    5    0    0  0.11644863143E+03  0.86434285482E+02 -0.30406743235E+01  0.14505314602E+03  0.00000000000E+00 0. -1.
          4    1    6    6  503    0  0.36411700525E+01  0.49049424826E+02 -0.47839494001E+03  0.48091664852E+03  0.00000000000E+00 0. -1.
         -4    1    6    6    0  503 -0.62432864541E+02 -0.15765166330E+02 -0.71617552098E+03  0.71906451720E+03  0.00000000000E+00 0.  1.
<mgrwt>
<rscale>  0 0.12046981E+04</rscale>
<asrwt>0</asrwt>
<pdfrwt beam="1">  1        2 0.27780502E+00 0.12046981E+04</pdfrwt>
<pdfrwt beam="2">  1       -1 0.30912180E-01 0.12046981E+04</pdfrwt>
<totfact> 0.93199943E+01</totfact>
</mgrwt>
</event>
<event>
12    6  0.9533401E-008  0.2153909E+04  0.7818608E-02  0.8537861E-01
         -1   -1    0    0    0  501 -0.00000000000E+00  0.00000000000E+00  0.16278097286E+04  0.16278097286E+04  0.00000000000E+00 0.  1.
          2   -1    0    0  501    0  0.00000000000E+00 -0.00000000000E+00 -0.71251035510E+03  0.71251035510E+03  0.00000000000E+00 0. -1.
         24    2    1    2    0    0  0.46369822264E+03 -0.46533442558E+03 -0.26135432037E+03  0.71162803770E+03  0.80970451133E+02 0.  0.
        254    2    1    2    0    0 -0.46369822264E+03  0.46533442558E+03  0.11766536939E+04  0.16286920460E+04  0.91464293368E+03 0.  0.
         23    2    4    4    0    0  0.18006914796E+03  0.66568174447E+02  0.69366010459E+03  0.72573790031E+03  0.93139354533E+02 0.  0.
         23    2    4    4    0    0 -0.64376737060E+03  0.39876625113E+03  0.48299358930E+03  0.90295414570E+03  0.92695369128E+02 0.  0.
          2    1    3    3  502    0  0.43438650551E+03 -0.42842233338E+03 -0.26318586625E+03  0.66445777300E+03  0.00000000000E+00 0. -1.
         -1    1    3    3    0  502  0.29311717124E+02 -0.36912092197E+02  0.18315458766E+01  0.47170264696E+02  0.00000000000E+00 0.  1.
         11    1    5    5    0    0  0.10100479065E+03  0.73136090154E+02  0.31358242837E+03  0.33746821303E+03  0.00000000000E+00 0. -1.
        -11    1    5    5    0    0  0.79064357310E+02 -0.65679157068E+01  0.38007767621E+03  0.38826968729E+03  0.00000000000E+00 0.  1.
          1    1    6    6  503    0 -0.17872321801E+02  0.32015252635E+02  0.32707096665E+02  0.49134005130E+02  0.00000000000E+00 0. -1.
         -1    1    6    6    0  503 -0.62589504879E+03  0.36675099850E+03  0.45028649263E+03  0.85382014057E+03  0.00000000000E+00 0.  1.
<mgrwt>
<rscale>  0 0.21539093E+04</rscale>
<asrwt>0</asrwt>
<pdfrwt beam="1">  1        2 0.10961698E+00 0.21539093E+04</pdfrwt>
<pdfrwt beam="2">  1       -1 0.25043226E+00 0.21539093E+04</pdfrwt>
<totfact> 0.29055236E+00</totfact>
</mgrwt>
</event>
<event>
12    6  0.9533401E-008  0.3005888E+04  0.7818608E-02  0.8242051E-01
         -1   -1    0    0    0  501 -0.00000000000E+00  0.00000000000E+00  0.97763503641E+03  0.97763503641E+03  0.00000000000E+00 0.  1.
          2   -1    0    0  501    0  0.00000000000E+00 -0.00000000000E+00 -0.23105156980E+04  0.23105156980E+04  0.00000000000E+00 0. -1.
         24    2    1    2    0    0 -0.13270622698E+04 -0.31274019136E+03 -0.63021007357E+03  0.15043117496E+04  0.82996432199E+02 0.  0.
        254    2    1    2    0    0  0.13270622698E+04  0.31274019136E+03 -0.70267058798E+03  0.17838389848E+04  0.91073315146E+03 0.  0.
         23    2    4    4    0    0  0.16743358131E+03  0.42704432773E+03 -0.15395709777E+03  0.49261945899E+03  0.92575814435E+02 0.  0.
         23    2    4    4    0    0  0.11596286885E+04 -0.11430413638E+03 -0.54871349021E+03  0.12912195258E+04  0.91417933973E+02 0.  0.
          4    1    3    3  502    0 -0.53812273337E+03 -0.85181993747E+02 -0.24802935656E+03  0.59862393031E+03  0.00000000000E+00 0. -1.
         -1    1    3    3    0  502 -0.78893953647E+03 -0.22755819761E+03 -0.38218071701E+03  0.90568781926E+03  0.00000000000E+00 0.  1.
         11    1    5    5    0    0  0.16948294728E+03  0.37762547642E+03 -0.15787980501E+03  0.44300282470E+03  0.00000000000E+00 0. -1.
        -11    1    5    5    0    0 -0.20493659678E+01  0.49418851313E+02  0.39227072424E+01  0.49616634288E+02  0.00000000000E+00 0.  1.
          4    1    6    6  503    0  0.86639561686E+03 -0.12227251065E+03 -0.42731103891E+03  0.97374876418E+03  0.00000000000E+00 0. -1.
         -4    1    6    6    0  503  0.29323307167E+03  0.79683742683E+01 -0.12140245131E+03  0.31747076163E+03  0.00000000000E+00 0.  1.
<mgrwt>
<rscale>  0 0.30058883E+04</rscale>
<asrwt>0</asrwt>
<pdfrwt beam="1">  1        2 0.35546395E+00 0.30058883E+04</pdfrwt>
<pdfrwt beam="2">  1       -1 0.15040539E+00 0.30058883E+04</pdfrwt>
<totfact> 0.15064367E+00</totfact>
</mgrwt>
</event>
<event>
12    6  0.9533401E-008  0.1448502E+04  0.7818608E-02  0.8919440E-01
         -1   -1    0    0    0  501 -0.00000000000E+00  0.00000000000E+00  0.11046952375E+04  0.11046952375E+04  0.00000000000E+00 0.  1.
          2   -1    0    0  501    0  0.00000000000E+00 -0.00000000000E+00 -0.47482723850E+03  0.47482723850E+03  0.00000000000E+00 0. -1.
         24    2    1    2    0    0 -0.30322991093E+03 -0.29921314583E+03  0.28081135706E+03  0.51635931716E+03  0.79341292116E+02 0.  0.
        254    2    1    2    0    0  0.30322991093E+03  0.29921314583E+03  0.34905664197E+03  0.10631631589E+04  0.90939456649E+03 0.  0.
         23    2    4    4    0    0  0.49433447158E+03  0.69273349629E+02 -0.10011331043E+03  0.51754563077E+03  0.93088335686E+02 0.  0.
         23    2    4    4    0    0 -0.19110456065E+03  0.22993979620E+03  0.44916995240E+03  0.54561752810E+03  0.80941817699E+02 0.  0.
          4    1    3    3  502    0 -0.18085325189E+03 -0.17089123219E+03  0.20936887699E+03  0.32518769751E+03  0.00000000000E+00 0. -1.
         -3    1    3    3    0  502 -0.12237665904E+03 -0.12832191365E+03  0.71442480072E+02  0.19117161965E+03  0.00000000000E+00 0.  1.
         11    1    5    5    0    0  0.37667554723E+03  0.17057998084E+02 -0.54508513118E+02  0.38098112969E+03  0.00000000000E+00 0. -1.
        -11    1    5    5    0    0  0.11765892435E+03  0.52215351545E+02 -0.45604797312E+02  0.13656450108E+03  0.00000000000E+00 0.  1.
          3    1    6    6  503    0 -0.18695243649E+03  0.23575984929E+03  0.42729566291E+03  0.52260453842E+03  0.00000000000E+00 0. -1.
         -3    1    6    6    0  503 -0.41521241601E+01 -0.58200530816E+01  0.21874289498E+02  0.23012989679E+02  0.00000000000E+00 0.  1.
<mgrwt>
<rscale>  0 0.14485018E+04</rscale>
<asrwt>0</asrwt>
<pdfrwt beam="1">  1        2 0.73050344E-01 0.14485018E+04</pdfrwt>
<pdfrwt beam="2">  1       -1 0.16995311E+00 0.14485018E+04</pdfrwt>
<totfact> 0.17856096E+01</totfact>
</mgrwt>
</event>
<event>
12    6  0.9533401E-008  0.1355871E+04  0.7818608E-02  0.8986396E-01
          2   -1    0    0  501    0  0.00000000000E+00  0.00000000000E+00  0.14721917100E+04  0.14721917100E+04  0.00000000000E+00 0. -1.
         -3   -1    0    0    0  501 -0.00000000000E+00 -0.00000000000E+00 -0.31218507187E+03  0.31218507187E+03  0.00000000000E+00 0.  1.
         24    2    1    2    0    0 -0.32364154393E+03  0.92742704714E+02  0.55145007709E+03  0.65077741207E+03  0.77903750274E+02 0.  0.
        254    2    1    2    0    0  0.32364154393E+03 -0.92742704714E+02  0.60855656107E+03  0.11335993698E+04  0.89518790487E+03 0.  0.
         23    2    4    4    0    0 -0.69915200024E+02 -0.67243623880E+02  0.70496722487E+03  0.71719431467E+03  0.89325565739E+02 0.  0.
         23    2    4    4    0    0  0.39355674395E+03 -0.25499080834E+02 -0.96410663808E+02  0.41640505517E+03  0.92525888486E+02 0.  0.
          4    1    3    3  502    0 -0.23551129397E+03  0.42315194495E+02  0.43339781979E+03  0.49506546584E+03  0.00000000000E+00 0. -1.
         -3    1    3    3    0  502 -0.88130249957E+02  0.50427510219E+02  0.11805225730E+03  0.15571194623E+03  0.00000000000E+00 0.  1.
         11    1    5    5    0    0  0.64929431299E+01 -0.45026954160E+02  0.37590587045E+03  0.37864866083E+03  0.00000000000E+00 0.  1.
        -11    1    5    5    0    0 -0.76408143153E+02 -0.22216669720E+02  0.32906135442E+03  0.33854565383E+03  0.00000000000E+00 0. -1.
          4    1    6    6  503    0  0.31360479221E+03 -0.50243077796E+02 -0.52573009332E+02  0.32192585151E+03  0.00000000000E+00 0. -1.
         -4    1    6    6    0  503  0.79951951743E+02  0.24743996962E+02 -0.43837654475E+02  0.94479203654E+02  0.00000000000E+00 0.  1.
<mgrwt>
<rscale>  0 0.13558706E+04</rscale>
<asrwt>0</asrwt>
<pdfrwt beam="1">  1        2 0.22649103E+00 0.13558706E+04</pdfrwt>
<pdfrwt beam="2">  1       -3 0.48028473E-01 0.13558706E+04</pdfrwt>
<totfact> 0.35450926E+01</totfact>
</mgrwt>
</event>
<event>
12    6  0.9533401E-008  0.3773405E+04  0.7818608E-02  0.8051886E-01
         -1   -1    0    0    0  501 -0.00000000000E+00  0.00000000000E+00  0.23025898221E+04  0.23025898221E+04  0.00000000000E+00 0.  1.
          2   -1    0    0  501    0  0.00000000000E+00 -0.00000000000E+00 -0.15459319026E+04  0.15459319026E+04  0.00000000000E+00 0. -1.
         24    2    1    2    0    0 -0.18870996633E+03  0.17503921346E+04  0.88081149123E+02  0.17641926446E+04  0.71647207070E+02 0.  0.
        254    2    1    2    0    0  0.18870996633E+03 -0.17503921346E+04  0.66857677034E+03  0.20843290801E+04  0.89327976584E+03 0.  0.
         23    2    4    4    0    0 -0.29197680629E+02 -0.10571532754E+04 -0.44171115166E+02  0.10624027642E+04  0.91230442514E+02 0.  0.
         23    2    4    4    0    0  0.21790764696E+03 -0.69323885918E+03  0.71274788550E+03  0.10219263159E+04  0.90884478303E+02 0.  0.
          4    1    3    3  502    0 -0.12170403589E+03  0.13474580261E+04  0.86775770581E+02  0.13557230686E+04  0.00000000000E+00 0. -1.
         -3    1    3    3    0  502 -0.67005930438E+02  0.40293410849E+03  0.13053785417E+01  0.40846957599E+03  0.00000000000E+00 0.  1.
         11    1    5    5    0    0 -0.43199225835E+02 -0.61341214010E+03 -0.62240514259E+02  0.61807322248E+03  0.00000000000E+00 0. -1.
        -11    1    5    5    0    0  0.14001545206E+02 -0.44374113533E+03  0.18069399093E+02  0.44432954171E+03  0.00000000000E+00 0.  1.
          1    1    6    6  503    0  0.16551447242E+03 -0.59965436531E+03  0.63879052940E+03  0.89164664463E+03  0.00000000000E+00 0. -1.
         -1    1    6    6    0  503  0.52393174535E+02 -0.93584493865E+02  0.73957356100E+02  0.13027967129E+03  0.00000000000E+00 0.  1.
<mgrwt>
<rscale>  0 0.37734054E+04</rscale>
<asrwt>0</asrwt>
<pdfrwt beam="1">  1        2 0.23783568E+00 0.37734054E+04</pdfrwt>
<pdfrwt beam="2">  1       -1 0.35424459E+00 0.37734054E+04</pdfrwt>
<totfact> 0.15925568E-01</totfact>
</mgrwt>
</event>
<event>
12    6  0.9533401E-008  0.1591792E+04  0.7818608E-02  0.8825607E-01
         -1   -1    0    0    0  501 -0.00000000000E+00  0.00000000000E+00  0.18744158025E+03  0.18744158025E+03  0.00000000000E+00 0.  1.
          2   -1    0    0  501    0  0.00000000000E+00 -0.00000000000E+00 -0.33794532438E+04  0.33794532438E+04  0.00000000000E+00 0. -1.
         24    2    1    2    0    0 -0.52480544542E+03 -0.41377389201E+02 -0.13601368932E+04  0.14605424309E+04  0.77967816003E+02 0.  0.
        254    2    1    2    0    0  0.52480544542E+03  0.41377389201E+02 -0.18318747704E+04  0.21063523932E+04  0.89656142343E+03 0.  0.
         23    2    4    4    0    0 -0.18623243998E+03  0.16898307960E+03 -0.79131289184E+03  0.83628363510E+03  0.99781875343E+02 0.  0.
         23    2    4    4    0    0  0.71103788540E+03 -0.12760569039E+03 -0.10405618785E+04  0.12700687581E+04  0.91910502449E+02 0.  0.
          2    1    3    3  502    0 -0.49170989595E+03 -0.55478682438E+02 -0.12383809168E+04  0.13335830687E+04  0.00000000000E+00 0. -1.
         -1    1    3    3    0  502 -0.33095549477E+02  0.14101293236E+02 -0.12175597639E+03  0.12695936221E+03  0.00000000000E+00 0.  1.
         11    1    5    5    0    0 -0.41774797961E+02  0.10410037334E+03 -0.33245721170E+03  0.35087008861E+03  0.00000000000E+00 0.  1.
        -11    1    5    5    0    0 -0.14445764202E+03  0.64882706251E+02 -0.45885568015E+03  0.48541354648E+03  0.00000000000E+00 0. -1.
          1    1    6    6  503    0  0.21220499922E+03 -0.28977577858E+02 -0.23998997574E+03  0.32166107966E+03  0.00000000000E+00 0. -1.
         -1    1    6    6    0  503  0.49883288619E+03 -0.98628112536E+02 -0.80057190278E+03  0.94840767840E+03  0.00000000000E+00 0.  1.
<mgrwt>
<rscale>  0 0.15917915E+04</rscale>
<asrwt>0</asrwt>
<pdfrwt beam="1">  1        2 0.51991585E+00 0.15917915E+04</pdfrwt>
<pdfrwt beam="2">  1       -1 0.28837168E-01 0.15917915E+04</pdfrwt>
<totfact> 0.11888422E+01</totfact>
</mgrwt>
</event>
<event>
12    6  0.9533401E-008  0.1691132E+04  0.7818608E-02  0.8766439E-01
         -1   -1    0    0    0  501 -0.00000000000E+00  0.00000000000E+00  0.40902419591E+03  0.40902419591E+03  0.00000000000E+00 0.  1.
          2   -1    0    0  501    0  0.00000000000E+00 -0.00000000000E+00 -0.17480176477E+04  0.17480176477E+04  0.00000000000E+00 0. -1.
         24    2    1    2    0    0 -0.44974324017E+03  0.41035683436E+03 -0.51954108138E+03  0.80425759140E+03  0.79029263632E+02 0.  0.
        254    2    1    2    0    0  0.44974324017E+03 -0.41035683436E+03 -0.81945237045E+03  0.13527842522E+04  0.88761553169E+03 0.  0.
         23    2    4    4    0    0  0.40764590800E+03 -0.36093142963E+03 -0.99871701804E+03  0.11410977587E+04  0.90673753876E+02 0.  0.
         23    2    4    4    0    0  0.42097332165E+02 -0.49425404723E+02  0.17926464759E+03  0.21168649352E+03  0.91979898103E+02 0.  0.
          2    1    3    3  502    0 -0.29100764227E+03  0.24692925986E+03 -0.27761910181E+03  0.47194477741E+03  0.00000000000E+00 0. -1.
         -1    1    3    3    0  502 -0.15873559790E+03  0.16342757449E+03 -0.24192197957E+03  0.33231281399E+03  0.00000000000E+00 0.  1.
         11    1    5    5    0    0  0.41742965623E+02 -0.55422323951E+02 -0.78643042123E+02  0.10487534146E+03  0.00000000000E+00 0.  1.
        -11    1    5    5    0    0  0.36590294238E+03 -0.30550910568E+03 -0.92007397591E+03  0.10362224173E+04  0.00000000000E+00 0. -1.
          1    1    6    6  503    0 -0.16616832879E+02  0.15143636591E+02  0.58633347955E+02  0.62795846650E+02  0.00000000000E+00 0. -1.
         -1    1    6    6    0  503  0.58714165044E+02 -0.64569041314E+02  0.12063129963E+03  0.14889064687E+03  0.00000000000E+00 0.  1.
<mgrwt>
<rscale>  0 0.16911316E+04</rscale>
<asrwt>0</asrwt>
<pdfrwt beam="1">  1        2 0.26892579E+00 0.16911316E+04</pdfrwt>
<pdfrwt beam="2">  1       -1 0.62926800E-01 0.16911316E+04</pdfrwt>
<totfact> 0.25620732E+01</totfact>
</mgrwt>
</event>
<event>
12    6  0.9533401E-008  0.1507869E+04  0.7818608E-02  0.8879237E-01
         -1   -1    0    0    0  501 -0.00000000000E+00  0.00000000000E+00  0.48998828473E+03  0.48998828473E+03  0.00000000000E+00 0.  1.
          2   -1    0    0  501    0  0.00000000000E+00 -0.00000000000E+00 -0.11600635998E+04  0.11600635998E+04  0.00000000000E+00 0. -1.
         24    2    1    2    0    0 -0.19764632972E+03  0.27096237833E+03 -0.61335510372E+03  0.70229212003E+03  0.67268540065E+02 0.  0.
        254    2    1    2    0    0  0.19764632972E+03 -0.27096237833E+03 -0.56720211359E+02  0.94775976450E+03  0.88461670045E+03 0.  0.
         23    2    4    4    0    0  0.42019330800E+03 -0.46839550283E+03 -0.34992612245E+02  0.63681491409E+03  0.91389215595E+02 0.  0.
         23    2    4    4    0    0 -0.22254697829E+03  0.19743312450E+03 -0.21727599115E+02  0.31094485041E+03  0.87793025004E+02 0.  0.
          2    1    3    3  502    0 -0.15257804907E+03  0.23573487251E+03 -0.54558833352E+03  0.61361031677E+03  0.00000000000E+00 0. -1.
         -1    1    3    3    0  502 -0.45068280641E+02  0.35227505825E+02 -0.67766770194E+02  0.88681803258E+02  0.00000000000E+00 0.  1.
         11    1    5    5    0    0  0.64246774613E+02 -0.37126630352E+02 -0.22308125006E+02  0.77483463854E+02  0.00000000000E+00 0. -1.
        -11    1    5    5    0    0  0.35594653339E+03 -0.43126887248E+03 -0.12684487239E+02  0.55933145023E+03  0.00000000000E+00 0.  1.
          1    1    6    6  503    0 -0.13549893999E+03  0.15497913532E+03  0.17173186614E+02  0.20657544254E+03  0.00000000000E+00 0. -1.
         -1    1    6    6    0  503 -0.87048038299E+02  0.42453989181E+02 -0.38900785728E+02  0.10436940787E+03  0.00000000000E+00 0.  1.
<mgrwt>
<rscale>  0 0.15078695E+04</rscale>
<asrwt>0</asrwt>
<pdfrwt beam="1">  1        2 0.17847132E+00 0.15078695E+04</pdfrwt>
<pdfrwt beam="2">  1       -1 0.75382814E-01 0.15078695E+04</pdfrwt>
<totfact> 0.38999581E+01</totfact>
</mgrwt>
</event>
<event>
12    6  0.9533401E-008  0.2652594E+04  0.7818608E-02  0.8350552E-01
          2   -1    0    0  501    0  0.00000000000E+00  0.00000000000E+00  0.19700033140E+04  0.19700033140E+04  0.00000000000E+00 0. -1.
         -1   -1    0    0    0  501 -0.00000000000E+00 -0.00000000000E+00 -0.89292433434E+03  0.89292433434E+03  0.00000000000E+00 0.  1.
         24    2    1    2    0    0 -0.44216434647E+03 -0.14517350652E+03 -0.67672093514E+03  0.82498858461E+03  0.77912029835E+02 0.  0.
        254    2    1    2    0    0  0.44216434647E+03  0.14517350652E+03  0.17537999148E+04  0.20379390638E+04  0.92779137205E+03 0.  0.
         23    2    4    4    0    0 -0.24352601184E+03 -0.13142195304E+03  0.47890322968E+03  0.56084108617E+03  0.92831957616E+02 0.  0.
         23    2    4    4    0    0  0.68569035830E+03  0.27659545956E+03  0.12748966851E+04  0.14770979776E+04  0.98896723294E+02 0.  0.
          4    1    3    3  502    0 -0.97571109180E+02 -0.18545214284E+01 -0.16365655439E+03  0.19054403268E+03  0.00000000000E+00 0. -1.
         -3    1    3    3    0  502 -0.34459323729E+03 -0.14331898509E+03 -0.51306438075E+03  0.63444455193E+03  0.00000000000E+00 0.  1.
         11    1    5    5    0    0 -0.20232266779E+03 -0.66981617822E+02  0.38152718551E+03  0.43701715334E+03  0.00000000000E+00 0.  1.
        -11    1    5    5    0    0 -0.41203344045E+02 -0.64440335218E+02  0.97376044172E+02  0.12382393283E+03  0.00000000000E+00 0. -1.
          2    1    6    6  503    0  0.62881818748E+03  0.27228865632E+03  0.11320766472E+04  0.13233106062E+04  0.00000000000E+00 0.  1.
         -2    1    6    6    0  503  0.56872170820E+02  0.43068032336E+01  0.14282003794E+03  0.15378737141E+03  0.00000000000E+00 0. -1.
<mgrwt>
<rscale>  0 0.26525941E+04</rscale>
<asrwt>0</asrwt>
<pdfrwt beam="1">  1        2 0.30307743E+00 0.26525941E+04</pdfrwt>
<pdfrwt beam="2">  1       -1 0.13737297E+00 0.26525941E+04</pdfrwt>
<totfact> 0.30639386E+00</totfact>
</mgrwt>
</event>
<event>
12    6  0.9533401E-008  0.3623682E+04  0.7818608E-02  0.8085088E-01
          2   -1    0    0  501    0  0.00000000000E+00  0.00000000000E+00  0.18853680324E+04  0.18853680324E+04  0.00000000000E+00 0. -1.
         -1   -1    0    0    0  501 -0.00000000000E+00 -0.00000000000E+00 -0.17411816984E+04  0.17411816984E+04  0.00000000000E+00 0.  1.
         24    2    1    2    0    0 -0.72801148277E+03  0.12501302521E+04  0.96117240604E+03  0.17386581112E+04  0.79077602000E+02 0.  0.
        254    2    1    2    0    0  0.72801148277E+03 -0.12501302521E+04 -0.81698607200E+03  0.18878916196E+04  0.89657245064E+03 0.  0.
         23    2    4    4    0    0  0.79866901488E+03 -0.13164077247E+04 -0.84255710214E+03  0.17574511995E+04  0.89054787207E+02 0.  0.
         23    2    4    4    0    0 -0.70657532107E+02  0.66277472582E+02  0.25571030140E+02  0.13044042016E+03  0.83520269473E+02 0.  0.
          2    1    3    3  502    0 -0.35659284886E+03  0.68819026934E+03  0.50234190568E+03  0.92364045866E+03  0.00000000000E+00 0. -1.
         -1    1    3    3    0  502 -0.37141863391E+03  0.56193998279E+03  0.45883050035E+03  0.81501765253E+03  0.00000000000E+00 0.  1.
         11    1    5    5    0    0  0.79351308720E+03 -0.13087915492E+04 -0.82782556838E+03  0.17400843400E+04  0.00000000000E+00 0.  1.
        -11    1    5    5    0    0  0.51559276822E+01 -0.76161755590E+01 -0.14731533757E+02  0.17366859453E+02  0.00000000000E+00 0. -1.
          1    1    6    6  503    0 -0.27923136166E+02 -0.10867639808E+02 -0.14834103933E+02  0.33434380027E+02  0.00000000000E+00 0. -1.
         -1    1    6    6    0  503 -0.42734395941E+02  0.77145112389E+02  0.40405134072E+02  0.97006040128E+02  0.00000000000E+00 0.  1.
<mgrwt>
<rscale>  0 0.36236823E+04</rscale>
<asrwt>0</asrwt>
<pdfrwt beam="1">  1        2 0.29005662E+00 0.36236823E+04</pdfrwt>
<pdfrwt beam="2">  1       -1 0.26787411E+00 0.36236823E+04</pdfrwt>
<totfact> 0.38192137E-01</totfact>
</mgrwt>
</event>
<event>
12    6  0.9533401E-008  0.3986897E+04  0.7818608E-02  0.8007195E-01
         -1   -1    0    0    0  501 -0.00000000000E+00  0.00000000000E+00  0.11384218535E+04  0.11384218535E+04  0.00000000000E+00 0.  1.
          2   -1    0    0  501    0  0.00000000000E+00 -0.00000000000E+00 -0.34906541223E+04  0.34906541223E+04  0.00000000000E+00 0. -1.
         24    2    1    2    0    0 -0.84452441155E+03  0.64992701976E+03 -0.29210178934E+04  0.31103385999E+04  0.78956064971E+02 0.  0.
        254    2    1    2    0    0  0.84452441155E+03 -0.64992701976E+03  0.56878562458E+03  0.15187373759E+04  0.92055391888E+03 0.  0.
         23    2    4    4    0    0  0.64388098815E+03 -0.33812441405E+03 -0.10874176743E+03  0.74113609713E+03  0.92450506817E+02 0.  0.
         23    2    4    4    0    0  0.20064342340E+03 -0.31180260571E+03  0.67752739201E+03  0.77760127879E+03  0.90231555317E+02 0.  0.
          4    1    3    3  502    0 -0.53039443957E+03  0.40329062896E+03 -0.17136495927E+04  0.18386289782E+04  0.00000000000E+00 0. -1.
         -3    1    3    3    0  502 -0.31412997198E+03  0.24663639079E+03 -0.12073683006E+04  0.12717096217E+04  0.00000000000E+00 0.  1.
         11    1    5    5    0    0  0.58521909243E+02 -0.63712253602E+02 -0.17107407012E+02  0.88185761295E+02  0.00000000000E+00 0. -1.
        -11    1    5    5    0    0  0.58535907891E+03 -0.27441216045E+03 -0.91634360416E+02  0.65295033584E+03  0.00000000000E+00 0.  1.
          1    1    6    6  503    0  0.19492014110E+03 -0.24175839907E+03  0.57087335448E+03  0.64987488933E+03  0.00000000000E+00 0. -1.
         -1    1    6    6    0  503  0.57232823088E+01 -0.70044206638E+02  0.10665403753E+03  0.12772638946E+03  0.00000000000E+00 0.  1.
<mgrwt>
<rscale>  0 0.39868970E+04</rscale>
<asrwt>0</asrwt>
<pdfrwt beam="1">  1        2 0.53702371E+00 0.39868970E+04</pdfrwt>
<pdfrwt beam="2">  1       -1 0.17514182E+00 0.39868970E+04</pdfrwt>
<totfact> 0.16661185E-01</totfact>
</mgrwt>
</event>
<event>
12    6  0.9533401E-008  0.1842095E+04  0.7818608E-02  0.8684229E-01
         -1   -1    0    0    0  501 -0.00000000000E+00  0.00000000000E+00  0.79993870346E+03  0.79993870346E+03  0.00000000000E+00 0.  1.
          2   -1    0    0  501    0  0.00000000000E+00 -0.00000000000E+00 -0.10604914591E+04  0.10604914591E+04  0.00000000000E+00 0. -1.
         24    2    1    2    0    0  0.60846178665E+03  0.33470657724E+03 -0.10120451087E+03  0.70595867086E+03  0.76688025626E+02 0.  0.
        254    2    1    2    0    0 -0.60846178665E+03 -0.33470657724E+03 -0.15934824477E+03  0.11544714917E+04  0.90838225620E+03 0.  0.
         23    2    4    4    0    0 -0.77047099037E+03 -0.47007329932E+03 -0.82668590466E+02  0.91083942871E+03  0.90553383764E+02 0.  0.
         23    2    4    4    0    0  0.16200920372E+03  0.13536672208E+03 -0.76679654300E+02  0.24363206299E+03  0.94369916808E+02 0.  0.
          2    1    3    3  502    0  0.52737156981E+03  0.25859303878E+03 -0.89270881235E+02  0.59410472359E+03  0.00000000000E+00 0. -1.
         -1    1    3    3    0  502  0.81090216841E+02  0.76113538454E+02 -0.11933629632E+02  0.11185394727E+03  0.00000000000E+00 0.  1.
         11    1    5    5    0    0 -0.28633896600E+03 -0.21797008206E+03 -0.57442415469E+02  0.36441815435E+03  0.00000000000E+00 0.  1.
        -11    1    5    5    0    0 -0.48413202437E+03 -0.25210321726E+03 -0.25226174997E+02  0.54642127436E+03  0.00000000000E+00 0. -1.
          3    1    6    6  503    0  0.12613269845E+03  0.65564222821E+02 -0.83481426995E+02  0.16485531106E+03  0.00000000000E+00 0. -1.
         -3    1    6    6    0  503  0.35876505270E+02  0.69802499257E+02  0.68017726947E+01  0.78776751931E+02  0.00000000000E+00 0.  1.
<mgrwt>
<rscale>  0 0.18420946E+04</rscale>
<asrwt>0</asrwt>
<pdfrwt beam="1">  1        2 0.16315253E+00 0.18420946E+04</pdfrwt>
<pdfrwt beam="2">  1       -1 0.12306749E+00 0.18420946E+04</pdfrwt>
<totfact> 0.14395900E+01</totfact>
</mgrwt>
</event>
<event>
12    6  0.9533401E-008  0.2153772E+04  0.7818608E-02  0.8537920E-01
          2   -1    0    0  501    0  0.00000000000E+00  0.00000000000E+00  0.10397626101E+04  0.10397626101E+04  0.00000000000E+00 0. -1.
         -1   -1    0    0    0  501 -0.00000000000E+00 -0.00000000000E+00 -0.11153343810E+04  0.11153343810E+04  0.00000000000E+00 0.  1.
         24    2    1    2    0    0 -0.15276357152E+03  0.54010972078E+03 -0.71618283426E+03  0.91308838409E+03  0.75877043980E+02 0.  0.
        254    2    1    2    0    0  0.15276357152E+03 -0.54010972078E+03  0.64061106337E+03  0.12420086070E+04  0.90396218180E+03 0.  0.
         23    2    4    4    0    0 -0.24348530733E+03  0.68483204922E+02  0.37888850968E+03  0.46532139021E+03  0.94828525138E+02 0.  0.
         23    2    4    4    0    0  0.39624887885E+03 -0.60859292570E+03  0.26172255369E+03  0.77668721680E+03  0.85707726807E+02 0.  0.
          4    1    3    3  502    0 -0.20313910660E+02  0.59740940163E+02 -0.12416034568E+03  0.13927464356E+03  0.00000000000E+00 0. -1.
         -3    1    3    3    0  502 -0.13244966086E+03  0.48036878061E+03 -0.59202248858E+03  0.77381374053E+03  0.00000000000E+00 0.  1.
         11    1    5    5    0    0 -0.21154491800E+03  0.50584092377E+02  0.36738212218E+03  0.42694218160E+03  0.00000000000E+00 0.  1.
        -11    1    5    5    0    0 -0.31940389328E+02  0.17899112545E+02  0.11506387502E+02  0.38379208612E+02  0.00000000000E+00 0. -1.
          1    1    6    6  503    0  0.12799692482E+03 -0.13947933911E+03  0.90398175999E+02  0.20978448233E+03  0.00000000000E+00 0. -1.
         -1    1    6    6    0  503  0.26825195403E+03 -0.46911358659E+03  0.17132437769E+03  0.56690273447E+03  0.00000000000E+00 0.  1.
<mgrwt>
<rscale>  0 0.21537716E+04</rscale>
<asrwt>0</asrwt>
<pdfrwt beam="1">  1        2 0.15996348E+00 0.21537716E+04</pdfrwt>
<pdfrwt beam="2">  1       -1 0.17158990E+00 0.21537716E+04</pdfrwt>
<totfact> 0.59551350E+00</totfact>
</mgrwt>
</event>
<event>
12    6  0.9533401E-008  0.1734697E+04  0.7818608E-02  0.8741819E-01
          2   -1    0    0  501    0  0.00000000000E+00  0.00000000000E+00  0.11195674955E+04  0.11195674955E+04  0.00000000000E+00 0. -1.
         -1   -1    0    0    0  501 -0.00000000000E+00 -0.00000000000E+00 -0.67194980554E+03  0.67194980554E+03  0.00000000000E+00 0.  1.
         24    2    1    2    0    0  0.21459738734E+02 -0.28053708982E+03  0.76573190800E+03  0.81946693737E+03  0.77583035359E+02 0.  0.
        254    2    1    2    0    0 -0.21459738734E+02  0.28053708982E+03 -0.31811421800E+03  0.97205036371E+03  0.87437044481E+03 0.  0.
         23    2    4    4    0    0  0.17526744567E+03  0.76425476883E+02 -0.55317967442E+03  0.59229305347E+03  0.90795252967E+02 0.  0.
         23    2    4    4    0    0 -0.19672718441E+03  0.20411161293E+03  0.23506545642E+03  0.37975731025E+03  0.92718446180E+02 0.  0.
          2    1    3    3  502    0  0.48385256039E+02 -0.22491574732E+03  0.60400775948E+03  0.64633861087E+03  0.00000000000E+00 0. -1.
         -1    1    3    3    0  502 -0.26925517305E+02 -0.55621342502E+02  0.16172414852E+03  0.17312832650E+03  0.00000000000E+00 0.  1.
         11    1    5    5    0    0  0.14585242734E+03  0.58344006555E+02 -0.31899489388E+03  0.35557656838E+03  0.00000000000E+00 0.  1.
        -11    1    5    5    0    0  0.29415018336E+02  0.18081470328E+02 -0.23418478054E+03  0.23671648509E+03  0.00000000000E+00 0. -1.
          4    1    6    6  503    0 -0.16761708566E+02  0.74676980340E+02  0.57343382414E+02  0.95634040872E+02  0.00000000000E+00 0. -1.
         -4    1    6    6    0  503 -0.17996547584E+03  0.12943463259E+03  0.17772207401E+03  0.28412326937E+03  0.00000000000E+00 0.  1.
<mgrwt>
<rscale>  0 0.17346967E+04</rscale>
<asrwt>0</asrwt>
<pdfrwt beam="1">  1        2 0.17224115E+00 0.17346967E+04</pdfrwt>
<pdfrwt beam="2">  1       -1 0.10337689E+00 0.17346967E+04</pdfrwt>
<totfact> 0.20248875E+01</totfact>
</mgrwt>
</event>
<event>
12    6  0.9533401E-008  0.1260408E+04  0.7818608E-02  0.9061565E-01
          2   -1    0    0  501    0  0.00000000000E+00  0.00000000000E+00  0.21701289784E+04  0.21701289784E+04  0.00000000000E+00 0. -1.
         -1   -1    0    0    0  501 -0.00000000000E+00 -0.00000000000E+00 -0.18301096114E+03  0.18301096114E+03  0.00000000000E+00 0.  1.
         24    2    1    2    0    0  0.24893012471E+03 -0.15736998559E+03  0.52642714381E+03  0.60825455635E+03  0.78208364245E+02 0.  0.
        254    2    1    2    0    0 -0.24893012471E+03  0.15736998559E+03  0.14606908735E+04  0.17448853832E+04  0.90789627893E+03 0.  0.
         23    2    4    4    0    0 -0.79495268383E+02  0.16033105505E+03 -0.62223519372E+02  0.21018869206E+03  0.91005356962E+02 0.  0.
         23    2    4    4    0    0 -0.16943485632E+03 -0.29610694639E+01  0.15229143928E+04  0.15346966911E+04  0.85491212372E+02 0.  0.
          4    1    3    3  502    0  0.24151236171E+03 -0.15476505922E+03  0.46521436505E+03  0.54653897378E+03  0.00000000000E+00 0. -1.
         -3    1    3    3    0  502  0.74177630006E+01 -0.26049263721E+01  0.61212778757E+02  0.61715582574E+02  0.00000000000E+00 0.  1.
         11    1    5    5    0    0 -0.11774658783E+01  0.36898502667E+02 -0.51835033524E+02  0.63637698146E+02  0.00000000000E+00 0.  1.
        -11    1    5    5    0    0 -0.78317802505E+02  0.12343255239E+03 -0.10388485848E+02  0.14655099391E+03  0.00000000000E+00 0. -1.
          3    1    6    6  503    0 -0.89774470229E+01 -0.10355199920E+02  0.41219165738E+03  0.41241943108E+03  0.00000000000E+00 0. -1.
         -3    1    6    6    0  503 -0.16045740930E+03  0.73941304559E+01  0.11107227354E+04  0.11222772600E+04  0.00000000000E+00 0.  1.
<mgrwt>
<rscale>  0 0.12604085E+04</rscale>
<asrwt>0</asrwt>
<pdfrwt beam="1">  1        2 0.33386598E+00 0.12604085E+04</pdfrwt>
<pdfrwt beam="2">  1       -1 0.28155534E-01 0.12604085E+04</pdfrwt>
<totfact> 0.68665801E+01</totfact>
</mgrwt>
</event>
<event>
12    6  0.9533401E-008  0.1008305E+04  0.7818608E-02  0.9299482E-01
         -1   -1    0    0    0  501 -0.00000000000E+00  0.00000000000E+00  0.16739072487E+03  0.16739072487E+03  0.00000000000E+00 0.  1.
          2   -1    0    0  501    0  0.00000000000E+00 -0.00000000000E+00 -0.15184228441E+04  0.15184228441E+04  0.00000000000E+00 0. -1.
         24    2    1    2    0    0  0.63509342782E+02  0.20993220243E+02 -0.16750534073E+03  0.19688472836E+03  0.78939249875E+02 0.  0.
        254    2    1    2    0    0 -0.63509342782E+02 -0.20993220243E+02 -0.11835267785E+04  0.14889288406E+04  0.90094356374E+03 0.  0.
         23    2    4    4    0    0 -0.25059051464E+03 -0.20065415011E+03 -0.11710726891E+04  0.12169809543E+04  0.81078394594E+02 0.  0.
         23    2    4    4    0    0  0.18708117186E+03  0.17966092987E+03 -0.12454089427E+02  0.27194788630E+03  0.80765920620E+02 0.  0.
          2    1    3    3  502    0  0.62951050368E+02  0.45460228503E+02 -0.13980725460E+03  0.15992353034E+03  0.00000000000E+00 0. -1.
         -1    1    3    3    0  502  0.55829241472E+00 -0.24467008259E+02 -0.27698086126E+02  0.36961198014E+02  0.00000000000E+00 0.  1.
         11    1    5    5    0    0 -0.82082516289E+01 -0.16796975874E+02 -0.16116856146E+03  0.16224924960E+03  0.00000000000E+00 0. -1.
        -11    1    5    5    0    0 -0.24238226301E+03 -0.18385717424E+03 -0.10099041276E+04  0.10547317047E+04  0.00000000000E+00 0.  1.
          1    1    6    6  503    0  0.12260233183E+02  0.32461306338E+02  0.21618530254E+02  0.40882888563E+02  0.00000000000E+00 0. -1.
         -1    1    6    6    0  503  0.17482093867E+03  0.14719962353E+03 -0.34072619681E+02  0.23106499774E+03  0.00000000000E+00 0.  1.
<mgrwt>
<rscale>  0 0.10083053E+04</rscale>
<asrwt>0</asrwt>
<pdfrwt beam="1">  1        2 0.23360352E+00 0.10083053E+04</pdfrwt>
<pdfrwt beam="2">  1       -1 0.25752419E-01 0.10083053E+04</pdfrwt>
<totfact> 0.18742550E+02</totfact>
</mgrwt>
</event>
<event>
12    6  0.9533401E-008  0.2373601E+04  0.7818608E-02  0.8449454E-01
          2   -1    0    0  501    0  0.00000000000E+00  0.00000000000E+00  0.27861089180E+04  0.27861089180E+04  0.00000000000E+00 0. -1.
         -3   -1    0    0    0  501 -0.00000000000E+00 -0.00000000000E+00 -0.50554193373E+03  0.50554193373E+03  0.00000000000E+00 0.  1.
         24    2    1    2    0    0 -0.61255465135E+03 -0.11036248223E+03  0.20836205251E+04  0.21760461836E+04  0.79368898828E+02 0.  0.
        254    2    1    2    0    0  0.61255465135E+03  0.11036248223E+03  0.19694645920E+03  0.11156046682E+04  0.90464511799E+03 0.  0.
         23    2    4    4    0    0  0.14156009356E+03  0.40782761960E+03  0.31102362402E+03  0.53973782412E+03  0.90656476244E+02 0.  0.
         23    2    4    4    0    0  0.47099455779E+03 -0.29746513737E+03 -0.11407716483E+03  0.57586684406E+03  0.91036482416E+02 0.  0.
          4    1    3    3  502    0 -0.42238577985E+03 -0.48826459358E+02  0.13261186784E+04  0.13926178655E+04  0.00000000000E+00 0. -1.
         -3    1    3    3    0  502 -0.19016887150E+03 -0.61536022872E+02  0.75750184670E+03  0.78342831807E+03  0.00000000000E+00 0.  1.
         11    1    5    5    0    0 -0.12646885074E+02  0.33375039427E+02  0.32205927890E+02  0.48073472415E+02  0.00000000000E+00 0.  1.
        -11    1    5    5    0    0  0.15420697863E+03  0.37445258018E+03  0.27881769614E+03  0.49166435170E+03  0.00000000000E+00 0. -1.
          1    1    6    6  503    0  0.46164287270E+03 -0.28264916208E+03 -0.94311288847E+02  0.54945364677E+03  0.00000000000E+00 0. -1.
         -1    1    6    6    0  503  0.93516850857E+01 -0.14815975290E+02 -0.19765875980E+02  0.26413197289E+02  0.00000000000E+00 0.  1.
<mgrwt>
<rscale>  0 0.23736005E+04</rscale>
<asrwt>0</asrwt>
<pdfrwt beam="1">  1        2 0.42863213E+00 0.23736005E+04</pdfrwt>
<pdfrwt beam="2">  1       -3 0.77775684E-01 0.23736005E+04</pdfrwt>
<totfact> 0.21108302E+00</totfact>
</mgrwt>
</event>
<event>
12    6  0.9533401E-008  0.1843543E+04  0.7818608E-02  0.8683481E-01
         -1   -1    0    0    0  501 -0.00000000000E+00  0.00000000000E+00  0.37296850339E+03  0.37296850339E+03  0.00000000000E+00 0.  1.
          2   -1    0    0  501    0  0.00000000000E+00 -0.00000000000E+00 -0.22781078063E+04  0.22781078063E+04  0.00000000000E+00 0. -1.
         24    2    1    2    0    0 -0.50531527769E+03  0.43730831187E+03 -0.10281200344E+04  0.12287747752E+04  0.79212079154E+02 0.  0.
        254    2    1    2    0    0  0.50531527769E+03 -0.43730831187E+03 -0.87701926852E+03  0.14223015345E+04  0.89844129929E+03 0.  0.
         23    2    4    4    0    0 -0.24056492559E+03 -0.67957749106E+02 -0.32137335418E+03  0.41733376466E+03  0.91634596426E+02 0.  0.
         23    2    4    4    0    0  0.74588020328E+03 -0.36935056276E+03 -0.55564591434E+03  0.10049677699E+04  0.91982174844E+02 0.  0.
          4    1    3    3  502    0 -0.50563078282E+03  0.43493829069E+03 -0.10289855058E+04  0.12262320238E+04  0.00000000000E+00 0. -1.
         -3    1    3    3    0  502  0.31550512817E+00  0.23700211820E+01  0.86547132322E+00  0.25427513643E+01  0.00000000000E+00 0.  1.
         11    1    5    5    0    0 -0.16266842099E+03 -0.87451563049E+02 -0.20472709088E+03  0.27572082404E+03  0.00000000000E+00 0.  1.
        -11    1    5    5    0    0 -0.77896504604E+02  0.19493813943E+02 -0.11664626329E+03  0.14161294062E+03  0.00000000000E+00 0. -1.
          3    1    6    6  503    0  0.69327563177E+03 -0.33493938505E+03 -0.53925470655E+03  0.94000592116E+03  0.00000000000E+00 0. -1.
         -3    1    6    6    0  503  0.52604571512E+02 -0.34411177712E+02 -0.16391207783E+02  0.64961848712E+02  0.00000000000E+00 0.  1.
<mgrwt>
<rscale>  0 0.18435427E+04</rscale>
<asrwt>0</asrwt>
<pdfrwt beam="1">  1        2 0.35047812E+00 0.18435427E+04</pdfrwt>
<pdfrwt beam="2">  1       -1 0.57379770E-01 0.18435427E+04</pdfrwt>
<totfact> 0.15376784E+01</totfact>
</mgrwt>
</event>
<event>
12    6  0.9533401E-008  0.1608335E+04  0.7818608E-02  0.8815444E-01
          2   -1    0    0  501    0  0.00000000000E+00  0.00000000000E+00  0.17158319789E+04  0.17158319789E+04  0.00000000000E+00 0. -1.
         -1   -1    0    0    0  501 -0.00000000000E+00 -0.00000000000E+00 -0.37689308679E+03  0.37689308679E+03  0.00000000000E+00 0.  1.
         24    2    1    2    0    0 -0.46076439472E+03  0.26939713247E+03  0.29160900881E+03  0.61354983046E+03  0.80801844120E+02 0.  0.
        254    2    1    2    0    0  0.46076439472E+03 -0.26939713247E+03  0.10473298833E+04  0.14791752353E+04  0.89787574289E+03 0.  0.
         23    2    4    4    0    0  0.31363077592E+03 -0.45449390820E+03  0.20057391006E+03  0.59492071795E+03  0.93657840355E+02 0.  0.
         23    2    4    4    0    0  0.14713361881E+03  0.18509677573E+03  0.84675597328E+03  0.88425451731E+03  0.94874943704E+02 0.  0.
          4    1    3    3  502    0 -0.27651270551E+03  0.17669646892E+03  0.13616624257E+03  0.35527758732E+03  0.00000000000E+00 0. -1.
         -3    1    3    3    0  502 -0.18425168921E+03  0.92700663551E+02  0.15544276624E+03  0.25827224314E+03  0.00000000000E+00 0.  1.
         11    1    5    5    0    0  0.23602964564E+03 -0.39870540963E+03  0.18058342859E+03  0.49727896796E+03  0.00000000000E+00 0. -1.
        -11    1    5    5    0    0  0.77601130279E+02 -0.55788498564E+02  0.19990481471E+02  0.97641749995E+02  0.00000000000E+00 0.  1.
          2    1    6    6  503    0  0.40467842993E+01  0.31216982427E+02  0.41812760924E+02  0.52337208858E+02  0.00000000000E+00 0. -1.
         -2    1    6    6    0  503  0.14308683451E+03  0.15387979330E+03  0.80494321235E+03  0.83191730845E+03  0.00000000000E+00 0.  1.
<mgrwt>
<rscale>  0 0.16083348E+04</rscale>
<asrwt>0</asrwt>
<pdfrwt beam="1">  1        2 0.26397415E+00 0.16083348E+04</pdfrwt>
<pdfrwt beam="2">  1       -1 0.57983553E-01 0.16083348E+04</pdfrwt>
<totfact> 0.31611989E+01</totfact>
</mgrwt>
</event>
<event>
12    6  0.9533401E-008  0.1950488E+04  0.7818608E-02  0.8630126E-01
          2   -1    0    0  501    0  0.00000000000E+00  0.00000000000E+00  0.22007851678E+04  0.22007851678E+04  0.00000000000E+00 0. -1.
         -1   -1    0    0    0  501 -0.00000000000E+00 -0.00000000000E+00 -0.43216426370E+03  0.43216426370E+03  0.00000000000E+00 0.  1.
         24    2    1    2    0    0  0.14450649452E+03  0.32526515725E+03 -0.21034054665E+03  0.42092517183E+03  0.79090487641E+02 0.  0.
        254    2    1    2    0    0 -0.14450649452E+03 -0.32526515725E+03  0.19789614507E+04  0.22120242596E+04  0.92199964877E+03 0.  0.
         23    2    4    4    0    0  0.27179597380E+03  0.41760563384E+01  0.19060761115E+03  0.34405815042E+03  0.90300933699E+02 0.  0.
         23    2    4    4    0    0 -0.41630246832E+03 -0.32944121358E+03  0.17883538396E+04  0.18679661092E+04  0.96170012706E+02 0.  0.
          4    1    3    3  502    0  0.38877086142E+02  0.14967087631E+03 -0.56301504131E+02  0.16456809658E+03  0.00000000000E+00 0. -1.
         -3    1    3    3    0  502  0.10562940838E+03  0.17559428093E+03 -0.15403904252E+03  0.25635707525E+03  0.00000000000E+00 0.  1.
         11    1    5    5    0    0  0.22133026825E+03 -0.22941275848E+02  0.11895019896E+03  0.25231436664E+03  0.00000000000E+00 0. -1.
        -11    1    5    5    0    0  0.50465705546E+02  0.27117332186E+02  0.71657412186E+02  0.91743783781E+02  0.00000000000E+00 0.  1.
          4    1    6    6  503    0 -0.57382472187E+01 -0.62080261508E+00  0.86128134210E+02  0.86321308954E+02  0.00000000000E+00 0.  1.
         -4    1    6    6    0  503 -0.41056422110E+03 -0.32882041097E+03  0.17022257053E+04  0.17816448003E+04  0.00000000000E+00 0. -1.
<mgrwt>
<rscale>  0 0.19504878E+04</rscale>
<asrwt>0</asrwt>
<pdfrwt beam="1">  1        2 0.33858233E+00 0.19504878E+04</pdfrwt>
<pdfrwt beam="2">  1       -1 0.66486811E-01 0.19504878E+04</pdfrwt>
<totfact> 0.12558775E+01</totfact>
</mgrwt>
</event>
<event>
12    6  0.9533401E-008  0.1967921E+04  0.7818608E-02  0.8621767E-01
         -1   -1    0    0    0  501 -0.00000000000E+00  0.00000000000E+00  0.24187620414E+03  0.24187620414E+03  0.00000000000E+00 0.  1.
          2   -1    0    0  501    0  0.00000000000E+00 -0.00000000000E+00 -0.40027827902E+04  0.40027827902E+04  0.00000000000E+00 0. -1.
         24    2    1    2    0    0  0.76672581353E+03  0.20359425809E+02 -0.12292671030E+04  0.14512930937E+04  0.82891820438E+02 0.  0.
        254    2    1    2    0    0 -0.76672581353E+03 -0.20359425809E+02 -0.25316394831E+04  0.27933659007E+04  0.89744727056E+03 0.  0.
         23    2    4    4    0    0  0.18684130888E+03  0.66680680124E+02 -0.48325815103E+03  0.53046295023E+03  0.92176532897E+02 0.  0.
         23    2    4    4    0    0 -0.95356712241E+03 -0.87040105933E+02 -0.20483813321E+04  0.22629029505E+04  0.89428433412E+02 0.  0.
          2    1    3    3  502    0  0.69607397073E+03  0.31229776508E+02 -0.10720408319E+04  0.12785796091E+04  0.00000000000E+00 0. -1.
         -1    1    3    3    0  502  0.70651842801E+02 -0.10870350699E+02 -0.15722627110E+03  0.17271348454E+03  0.00000000000E+00 0.  1.
         11    1    5    5    0    0  0.14120155417E+03  0.49324753484E+02 -0.24337725899E+03  0.28566291394E+03  0.00000000000E+00 0.  1.
        -11    1    5    5    0    0  0.45639754712E+02  0.17355926640E+02 -0.23988089204E+03  0.24480003629E+03  0.00000000000E+00 0. -1.
          3    1    6    6  503    0 -0.42302696426E+03 -0.26062080328E+02 -0.80699683365E+03  0.91152341388E+03  0.00000000000E+00 0. -1.
         -3    1    6    6    0  503 -0.53054015816E+03 -0.60978025605E+02 -0.12413844984E+04  0.13513795366E+04  0.00000000000E+00 0.  1.
<mgrwt>
<rscale>  0 0.19679206E+04</rscale>
<asrwt>0</asrwt>
<pdfrwt beam="1">  1        2 0.61581273E+00 0.19679206E+04</pdfrwt>
<pdfrwt beam="2">  1       -1 0.37211724E-01 0.19679206E+04</pdfrwt>
<totfact> 0.25353438E+00</totfact>
</mgrwt>
</event>
<event>
12    6  0.9533401E-008  0.1459919E+04  0.7818608E-02  0.8911552E-01
         -1   -1    0    0    0  501 -0.00000000000E+00  0.00000000000E+00  0.23334010755E+03  0.23334010755E+03  0.00000000000E+00 0.  1.
          2   -1    0    0  501    0  0.00000000000E+00 -0.00000000000E+00 -0.22835389180E+04  0.22835389180E+04  0.00000000000E+00 0. -1.
         24    2    1    2    0    0 -0.12309156337E+02 -0.17872442563E+03 -0.13542517978E+04  0.13683924772E+04  0.80038142182E+02 0.  0.
        254    2    1    2    0    0  0.12309156337E+02  0.17872442563E+03 -0.69594701265E+03  0.11484865483E+04  0.89587118029E+03 0.  0.
         23    2    4    4    0    0 -0.61181778332E+01  0.34412666084E+03  0.65779435592E+02  0.36214474869E+03  0.91440111871E+02 0.  0.
         23    2    4    4    0    0  0.18427334170E+02 -0.16540223520E+03 -0.76172644825E+03  0.78634179966E+03  0.10202341827E+03 0.  0.
          2    1    3    3  502    0  0.16262128637E+02 -0.16258639630E+03 -0.11304279609E+04  0.11421760669E+04  0.00000000000E+00 0. -1.
         -1    1    3    3    0  502 -0.28571284974E+02 -0.16138029332E+02 -0.22382383688E+03  0.22621641026E+03  0.00000000000E+00 0.  1.
         11    1    5    5    0    0  0.24988155796E+00  0.29713747477E+03  0.22572773926E+02  0.29799374403E+03  0.00000000000E+00 0. -1.
        -11    1    5    5    0    0 -0.63680593912E+01  0.46989186063E+02  0.43206661665E+02  0.64151004665E+02  0.00000000000E+00 0.  1.
          3    1    6    6  503    0  0.59256623500E+02 -0.11202937711E+03 -0.45356211086E+03  0.47093578880E+03  0.00000000000E+00 0. -1.
         -3    1    6    6    0  503 -0.40829289330E+02 -0.53372858092E+02 -0.30816433738E+03  0.31540601085E+03  0.00000000000E+00 0.  1.
<mgrwt>
<rscale>  0 0.14599195E+04</rscale>
<asrwt>0</asrwt>
<pdfrwt beam="1">  1        2 0.35131368E+00 0.14599195E+04</pdfrwt>
<pdfrwt beam="2">  1       -1 0.35898478E-01 0.14599195E+04</pdfrwt>
<totfact> 0.37969389E+01</totfact>
</mgrwt>
</event>
<event>
12    6  0.9533401E-008  0.2677046E+04  0.7818608E-02  0.8342491E-01
          2   -1    0    0  501    0  0.00000000000E+00  0.00000000000E+00  0.39945364358E+04  0.39945364358E+04  0.00000000000E+00 0. -1.
         -1   -1    0    0    0  501 -0.00000000000E+00 -0.00000000000E+00 -0.44852361490E+03  0.44852361490E+03  0.00000000000E+00 0.  1.
         24    2    1    2    0    0  0.54424738029E+03 -0.51897318802E+03  0.50351087835E+02  0.75782106612E+03  0.78861621595E+02 0.  0.
        254    2    1    2    0    0 -0.54424738029E+03  0.51897318802E+03  0.34956617330E+04  0.36852389846E+04  0.89207457126E+03 0.  0.
         23    2    4    4    0    0 -0.89684729464E+02  0.53435173141E+03  0.27681455355E+04  0.28221960988E+04  0.92660622690E+02 0.  0.
         23    2    4    4    0    0 -0.45456265083E+03 -0.15378543389E+02  0.72751619757E+03  0.86304288576E+03  0.93271119942E+02 0.  0.
          2    1    3    3  502    0  0.33929399848E+03 -0.31236011632E+03 -0.68294791058E+01  0.46123302295E+03  0.00000000000E+00 0. -1.
         -1    1    3    3    0  502  0.20495338181E+03 -0.20661307170E+03  0.57180566941E+02  0.29658804317E+03  0.00000000000E+00 0.  1.
         11    1    5    5    0    0 -0.54918601450E+02  0.41729532028E+03  0.23114310687E+04  0.23494392996E+04  0.00000000000E+00 0. -1.
        -11    1    5    5    0    0 -0.34766128014E+02  0.11705641113E+03  0.45671446676E+03  0.47275679920E+03  0.00000000000E+00 0.  1.
          2    1    6    6  503    0 -0.35036920363E+03  0.18517416696E+02  0.50378184047E+03  0.61391987780E+03  0.00000000000E+00 0. -1.
         -2    1    6    6    0  503 -0.10419344720E+03 -0.33895960085E+02  0.22373435710E+03  0.24912300796E+03  0.00000000000E+00 0.  1.
<mgrwt>
<rscale>  0 0.26770461E+04</rscale>
<asrwt>0</asrwt>
<pdfrwt beam="1">  1        2 0.61454404E+00 0.26770461E+04</pdfrwt>
<pdfrwt beam="2">  1       -1 0.69003636E-01 0.26770461E+04</pdfrwt>
<totfact> 0.73505407E-01</totfact>
</mgrwt>
</event>
<event>
12    6  0.9533401E-008  0.2034756E+04  0.7818608E-02  0.8590541E-01
          2   -1    0    0  501    0  0.00000000000E+00  0.00000000000E+00  0.15561157103E+04  0.15561157103E+04  0.00000000000E+00 0. -1.
         -1   -1    0    0    0  501 -0.00000000000E+00 -0.00000000000E+00 -0.66515483138E+03  0.66515483138E+03  0.00000000000E+00 0.  1.
         24    2    1    2    0    0 -0.44730917087E+03 -0.63957151925E+03  0.94921692646E+02  0.79046384320E+03  0.81766356754E+02 0.  0.
        254    2    1    2    0    0  0.44730917087E+03  0.63957151925E+03  0.79603918631E+03  0.14308066985E+04  0.89687914446E+03 0.  0.
         23    2    4    4    0    0  0.63537167661E+03  0.67984366870E+03  0.77636909810E+03  0.12158128230E+04  0.97812385316E+02 0.  0.
         23    2    4    4    0    0 -0.18806250574E+03 -0.40272149449E+02  0.19670088208E+02  0.21499387553E+03  0.94053719000E+02 0.  0.
          2    1    3    3  502    0 -0.91856622732E+02 -0.19482819877E+03  0.27977477965E+02  0.21720590565E+03  0.00000000000E+00 0. -1.
         -1    1    3    3    0  502 -0.35545254814E+03 -0.44474332048E+03  0.66944214681E+02  0.57325793755E+03  0.00000000000E+00 0.  1.
         11    1    5    5    0    0  0.14075290971E+02  0.31206150428E+02  0.50378927552E+02  0.60909555750E+02  0.00000000000E+00 0.  1.
        -11    1    5    5    0    0  0.62129638564E+03  0.64863751827E+03  0.72599017055E+03  0.11549032672E+04  0.00000000000E+00 0. -1.
          3    1    6    6  503    0 -0.18921390121E+03 -0.21650818788E+02  0.37781350128E+01  0.19048604324E+03  0.00000000000E+00 0. -1.
         -3    1    6    6    0  503  0.11513954678E+01 -0.18621330662E+02  0.15891953196E+02  0.24507832289E+02  0.00000000000E+00 0.  1.
<mgrwt>
<rscale>  0 0.20347559E+04</rscale>
<asrwt>0</asrwt>
<pdfrwt beam="1">  1        2 0.23940242E+00 0.20347559E+04</pdfrwt>
<pdfrwt beam="2">  1       -1 0.10233151E+00 0.20347559E+04</pdfrwt>
<totfact> 0.11258587E+01</totfact>
</mgrwt>
</event>
<event>
12    6  0.9533401E-008  0.1255268E+04  0.7818608E-02  0.9065810E-01
         -3   -1    0    0    0  501 -0.00000000000E+00  0.00000000000E+00  0.13522500116E+04  0.13522500116E+04  0.00000000000E+00 0.  1.
          4   -1    0    0  501    0  0.00000000000E+00 -0.00000000000E+00 -0.29131059168E+03  0.29131059168E+03  0.00000000000E+00 0. -1.
         24    2    1    2    0    0 -0.13989324122E+02  0.16390402557E+03  0.60308134225E+03  0.62779853022E+03  0.57997054965E+02 0.  0.
        254    2    1    2    0    0  0.13989324122E+02 -0.16390402557E+03  0.45785807770E+03  0.10157620731E+04  0.89167165428E+03 0.  0.
         23    2    4    4    0    0  0.41335399367E+03 -0.19384260035E+03  0.11019308477E+03  0.47752626085E+03  0.86326914004E+02 0.  0.
         23    2    4    4    0    0 -0.39936466955E+03  0.29938574782E+02  0.34766499293E+03  0.53823581225E+03  0.91860681111E+02 0.  0.
          2    1    3    3  502    0 -0.47113274532E+01  0.14501628425E+03  0.57301840383E+03  0.59110236882E+03  0.00000000000E+00 0. -1.
         -1    1    3    3    0  502 -0.92779966691E+01  0.18887741321E+02  0.30062938423E+02  0.36696161393E+02  0.00000000000E+00 0.  1.
         11    1    5    5    0    0  0.16105397835E+03 -0.10346126677E+03  0.10931561218E+02  0.19173449532E+03  0.00000000000E+00 0. -1.
        -11    1    5    5    0    0  0.25230001532E+03 -0.90381333575E+02  0.99261523555E+02  0.28579176553E+03  0.00000000000E+00 0.  1.
          3    1    6    6  503    0 -0.23705837552E+02 -0.20909947793E+02  0.31272337275E+02  0.44465174343E+02  0.00000000000E+00 0. -1.
         -3    1    6    6    0  503 -0.37565883200E+03  0.50848522575E+02  0.31639265565E+03  0.49377063790E+03  0.00000000000E+00 0.  1.
<mgrwt>
<rscale>  0 0.12552685E+04</rscale>
<asrwt>0</asrwt>
<pdfrwt beam="1">  1        4 0.44817015E-01 0.12552685E+04</pdfrwt>
<pdfrwt beam="2">  1       -3 0.20803846E+00 0.12552685E+04</pdfrwt>
<totfact> 0.14220672E+00</totfact>
</mgrwt>
</event>
<event>
12    6  0.9533401E-008  0.2036575E+04  0.7818608E-02  0.8589709E-01
         -1   -1    0    0    0  501 -0.00000000000E+00  0.00000000000E+00  0.17609055172E+04  0.17609055172E+04  0.00000000000E+00 0.  1.
          2   -1    0    0  501    0  0.00000000000E+00 -0.00000000000E+00 -0.58885025916E+03  0.58885025916E+03  0.00000000000E+00 0. -1.
         24    2    1    2    0    0  0.11489505494E+02 -0.81519104475E+03  0.49340378877E+03  0.95759249938E+03  0.94168189567E+02 0.  0.
        254    2    1    2    0    0 -0.11489505494E+02  0.81519104475E+03  0.67865146922E+03  0.13921632769E+04  0.90159986956E+03 0.  0.
         23    2    4    4    0    0 -0.41518455593E+03  0.25107253764E+03  0.15322807500E+03  0.51715590893E+03  0.92497332596E+02 0.  0.
         23    2    4    4    0    0  0.40369505043E+03  0.56411850710E+03  0.52542339422E+03  0.87500736800E+03  0.91480965545E+02 0.  0.
          4    1    3    3  502    0  0.40851584193E+02 -0.42441767295E+03  0.29389121323E+03  0.51785254490E+03  0.00000000000E+00 0. -1.
         -3    1    3    3    0  502 -0.29362078699E+02 -0.39077337179E+03  0.19951257555E+03  0.43973995449E+03  0.00000000000E+00 0.  1.
         11    1    5    5    0    0 -0.41037650092E+03  0.23595469312E+03  0.13349707468E+03  0.49183834606E+03  0.00000000000E+00 0. -1.
        -11    1    5    5    0    0 -0.48080550095E+01  0.15117844526E+02  0.19731000320E+02  0.25317562871E+02  0.00000000000E+00 0.  1.
          3    1    6    6  503    0  0.29594661069E+03  0.34480384390E+03  0.31980097148E+03  0.55564984343E+03  0.00000000000E+00 0. -1.
         -3    1    6    6    0  503  0.10774843974E+03  0.21931466321E+03  0.20562242275E+03  0.31935752457E+03  0.00000000000E+00 0.  1.
<mgrwt>
<rscale>  0 0.20365752E+04</rscale>
<asrwt>0</asrwt>
<pdfrwt beam="1">  1        2 0.90592348E-01 0.20365752E+04</pdfrwt>
<pdfrwt beam="2">  1       -1 0.27090854E+00 0.20365752E+04</pdfrwt>
<totfact> 0.27360099E+00</totfact>
</mgrwt>
</event>
<event>
12    6  0.9533401E-008  0.2243067E+04  0.7818608E-02  0.8500713E-01
         -1   -1    0    0    0  501 -0.00000000000E+00  0.00000000000E+00  0.66456213912E+03  0.66456213912E+03  0.00000000000E+00 0.  1.
          2   -1    0    0  501    0  0.00000000000E+00 -0.00000000000E+00 -0.18927311475E+04  0.18927311475E+04  0.00000000000E+00 0. -1.
         24    2    1    2    0    0  0.38319708812E+02  0.88064234067E+02  0.55071576907E+03  0.56465331719E+03  0.79509753592E+02 0.  0.
        254    2    1    2    0    0 -0.38319708812E+02 -0.88064234067E+02 -0.17788847775E+04  0.19926399694E+04  0.89272576245E+03 0.  0.
         23    2    4    4    0    0 -0.34421383038E+02  0.58322103026E+02 -0.18106431337E+04  0.18140838160E+04  0.88798842639E+02 0.  0.
         23    2    4    4    0    0 -0.38983257744E+01 -0.14638633709E+03  0.31758356262E+02  0.17855615345E+03  0.97105870626E+02 0.  0.
          4    1    3    3  502    0  0.57508997052E+02  0.32946461672E+02  0.28559516994E+03  0.29318484813E+03  0.00000000000E+00 0. -1.
         -1    1    3    3    0  502 -0.19189288239E+02  0.55117772396E+02  0.26512059912E+03  0.27146846906E+03  0.00000000000E+00 0.  1.
         11    1    5    5    0    0 -0.13709574926E+01  0.62033016193E+02 -0.15612971930E+04  0.15625296475E+04  0.00000000000E+00 0.  1.
        -11    1    5    5    0    0 -0.33050425545E+02 -0.37109131672E+01 -0.24934594076E+03  0.25155416847E+03  0.00000000000E+00 0. -1.
          4    1    6    6  503    0 -0.33911683445E+02 -0.23920753278E+02 -0.14925229114E+02  0.44101782000E+02  0.00000000000E+00 0. -1.
         -4    1    6    6    0  503  0.30013357670E+02 -0.12246558382E+03  0.46683585376E+02  0.13445437145E+03  0.00000000000E+00 0.  1.
<mgrwt>
<rscale>  0 0.22430671E+04</rscale>
<asrwt>0</asrwt>
<pdfrwt beam="1">  1        2 0.29118940E+00 0.22430671E+04</pdfrwt>
<pdfrwt beam="2">  1       -1 0.10224033E+00 0.22430671E+04</pdfrwt>
<totfact> 0.71968647E+00</totfact>
</mgrwt>
</event>
<event>
12    6  0.9533401E-008  0.2096288E+04  0.7818608E-02  0.8562880E-01
         -1   -1    0    0    0  501 -0.00000000000E+00  0.00000000000E+00  0.49282126464E+03  0.49282126464E+03  0.00000000000E+00 0.  1.
          2   -1    0    0  501    0  0.00000000000E+00 -0.00000000000E+00 -0.22292169536E+04  0.22292169536E+04  0.00000000000E+00 0. -1.
         24    2    1    2    0    0 -0.55098691989E+03 -0.93419973075E+02 -0.15574534981E+04  0.16566903253E+04  0.81532557721E+02 0.  0.
        254    2    1    2    0    0  0.55098691989E+03  0.93419973075E+02 -0.17894219093E+03  0.10653478930E+04  0.88917486927E+03 0.  0.
         23    2    4    4    0    0  0.31531634638E+03 -0.29342168137E+03  0.18469821849E+03  0.47746916348E+03  0.91338320334E+02 0.  0.
         23    2    4    4    0    0  0.23567057351E+03  0.38684165445E+03 -0.36364040942E+03  0.58787872951E+03  0.90443177856E+02 0.  0.
          4    1    3    3  502    0 -0.34182920701E+03 -0.47914734602E+02 -0.84511908667E+03  0.91289062829E+03  0.00000000000E+00 0. -1.
         -3    1    3    3    0  502 -0.20915771288E+03 -0.45505238472E+02 -0.71233441139E+03  0.74379969698E+03  0.00000000000E+00 0.  1.
         11    1    5    5    0    0  0.31730394563E+03 -0.27535590603E+03  0.18555369577E+03  0.45927425675E+03  0.00000000000E+00 0.  1.
        -11    1    5    5    0    0 -0.19875992483E+01 -0.18065775342E+02 -0.85547727570E+00  0.18194906728E+02  0.00000000000E+00 0. -1.
          4    1    6    6  503    0  0.82650106926E+02  0.15744746921E+03 -0.19833195189E+03  0.26637625434E+03  0.00000000000E+00 0. -1.
         -4    1    6    6    0  503  0.15302046658E+03  0.22939418524E+03 -0.16530845753E+03  0.32150247517E+03  0.00000000000E+00 0.  1.
<mgrwt>
<rscale>  0 0.20962877E+04</rscale>
<asrwt>0</asrwt>
<pdfrwt beam="1">  1        2 0.34295646E+00 0.20962877E+04</pdfrwt>
<pdfrwt beam="2">  1       -1 0.75818654E-01 0.20962877E+04</pdfrwt>
<totfact> 0.91167776E+00</totfact>
</mgrwt>
</event>
<event>
12    6  0.9533401E-008  0.1279555E+04  0.7818608E-02  0.9045937E-01
         -1   -1    0    0    0  501 -0.00000000000E+00  0.00000000000E+00  0.10100279152E+04  0.10100279152E+04  0.00000000000E+00 0.  1.
          2   -1    0    0  501    0  0.00000000000E+00 -0.00000000000E+00 -0.40525125451E+03  0.40525125451E+03  0.00000000000E+00 0. -1.
         24    2    1    2    0    0  0.23524237682E+02 -0.12455187059E+03  0.48959204197E+03  0.51260846131E+03  0.83669043381E+02 0.  0.
        254    2    1    2    0    0 -0.23524237682E+02  0.12455187059E+03  0.11518461873E+03  0.90267070841E+03  0.88627329487E+03 0.  0.
         23    2    4    4    0    0  0.16038401200E+03  0.18315950701E+03  0.44102172884E+03  0.51263006227E+03  0.94968305839E+02 0.  0.
         23    2    4    4    0    0 -0.18390824968E+03 -0.58607636420E+02 -0.32583711011E+03  0.39004064614E+03  0.93299431768E+02 0.  0.
          2    1    3    3  502    0  0.15143311643E+02 -0.47077169740E+02  0.69195906734E+02  0.85050886574E+02  0.00000000000E+00 0. -1.
         -1    1    3    3    0  502  0.83809260387E+01 -0.77474700854E+02  0.42039613523E+03  0.42755757474E+03  0.00000000000E+00 0.  1.
         11    1    5    5    0    0  0.24135918689E+02  0.30541492949E+02  0.16217460955E+03  0.16678108209E+03  0.00000000000E+00 0. -1.
        -11    1    5    5    0    0  0.13624809331E+03  0.15261801407E+03  0.27884711930E+03  0.34584898018E+03  0.00000000000E+00 0.  1.
          1    1    6    6  503    0 -0.10413049782E+03  0.28881532391E+01 -0.22278693764E+03  0.24593804421E+03  0.00000000000E+00 0. -1.
         -1    1    6    6    0  503 -0.79777751858E+02 -0.61495789659E+02 -0.10305017247E+03  0.14410260193E+03  0.00000000000E+00 0.  1.
<mgrwt>
<rscale>  0 0.12795547E+04</rscale>
<asrwt>0</asrwt>
<pdfrwt beam="1">  1        2 0.62346348E-01 0.12795547E+04</pdfrwt>
<pdfrwt beam="2">  1       -1 0.15538891E+00 0.12795547E+04</pdfrwt>
<totfact> 0.27895018E+01</totfact>
</mgrwt>
</event>
<event>
12    6  0.9533401E-008  0.2474401E+04  0.7818608E-02  0.8412162E-01
         -1   -1    0    0    0  501 -0.00000000000E+00  0.00000000000E+00  0.36535571131E+03  0.36535571131E+03  0.00000000000E+00 0.  1.
          2   -1    0    0  501    0  0.00000000000E+00 -0.00000000000E+00 -0.41895199295E+04  0.41895199295E+04  0.00000000000E+00 0. -1.
         24    2    1    2    0    0 -0.14527687642E+03  0.63239470755E+03 -0.32261405111E+04  0.32916685424E+04  0.77915074377E+02 0.  0.
        254    2    1    2    0    0  0.14527687642E+03 -0.63239470755E+03 -0.59802370709E+03  0.12632070984E+04  0.90389788263E+03 0.  0.
         23    2    4    4    0    0  0.35015067766E+03 -0.47151800921E+03  0.11932283263E+02  0.59460786578E+03  0.92094541569E+02 0.  0.
         23    2    4    4    0    0 -0.20487380123E+03 -0.16087669834E+03 -0.60995599035E+03  0.66859923261E+03  0.84404011670E+02 0.  0.
          2    1    3    3  502    0 -0.15184919525E+03  0.62489759985E+03 -0.31901816432E+04  0.32543531009E+04  0.00000000000E+00 0. -1.
         -1    1    3    3    0  502  0.65723188289E+01  0.74971076989E+01 -0.35958867839E+02  0.37315441508E+02  0.00000000000E+00 0.  1.
         11    1    5    5    0    0  0.30106795366E+03 -0.40821987062E+03 -0.21788188613E+02  0.50770079835E+03  0.00000000000E+00 0. -1.
        -11    1    5    5    0    0  0.49082723997E+02 -0.63298138596E+02  0.33720471876E+02  0.86907067424E+02  0.00000000000E+00 0.  1.
          3    1    6    6  503    0 -0.21018896495E+03 -0.14490468546E+03 -0.55069798135E+03  0.60699673436E+03  0.00000000000E+00 0. -1.
         -3    1    6    6    0  503  0.53151637202E+01 -0.15972012875E+02 -0.59258008996E+02  0.61602498252E+02  0.00000000000E+00 0.  1.
<mgrwt>
<rscale>  0 0.24744010E+04</rscale>
<asrwt>0</asrwt>
<pdfrwt beam="1">  1        2 0.64454155E+00 0.24744010E+04</pdfrwt>
<pdfrwt beam="2">  1       -1 0.56208569E-01 0.24744010E+04</pdfrwt>
<totfact> 0.77664981E-01</totfact>
</mgrwt>
</event>
<event>
12    6  0.9533401E-008  0.3533396E+04  0.7818608E-02  0.8105921E-01
          2   -1    0    0  501    0  0.00000000000E+00  0.00000000000E+00  0.17759303404E+04  0.17759303404E+04  0.00000000000E+00 0. -1.
         -1   -1    0    0    0  501 -0.00000000000E+00 -0.00000000000E+00 -0.17575131620E+04  0.17575131620E+04  0.00000000000E+00 0.  1.
         24    2    1    2    0    0 -0.57565094588E+03 -0.12207526580E+04 -0.94432135361E+03  0.16494213485E+04  0.85069985894E+02 0.  0.
        254    2    1    2    0    0  0.57565094588E+03  0.12207526580E+04  0.96273853197E+03  0.18840221539E+04  0.89502119081E+03 0.  0.
         23    2    4    4    0    0  0.66608938439E+03  0.11364809162E+04  0.10678821213E+04  0.16981821807E+04  0.90479572541E+02 0.  0.
         23    2    4    4    0    0 -0.90438438503E+02  0.84271741780E+02 -0.10514358928E+03  0.18583997321E+03  0.90556521878E+02 0.  0.
          2    1    3    3  502    0 -0.15156335314E+03 -0.37880344626E+03 -0.32282063093E+03  0.52026595187E+03  0.00000000000E+00 0. -1.
         -1    1    3    3    0  502 -0.42408759274E+03 -0.84194921170E+03 -0.62150072267E+03  0.11291553966E+04  0.00000000000E+00 0.  1.
         11    1    5    5    0    0  0.41601912324E+03  0.62571744741E+03  0.62595398307E+03  0.97796350842E+03  0.00000000000E+00 0. -1.
        -11    1    5    5    0    0  0.25007026114E+03  0.51076346878E+03  0.44192813819E+03  0.72021867226E+03  0.00000000000E+00 0.  1.
          4    1    6    6  503    0 -0.47241547467E+02  0.80768055621E+02 -0.10739943390E+03  0.14244255339E+03  0.00000000000E+00 0. -1.
         -4    1    6    6    0  503 -0.43196891036E+02  0.35036861596E+01  0.22558446159E+01  0.43397419817E+02  0.00000000000E+00 0.  1.
<mgrwt>
<rscale>  0 0.35333955E+04</rscale>
<asrwt>0</asrwt>
<pdfrwt beam="1">  1        2 0.27322005E+00 0.35333955E+04</pdfrwt>
<pdfrwt beam="2">  1       -1 0.27038664E+00 0.35333955E+04</pdfrwt>
<totfact> 0.42628088E-01</totfact>
</mgrwt>
</event>
<event>
12    6  0.9533401E-008  0.1652630E+04  0.7818608E-02  0.8788852E-01
          2   -1    0    0  501    0  0.00000000000E+00  0.00000000000E+00  0.25230179440E+04  0.25230179440E+04  0.00000000000E+00 0. -1.
         -1   -1    0    0    0  501 -0.00000000000E+00 -0.00000000000E+00 -0.27062679421E+03  0.27062679421E+03  0.00000000000E+00 0.  1.
         24    2    1    2    0    0  0.33726067713E+03 -0.32263227587E+03  0.13719976031E+04  0.14514039055E+04  0.79746625188E+02 0.  0.
        254    2    1    2    0    0 -0.33726067713E+03  0.32263227587E+03  0.88039354667E+03  0.13422408327E+04  0.89926709389E+03 0.  0.
         23    2    4    4    0    0 -0.54530129397E+03  0.20303056914E+03  0.21355823773E+03  0.62701964213E+03  0.94718517174E+02 0.  0.
         23    2    4    4    0    0  0.20804061685E+03  0.11960170673E+03  0.66683530894E+03  0.71522119056E+03  0.96366776794E+02 0.  0.
          4    1    3    3  502    0  0.24482710966E+03 -0.18898174673E+03  0.83926226334E+03  0.89443588976E+03  0.00000000000E+00 0. -1.
         -3    1    3    3    0  502  0.92433567471E+02 -0.13365052914E+03  0.53273533975E+03  0.55696801573E+03  0.00000000000E+00 0.  1.
         11    1    5    5    0    0 -0.24873549563E+03  0.57406909279E+02  0.12881886859E+03  0.28593565872E+03  0.00000000000E+00 0. -1.
        -11    1    5    5    0    0 -0.29656579834E+03  0.14562365986E+03  0.84739369141E+02  0.34108398341E+03  0.00000000000E+00 0.  1.
          1    1    6    6  503    0  0.11615621309E+03  0.11238739278E+03  0.35523341918E+03  0.39027422922E+03  0.00000000000E+00 0. -1.
         -1    1    6    6    0  503  0.91884403757E+02  0.72143139481E+01  0.31160188976E+03  0.32494696133E+03  0.00000000000E+00 0.  1.
<mgrwt>
<rscale>  0 0.16526297E+04</rscale>
<asrwt>0</asrwt>
<pdfrwt beam="1">  1        2 0.38815659E+00 0.16526297E+04</pdfrwt>
<pdfrwt beam="2">  1       -1 0.41634893E-01 0.16526297E+04</pdfrwt>
<totfact> 0.20813672E+01</totfact>
</mgrwt>
</event>
<event>
12    6  0.9533401E-008  0.1897393E+04  0.7818608E-02  0.8656155E-01
         -1   -1    0    0    0  501 -0.00000000000E+00  0.00000000000E+00  0.36348511213E+03  0.36348511213E+03  0.00000000000E+00 0.  1.
          2   -1    0    0  501    0  0.00000000000E+00 -0.00000000000E+00 -0.24760988257E+04  0.24760988257E+04  0.00000000000E+00 0. -1.
         24    2    1    2    0    0 -0.27040448855E+03  0.48011712861E+03 -0.96908500757E+02  0.56491175720E+03  0.78121644224E+02 0.  0.
        254    2    1    2    0    0  0.27040448855E+03 -0.48011712861E+03 -0.20157052128E+04  0.22746721806E+04  0.89857385880E+03 0.  0.
         23    2    4    4    0    0  0.51170053939E+03 -0.57691018221E+03 -0.13920954380E+04  0.15940198993E+04  0.91142363652E+02 0.  0.
         23    2    4    4    0    0 -0.24129605084E+03  0.96793053598E+02 -0.62360977479E+03  0.68065228132E+03  0.82496651309E+02 0.  0.
          2    1    3    3  502    0 -0.18287375520E+03  0.32182723496E+03 -0.27512933644E+02  0.37117723667E+03  0.00000000000E+00 0. -1.
         -1    1    3    3    0  502 -0.87530733350E+02  0.15828989365E+03 -0.69395567113E+02  0.19373452054E+03  0.00000000000E+00 0.  1.
         11    1    5    5    0    0  0.47416668874E+02 -0.51194118298E+02 -0.18812283309E+03  0.20064739860E+03  0.00000000000E+00 0.  1.
        -11    1    5    5    0    0  0.46428387052E+03 -0.52571606391E+03 -0.12039726049E+04  0.13933725007E+04  0.00000000000E+00 0. -1.
          3    1    6    6  503    0 -0.23423190680E+03  0.69151884194E+02 -0.55716144069E+03  0.60833826137E+03  0.00000000000E+00 0. -1.
         -3    1    6    6    0  503 -0.70641440361E+01  0.27641169404E+02 -0.66448334102E+02  0.72314019954E+02  0.00000000000E+00 0.  1.
<mgrwt>
<rscale>  0 0.18973930E+04</rscale>
<asrwt>0</asrwt>
<pdfrwt beam="1">  1        2 0.38093828E+00 0.18973930E+04</pdfrwt>
<pdfrwt beam="2">  1       -1 0.55920786E-01 0.18973930E+04</pdfrwt>
<totfact> 0.12407934E+01</totfact>
</mgrwt>
</event>
<event>
12    6  0.9533401E-008  0.2393829E+04  0.7818608E-02  0.8441817E-01
         -1   -1    0    0    0  501 -0.00000000000E+00  0.00000000000E+00  0.84612989760E+03  0.84612989760E+03  0.00000000000E+00 0.  1.
          2   -1    0    0  501    0  0.00000000000E+00 -0.00000000000E+00 -0.16931259089E+04  0.16931259089E+04  0.00000000000E+00 0. -1.
         24    2    1    2    0    0  0.43753100336E+03  0.74921323367E+03  0.21555973736E+03  0.89755029978E+03  0.79854191264E+02 0.  0.
        254    2    1    2    0    0 -0.43753100336E+03 -0.74921323367E+03 -0.10625557487E+04  0.16417055067E+04  0.90189711352E+03 0.  0.
         23    2    4    4    0    0 -0.15276544840E+03 -0.39890261181E+03  0.49237498401E+02  0.43799674657E+03  0.83404093567E+02 0.  0.
         23    2    4    4    0    0 -0.28476555496E+03 -0.35031062186E+03 -0.11117932471E+04  0.12037087601E+04  0.94982113926E+02 0.  0.
          2    1    3    3  502    0  0.33412353745E+02  0.91511539366E+02  0.43400932271E+02  0.10665077657E+03  0.00000000000E+00 0. -1.
         -1    1    3    3    0  502  0.40411864961E+03  0.65770169430E+03  0.17215880509E+03  0.79089952322E+03  0.00000000000E+00 0.  1.
         11    1    5    5    0    0 -0.10382180087E+03 -0.35358334910E+03  0.40827555805E+02  0.37076547899E+03  0.00000000000E+00 0. -1.
        -11    1    5    5    0    0 -0.48943647532E+02 -0.45319262712E+02  0.84099425957E+01  0.67231267585E+02  0.00000000000E+00 0.  1.
          3    1    6    6  503    0 -0.25818580646E+03 -0.34290089723E+03 -0.10764306005E+04  0.11588545093E+04  0.00000000000E+00 0. -1.
         -3    1    6    6    0  503 -0.26579748499E+02 -0.74097246235E+01 -0.35362646569E+02  0.44854250876E+02  0.00000000000E+00 0.  1.
<mgrwt>
<rscale>  0 0.23938291E+04</rscale>
<asrwt>0</asrwt>
<pdfrwt beam="1">  1        2 0.26048091E+00 0.23938291E+04</pdfrwt>
<pdfrwt beam="2">  1       -1 0.13017383E+00 0.23938291E+04</pdfrwt>
<totfact> 0.51226377E+00</totfact>
</mgrwt>
</event>
<event>
12    6  0.9533401E-008  0.2296125E+04  0.7818608E-02  0.8479450E-01
         -1   -1    0    0    0  501 -0.00000000000E+00  0.00000000000E+00  0.76868097209E+03  0.76868097209E+03  0.00000000000E+00 0.  1.
          2   -1    0    0  501    0  0.00000000000E+00 -0.00000000000E+00 -0.17146875631E+04  0.17146875631E+04  0.00000000000E+00 0. -1.
         24    2    1    2    0    0  0.93009304747E+03 -0.25754159723E+03 -0.52426317175E+03  0.11011167020E+04  0.78774151299E+02 0.  0.
        254    2    1    2    0    0 -0.93009304747E+03  0.25754159723E+03 -0.42174341921E+03  0.13822518331E+04  0.89518258882E+03 0.  0.
         23    2    4    4    0    0 -0.54446514969E+03  0.52698960373E+03 -0.30558058090E+02  0.76391993080E+03  0.92084331370E+02 0.  0.
         23    2    4    4    0    0 -0.38562789778E+03 -0.26944800650E+03 -0.39118536112E+03  0.61833190235E+03  0.89427350145E+02 0.  0.
          2    1    3    3  502    0  0.86395244157E+03 -0.25895235998E+03 -0.48241902942E+03  0.10228383381E+04  0.00000000000E+00 0. -1.
         -1    1    3    3    0  502  0.66140605903E+02  0.14107627476E+01 -0.41844142334E+02  0.78278363859E+02  0.00000000000E+00 0.  1.
         11    1    5    5    0    0 -0.38462791353E+03  0.33149139057E+03  0.11628719910E+02  0.50789802226E+03  0.00000000000E+00 0.  1.
        -11    1    5    5    0    0 -0.15983723617E+03  0.19549821316E+03 -0.42186777999E+02  0.25602190854E+03  0.00000000000E+00 0. -1.
          2    1    6    6  503    0 -0.67527538097E+02 -0.44990931585E+02 -0.11605432601E+03  0.14160776431E+03  0.00000000000E+00 0.  1.
         -2    1    6    6    0  503 -0.31810035968E+03 -0.22445707492E+03 -0.27513103511E+03  0.47672413804E+03  0.00000000000E+00 0. -1.
<mgrwt>
<rscale>  0 0.22961252E+04</rscale>
<asrwt>0</asrwt>
<pdfrwt beam="1">  1        2 0.26379808E+00 0.22961252E+04</pdfrwt>
<pdfrwt beam="2">  1       -1 0.11825861E+00 0.22961252E+04</pdfrwt>
<totfact> 0.63765172E+00</totfact>
</mgrwt>
</event>
<event>
12    6  0.9533401E-008  0.1936939E+04  0.7818608E-02  0.8636685E-01
         -1   -1    0    0    0  501 -0.00000000000E+00  0.00000000000E+00  0.61697057854E+03  0.61697057854E+03  0.00000000000E+00 0.  1.
          2   -1    0    0  501    0  0.00000000000E+00 -0.00000000000E+00 -0.15202238982E+04  0.15202238982E+04  0.00000000000E+00 0. -1.
         24    2    1    2    0    0  0.39225383187E+01 -0.75858295980E+02 -0.11853299672E+04  0.11903074513E+04  0.77812787841E+02 0.  0.
        254    2    1    2    0    0 -0.39225383187E+01  0.75858295980E+02  0.28207664761E+03  0.94688702543E+03  0.90069858245E+03 0.  0.
         23    2    4    4    0    0 -0.92747313056E+02 -0.22531819935E+03  0.49314235334E+03  0.55757636969E+03  0.91277994846E+02 0.  0.
         23    2    4    4    0    0  0.88824774738E+02  0.30117649533E+03 -0.21106570573E+03  0.38931065574E+03  0.91743842269E+02 0.  0.
          4    1    3    3  502    0 -0.60729952463E+01 -0.84736798186E+02 -0.11367908901E+04  0.11399608476E+04  0.00000000000E+00 0. -1.
         -3    1    3    3    0  502  0.99955335650E+01  0.88785022060E+01 -0.48539077179E+02  0.50346603719E+02  0.00000000000E+00 0.  1.
         11    1    5    5    0    0 -0.30663737960E+02 -0.12160427108E+03  0.34055707491E+03  0.36291456962E+03  0.00000000000E+00 0. -1.
        -11    1    5    5    0    0 -0.62083575097E+02 -0.10371392827E+03  0.15258527843E+03  0.19466180007E+03  0.00000000000E+00 0.  1.
          3    1    6    6  503    0  0.83171649012E+02  0.17432845415E+03 -0.16565954060E+03  0.25446221039E+03  0.00000000000E+00 0. -1.
         -3    1    6    6    0  503  0.56531257261E+01  0.12684804118E+03 -0.45406165128E+02  0.13484844535E+03  0.00000000000E+00 0.  1.
<mgrwt>
<rscale>  0 0.19369393E+04</rscale>
<asrwt>0</asrwt>
<pdfrwt beam="1">  1        2 0.23388060E+00 0.19369393E+04</pdfrwt>
<pdfrwt beam="2">  1       -1 0.94918552E-01 0.19369393E+04</pdfrwt>
<totfact> 0.14112984E+01</totfact>
</mgrwt>
</event>
<event>
12    6  0.9533401E-008  0.1124485E+04  0.7818608E-02  0.9181650E-01
         -1   -1    0    0    0  501 -0.00000000000E+00  0.00000000000E+00  0.16897655212E+03  0.16897655212E+03  0.00000000000E+00 0.  1.
          2   -1    0    0  501    0  0.00000000000E+00 -0.00000000000E+00 -0.18707729410E+04  0.18707729410E+04  0.00000000000E+00 0. -1.
         24    2    1    2    0    0  0.37199193450E+01 -0.94467201068E+02 -0.29716264665E+02  0.12781200528E+03  0.80715317193E+02 0.  0.
        254    2    1    2    0    0 -0.37199193450E+01  0.94467201068E+02 -0.16720801242E+04  0.19119374878E+04  0.92234219556E+03 0.  0.
         23    2    4    4    0    0 -0.34847923269E+03 -0.24286254866E+03 -0.84226767238E+03  0.94776025086E+03  0.91731499577E+02 0.  0.
         23    2    4    4    0    0  0.34475931334E+03  0.33732974973E+03 -0.82981245181E+03  0.96417723695E+03  0.91644393626E+02 0.  0.
          2    1    3    3  502    0  0.29301653711E+02 -0.35452047387E+01 -0.11156561321E+02  0.31553514025E+02  0.00000000000E+00 0. -1.
         -1    1    3    3    0  502 -0.25581734366E+02 -0.90921996330E+02 -0.18559703344E+02  0.96258491251E+02  0.00000000000E+00 0.  1.
         11    1    5    5    0    0 -0.30874337631E+03 -0.18326526233E+03 -0.64976982146E+03  0.74236746270E+03  0.00000000000E+00 0.  1.
        -11    1    5    5    0    0 -0.39735856380E+02 -0.59597286331E+02 -0.19249785091E+03  0.20539278816E+03  0.00000000000E+00 0. -1.
          3    1    6    6  503    0  0.44509713711E+02  0.14329530209E+02 -0.51118536455E+02  0.69278819418E+02  0.00000000000E+00 0. -1.
         -3    1    6    6    0  503  0.30024959963E+03  0.32300021952E+03 -0.77869391536E+03  0.89489841753E+03  0.00000000000E+00 0.  1.
<mgrwt>
<rscale>  0 0.11244852E+04</rscale>
<asrwt>0</asrwt>
<pdfrwt beam="1">  1        2 0.28781122E+00 0.11244852E+04</pdfrwt>
<pdfrwt beam="2">  1       -1 0.25996393E-01 0.11244852E+04</pdfrwt>
<totfact> 0.11669290E+02</totfact>
</mgrwt>
</event>
<event>
12    6  0.9533401E-008  0.1621079E+04  0.7818608E-02  0.8807702E-01
         -1   -1    0    0    0  501 -0.00000000000E+00  0.00000000000E+00  0.22156044899E+03  0.22156044899E+03  0.00000000000E+00 0.  1.
          2   -1    0    0  501    0  0.00000000000E+00 -0.00000000000E+00 -0.29652154205E+04  0.29652154205E+04  0.00000000000E+00 0. -1.
         24    2    1    2    0    0  0.26332757625E+03 -0.30612656549E+03 -0.18694510765E+03  0.45205777724E+03  0.79704919457E+02 0.  0.
        254    2    1    2    0    0 -0.26332757625E+03  0.30612656549E+03 -0.25567098639E+04  0.27347180923E+04  0.88253205587E+03 0.  0.
         23    2    4    4    0    0 -0.41209543640E+03  0.49997603612E+03 -0.13504864337E+04  0.15006128757E+04  0.90701210446E+02 0.  0.
         23    2    4    4    0    0  0.14876786015E+03 -0.19384947064E+03 -0.12062234302E+04  0.12341052166E+04  0.91275564594E+02 0.  0.
          4    1    3    3  502    0 -0.53032530057E+00 -0.27623473868E+02 -0.17128282166E+02  0.32507162341E+02  0.00000000000E+00 0. -1.
         -3    1    3    3    0  502  0.26385790155E+03 -0.27850309162E+03 -0.16981682548E+03  0.41955061490E+03  0.00000000000E+00 0.  1.
         11    1    5    5    0    0 -0.37733453395E+03  0.46709695208E+03 -0.12943597072E+04  0.14268594762E+04  0.00000000000E+00 0.  1.
        -11    1    5    5    0    0 -0.34760902445E+02  0.32879084045E+02 -0.56126726526E+02  0.73753399495E+02  0.00000000000E+00 0. -1.
          3    1    6    6  503    0  0.77441512287E+02 -0.49651942825E+02 -0.59480872998E+03  0.60188032740E+03  0.00000000000E+00 0. -1.
         -3    1    6    6    0  503  0.71326347863E+02 -0.14419752781E+03 -0.61141470020E+03  0.63222488922E+03  0.00000000000E+00 0.  1.
<mgrwt>
<rscale>  0 0.16210792E+04</rscale>
<asrwt>0</asrwt>
<pdfrwt beam="1">  1        2 0.45618696E+00 0.16210792E+04</pdfrwt>
<pdfrwt beam="2">  1       -1 0.34086225E-01 0.16210792E+04</pdfrwt>
<totfact> 0.16325108E+01</totfact>
</mgrwt>
</event>
<event>
12    6  0.9533401E-008  0.2984106E+04  0.7818608E-02  0.8248284E-01
          2   -1    0    0  501    0  0.00000000000E+00  0.00000000000E+00  0.22277190913E+04  0.22277190913E+04  0.00000000000E+00 0. -1.
         -1   -1    0    0    0  501 -0.00000000000E+00 -0.00000000000E+00 -0.99932818796E+03  0.99932818796E+03  0.00000000000E+00 0.  1.
         24    2    1    2    0    0  0.77996583454E+03  0.52641308863E+03 -0.49901038143E+03  0.10682066562E+04  0.81219804566E+02 0.  0.
        254    2    1    2    0    0 -0.77996583454E+03 -0.52641308863E+03  0.17274012848E+04  0.21588406231E+04  0.88950558978E+03 0.  0.
         23    2    4    4    0    0 -0.62622216372E+03 -0.50728564207E+03  0.17927582214E+04  0.19677004576E+04  0.91488412552E+02 0.  0.
         23    2    4    4    0    0 -0.15374367082E+03 -0.19127446554E+02 -0.65356936564E+02  0.19114016548E+03  0.90884862173E+02 0.  0.
          4    1    3    3  502    0  0.10111805036E+03  0.48381684305E+02 -0.83437032047E+02  0.13974042294E+03  0.00000000000E+00 0. -1.
         -3    1    3    3    0  502  0.67884778418E+03  0.47803140432E+03 -0.41557334938E+03  0.92846623327E+03  0.00000000000E+00 0.  1.
         11    1    5    5    0    0 -0.45473763780E+03 -0.41834707503E+03  0.13613332118E+04  0.14950012402E+04  0.00000000000E+00 0. -1.
        -11    1    5    5    0    0 -0.17148452592E+03 -0.88938567038E+02  0.43142500953E+03  0.47269921746E+03  0.00000000000E+00 0.  1.
          4    1    6    6  503    0 -0.64206547831E+02  0.24529460790E+02 -0.60240886096E+02  0.91395511863E+02  0.00000000000E+00 0. -1.
         -4    1    6    6    0  503 -0.89537122992E+02 -0.43656907344E+02 -0.51160504679E+01  0.99744653616E+02  0.00000000000E+00 0.  1.
<mgrwt>
<rscale>  0 0.29841062E+04</rscale>
<asrwt>0</asrwt>
<pdfrwt beam="1">  1        2 0.34272601E+00 0.29841062E+04</pdfrwt>
<pdfrwt beam="2">  1       -1 0.15374280E+00 0.29841062E+04</pdfrwt>
<totfact> 0.15841234E+00</totfact>
</mgrwt>
</event>
<event>
12    6  0.9533401E-008  0.1491237E+04  0.7818608E-02  0.8890301E-01
         -1   -1    0    0    0  501 -0.00000000000E+00  0.00000000000E+00  0.93633009627E+03  0.93633009627E+03  0.00000000000E+00 0.  1.
          2   -1    0    0  501    0  0.00000000000E+00 -0.00000000000E+00 -0.59375094454E+03  0.59375094454E+03  0.00000000000E+00 0. -1.
         24    2    1    2    0    0  0.20278526480E+03  0.36822691919E+03  0.42085397910E+03  0.60007806296E+03  0.79137110658E+02 0.  0.
        254    2    1    2    0    0 -0.20278526480E+03 -0.36822691919E+03 -0.78274827369E+02  0.93000297785E+03  0.82587266729E+03 0.  0.
         23    2    4    4    0    0  0.12399787963E+03 -0.49263946368E+03  0.10112663661E+03  0.52632143883E+03  0.93373149302E+02 0.  0.
         23    2    4    4    0    0 -0.32678314443E+03  0.12441254449E+03 -0.17940146398E+03  0.40368153902E+03  0.92239877256E+02 0.  0.
          2    1    3    3  502    0  0.13608490289E+02  0.11176162614E+02  0.44616793198E+02  0.47966194908E+02  0.00000000000E+00 0. -1.
         -1    1    3    3    0  502  0.18917677451E+03  0.35705075658E+03  0.37623718591E+03  0.55211186805E+03  0.00000000000E+00 0.  1.
         11    1    5    5    0    0  0.11716695092E+03 -0.48415213191E+03  0.82744848415E+02  0.50495355346E+03  0.00000000000E+00 0.  1.
        -11    1    5    5    0    0  0.68309287184E+01 -0.84873317729E+01  0.18381788193E+02  0.21367885364E+02  0.00000000000E+00 0. -1.
          2    1    6    6  503    0 -0.25005301909E+03  0.12662447141E+03 -0.11307995843E+03  0.30223723483E+03  0.00000000000E+00 0.  1.
         -2    1    6    6    0  503 -0.76730125340E+02 -0.22119269183E+01 -0.66321505544E+02  0.10144430419E+03  0.00000000000E+00 0. -1.
<mgrwt>
<rscale>  0 0.14912369E+04</rscale>
<asrwt>0</asrwt>
<pdfrwt beam="1">  1        2 0.91346299E-01 0.14912369E+04</pdfrwt>
<pdfrwt beam="2">  1       -1 0.14405078E+00 0.14912369E+04</pdfrwt>
<totfact> 0.21578746E+01</totfact>
</mgrwt>
</event>
<event>
12    6  0.9533401E-008  0.1632623E+04  0.7818608E-02  0.8800754E-01
          2   -1    0    0  501    0  0.00000000000E+00  0.00000000000E+00  0.31574681492E+04  0.31574681492E+04  0.00000000000E+00 0. -1.
         -1   -1    0    0    0  501 -0.00000000000E+00 -0.00000000000E+00 -0.21104380069E+03  0.21104380069E+03  0.00000000000E+00 0.  1.
         24    2    1    2    0    0  0.19609277322E+03 -0.39457843175E+03  0.17891042275E+04  0.18442829852E+04  0.79632142650E+02 0.  0.
        254    2    1    2    0    0 -0.19609277322E+03  0.39457843175E+03  0.11573201209E+04  0.15242289646E+04  0.88867292055E+03 0.  0.
         23    2    4    4    0    0 -0.89497967234E+02  0.27472809706E+03 -0.46530381161E+02  0.30643615347E+03  0.90843966918E+02 0.  0.
         23    2    4    4    0    0 -0.10659480598E+03  0.11985033469E+03  0.12038505021E+04  0.12177928111E+04  0.89647889423E+02 0.  0.
          4    1    3    3  502    0  0.12461352104E+03 -0.17009219325E+03  0.77490364997E+03  0.80307879475E+03  0.00000000000E+00 0. -1.
         -3    1    3    3    0  502  0.71479252172E+02 -0.22448623850E+03  0.10142005776E+04  0.10412041905E+04  0.00000000000E+00 0.  1.
         11    1    5    5    0    0 -0.80204795787E-01  0.14631454073E+03 -0.18759441744E+02  0.14751226362E+03  0.00000000000E+00 0. -1.
        -11    1    5    5    0    0 -0.89417762438E+02  0.12841355633E+03 -0.27770939417E+02  0.15892388985E+03  0.00000000000E+00 0.  1.
          1    1    6    6  503    0  0.14802367914E+02  0.17924468333E+02  0.22409050419E+03  0.22529303303E+03  0.00000000000E+00 0. -1.
         -1    1    6    6    0  503 -0.12139717390E+03  0.10192586636E+03  0.97975999791E+03  0.99249977812E+03  0.00000000000E+00 0.  1.
<mgrwt>
<rscale>  0 0.16326225E+04</rscale>
<asrwt>0</asrwt>
<pdfrwt beam="1">  1        2 0.48576429E+00 0.16326225E+04</pdfrwt>
<pdfrwt beam="2">  1       -1 0.32468279E-01 0.16326225E+04</pdfrwt>
<totfact> 0.13451834E+01</totfact>
</mgrwt>
</event>
<event>
12    6  0.9533401E-008  0.1050732E+04  0.7818608E-02  0.9254589E-01
          2   -1    0    0  501    0  0.00000000000E+00  0.00000000000E+00  0.20831422430E+04  0.20831422430E+04  0.00000000000E+00 0. -1.
         -1   -1    0    0    0  501 -0.00000000000E+00 -0.00000000000E+00 -0.13249662759E+03  0.13249662759E+03  0.00000000000E+00 0.  1.
         24    2    1    2    0    0  0.77678183550E+02  0.39311584616E+02  0.48513161693E+03  0.49661850257E+03  0.60810775884E+02 0.  0.
        254    2    1    2    0    0 -0.77678183550E+02 -0.39311584616E+02  0.14655139985E+04  0.17190203680E+04  0.89427090139E+03 0.  0.
         23    2    4    4    0    0  0.87639821692E+02 -0.15896821137E+03  0.14814580963E+04  0.14953886313E+04  0.92289961526E+02 0.  0.
         23    2    4    4    0    0 -0.16531800524E+03  0.11965662675E+03 -0.15944097827E+02  0.22363173671E+03  0.90051031222E+02 0.  0.
          2    1    3    3  502    0  0.32805408504E+02  0.19991523762E+02  0.82180914494E+02  0.90716914391E+02  0.00000000000E+00 0. -1.
         -3    1    3    3    0  502  0.44872775045E+02  0.19320060854E+02  0.40295070243E+03  0.40590158818E+03  0.00000000000E+00 0.  1.
         11    1    5    5    0    0  0.17546176312E+02 -0.63422941654E+02  0.87442220671E+03  0.87689482461E+03  0.00000000000E+00 0. -1.
        -11    1    5    5    0    0  0.70093645380E+02 -0.95545269715E+02  0.60703588961E+03  0.61849380673E+03  0.00000000000E+00 0.  1.
          3    1    6    6  503    0 -0.56251701898E+02  0.17934565285E+02 -0.41701414949E+02  0.72283543128E+02  0.00000000000E+00 0. -1.
         -3    1    6    6    0  503 -0.10906630334E+03  0.10172206147E+03  0.25757317122E+02  0.15134819358E+03  0.00000000000E+00 0.  1.
<mgrwt>
<rscale>  0 0.10507318E+04</rscale>
<asrwt>0</asrwt>
<pdfrwt beam="1">  1        2 0.32048340E+00 0.10507318E+04</pdfrwt>
<pdfrwt beam="2">  1       -1 0.20384098E-01 0.10507318E+04</pdfrwt>
<totfact> 0.13544600E+02</totfact>
</mgrwt>
</event>
<event>
12    6  0.9533401E-008  0.3271526E+04  0.7818608E-02  0.8170179E-01
         -1   -1    0    0    0  501 -0.00000000000E+00  0.00000000000E+00  0.17482788176E+04  0.17482788176E+04  0.00000000000E+00 0.  1.
          2   -1    0    0  501    0  0.00000000000E+00 -0.00000000000E+00 -0.15304885977E+04  0.15304885977E+04  0.00000000000E+00 0. -1.
         24    2    1    2    0    0 -0.39254835362E+03 -0.10945435444E+04 -0.86783778916E+03  0.14531392865E+04  0.79696782632E+02 0.  0.
        254    2    1    2    0    0  0.39254835362E+03  0.10945435444E+04  0.10856280090E+04  0.18256281288E+04  0.89566182801E+03 0.  0.
         23    2    4    4    0    0  0.11874302615E+03  0.42103604208E+03 -0.75546239349E+02  0.45294689671E+03  0.89902179994E+02 0.  0.
         23    2    4    4    0    0  0.27380532747E+03  0.67350750229E+03  0.11611742484E+04  0.13726812321E+04  0.85711240703E+02 0.  0.
          2    1    3    3  502    0 -0.37807592399E+03 -0.10078215683E+04 -0.81907405276E+03  0.13526004664E+04  0.00000000000E+00 0. -1.
         -1    1    3    3    0  502 -0.14472429627E+02 -0.86721976064E+02 -0.48763736399E+02  0.10053882006E+03  0.00000000000E+00 0.  1.
         11    1    5    5    0    0  0.25970695836E+01 -0.36098315270E+01 -0.56492833473E+01  0.71895797105E+01  0.00000000000E+00 0. -1.
        -11    1    5    5    0    0  0.11614595657E+03  0.42464587361E+03 -0.69896956002E+02  0.44575731700E+03  0.00000000000E+00 0.  1.
          1    1    6    6  503    0  0.67775934735E+02  0.15290916359E+03  0.20418681936E+03  0.26394515877E+03  0.00000000000E+00 0. -1.
         -1    1    6    6    0  503  0.20602939273E+03  0.52059833870E+03  0.95698742903E+03  0.11087360733E+04  0.00000000000E+00 0.  1.
<mgrwt>
<rscale>  0 0.32715261E+04</rscale>
<asrwt>0</asrwt>
<pdfrwt beam="1">  1        2 0.23545978E+00 0.32715261E+04</pdfrwt>
<pdfrwt beam="2">  1       -1 0.26896597E+00 0.32715261E+04</pdfrwt>
<totfact> 0.61013774E-01</totfact>
</mgrwt>
</event>
<event>
12    6  0.9533401E-008  0.1833937E+04  0.7818608E-02  0.8688457E-01
          2   -1    0    0  501    0  0.00000000000E+00  0.00000000000E+00  0.14877802666E+04  0.14877802666E+04  0.00000000000E+00 0. -1.
         -1   -1    0    0    0  501 -0.00000000000E+00 -0.00000000000E+00 -0.56515831593E+03  0.56515831593E+03  0.00000000000E+00 0.  1.
         24    2    1    2    0    0  0.64501036780E+03  0.10481298614E+03  0.63074121085E+03  0.91129898163E+03  0.74881387703E+02 0.  0.
        254    2    1    2    0    0 -0.64501036780E+03 -0.10481298614E+03  0.29188073986E+03  0.11416396009E+04  0.88945065939E+03 0.  0.
         23    2    4    4    0    0 -0.54841511378E+03 -0.61435584581E+02  0.59003248913E+03  0.81304605451E+03  0.91499073442E+02 0.  0.
         23    2    4    4    0    0 -0.96595254019E+02 -0.43377401560E+02 -0.29815174927E+03  0.32859354643E+03  0.88696172935E+02 0.  0.
          4    1    3    3  502    0  0.58022634039E+03  0.75065515610E+02  0.54264791094E+03  0.79797505785E+03  0.00000000000E+00 0. -1.
         -3    1    3    3    0  502  0.64784027414E+02  0.29747470531E+02  0.88093299909E+02  0.11332392378E+03  0.00000000000E+00 0.  1.
         11    1    5    5    0    0 -0.31820184463E+03 -0.47772331127E+00  0.29518582603E+03  0.43403607458E+03  0.00000000000E+00 0.  1.
        -11    1    5    5    0    0 -0.23021326915E+03 -0.60957861270E+02  0.29484666310E+03  0.37900997993E+03  0.00000000000E+00 0. -1.
          4    1    6    6  503    0 -0.38120260919E+02  0.25083826667E+02 -0.72776540965E+02  0.85899811220E+02  0.00000000000E+00 0. -1.
         -4    1    6    6    0  503 -0.58474993100E+02 -0.68461228228E+02 -0.22537520831E+03  0.24269373521E+03  0.00000000000E+00 0.  1.
<mgrwt>
<rscale>  0 0.18339372E+04</rscale>
<asrwt>0</asrwt>
<pdfrwt beam="1">  1        2 0.22888927E+00 0.18339372E+04</pdfrwt>
<pdfrwt beam="2">  1       -1 0.86947434E-01 0.18339372E+04</pdfrwt>
<totfact> 0.18031505E+01</totfact>
</mgrwt>
</event>
<event>
12    6  0.9533401E-008  0.1342384E+04  0.7818608E-02  0.8996613E-01
         -1   -1    0    0    0  501 -0.00000000000E+00  0.00000000000E+00  0.54321279185E+03  0.54321279185E+03  0.00000000000E+00 0.  1.
          2   -1    0    0  501    0  0.00000000000E+00 -0.00000000000E+00 -0.82932258742E+03  0.82932258742E+03  0.00000000000E+00 0. -1.
         24    2    1    2    0    0 -0.32099147055E+03  0.94641524938E+02 -0.21874174667E+03  0.40697806562E+03  0.76096332043E+02 0.  0.
        254    2    1    2    0    0  0.32099147055E+03 -0.94641524938E+02 -0.67368048895E+02  0.96555731365E+03  0.90319982812E+03 0.  0.
         23    2    4    4    0    0  0.44503715802E+03 -0.41055065501E+03 -0.40514578399E+02  0.61357054986E+03  0.90650296447E+02 0.  0.
         23    2    4    4    0    0 -0.12404568748E+03  0.31590913007E+03 -0.26853470496E+02  0.35198676379E+03  0.89373720768E+02 0.  0.
          2    1    3    3  502    0 -0.29707016796E+03  0.64661835125E+02 -0.20271163579E+03  0.36540914726E+03  0.00000000000E+00 0. -1.
         -1    1    3    3    0  502 -0.23921302586E+02  0.29979689814E+02 -0.16030110874E+02  0.41568918357E+02  0.00000000000E+00 0.  1.
         11    1    5    5    0    0  0.38457517201E+03 -0.36501560699E+03 -0.56871662095E+01  0.53025163850E+03  0.00000000000E+00 0. -1.
        -11    1    5    5    0    0  0.60461986014E+02 -0.45535048019E+02 -0.34827412190E+02  0.83318911363E+02  0.00000000000E+00 0.  1.
          3    1    6    6  503    0 -0.52238551107E+01 -0.39876637421E+01 -0.78059858315E+01  0.10204094234E+02  0.00000000000E+00 0. -1.
         -3    1    6    6    0  503 -0.11882183236E+03  0.31989679381E+03 -0.19047484665E+02  0.34178266956E+03  0.00000000000E+00 0.  1.
<mgrwt>
<rscale>  0 0.13423839E+04</rscale>
<asrwt>0</asrwt>
<pdfrwt beam="1">  1        2 0.12758809E+00 0.13423839E+04</pdfrwt>
<pdfrwt beam="2">  1       -1 0.83571199E-01 0.13423839E+04</pdfrwt>
<totfact> 0.52026768E+01</totfact>
</mgrwt>
</event>
<event>
12    6  0.9533401E-008  0.2864795E+04  0.7818608E-02  0.8283430E-01
          2   -1    0    0  501    0  0.00000000000E+00  0.00000000000E+00  0.27270536833E+04  0.27270536833E+04  0.00000000000E+00 0. -1.
         -1   -1    0    0    0  501 -0.00000000000E+00 -0.00000000000E+00 -0.75237333371E+03  0.75237333371E+03  0.00000000000E+00 0.  1.
         24    2    1    2    0    0 -0.96142507912E+03  0.69336869718E+02  0.19451450888E+04  0.21723236428E+04  0.79087347804E+02 0.  0.
        254    2    1    2    0    0  0.96142507912E+03 -0.69336869718E+02  0.29535260771E+02  0.13071033741E+04  0.88232710190E+03 0.  0.
         23    2    4    4    0    0  0.40201406125E+03  0.77923990840E+02  0.42695743779E+03  0.59860923764E+03  0.91394266279E+02 0.  0.
         23    2    4    4    0    0  0.55941101786E+03 -0.14726086056E+03 -0.39742217702E+03  0.70849413648E+03  0.96918041073E+02 0.  0.
          2    1    3    3  502    0 -0.80237798010E+03  0.87251890781E+02  0.16227101397E+04  0.18123497215E+04  0.00000000000E+00 0. -1.
         -1    1    3    3    0  502 -0.15904709902E+03 -0.17915021063E+02  0.32243494904E+03  0.35997392135E+03  0.00000000000E+00 0.  1.
         11    1    5    5    0    0  0.14296817184E+03  0.63988742861E+02  0.19911029216E+03  0.25333646760E+03  0.00000000000E+00 0.  1.
        -11    1    5    5    0    0  0.25904588941E+03  0.13935247978E+02  0.22784714563E+03  0.34527277004E+03  0.00000000000E+00 0. -1.
          2    1    6    6  503    0  0.28624207822E+03 -0.68985055271E+02 -0.14409292410E+03  0.32780517991E+03  0.00000000000E+00 0.  1.
         -2    1    6    6    0  503  0.27316893964E+03 -0.78275805287E+02 -0.25332925291E+03  0.38068895658E+03  0.00000000000E+00 0. -1.
<mgrwt>
<rscale>  0 0.28647949E+04</rscale>
<asrwt>0</asrwt>
<pdfrwt beam="1">  1        2 0.41954672E+00 0.28647949E+04</pdfrwt>
<pdfrwt beam="2">  1       -1 0.11574974E+00 0.28647949E+04</pdfrwt>
<totfact> 0.17002291E+00</totfact>
</mgrwt>
</event>
<event>
12    6  0.9533401E-008  0.2907638E+04  0.7818608E-02  0.8270609E-01
         -1   -1    0    0    0  501 -0.00000000000E+00  0.00000000000E+00  0.15500168439E+04  0.15500168439E+04  0.00000000000E+00 0.  1.
          2   -1    0    0  501    0  0.00000000000E+00 -0.00000000000E+00 -0.13635913233E+04  0.13635913233E+04  0.00000000000E+00 0. -1.
         24    2    1    2    0    0  0.26255156522E+03  0.72199901844E+03 -0.99146310167E+03  0.12562039318E+04  0.69522150232E+02 0.  0.
        254    2    1    2    0    0 -0.26255156522E+03 -0.72199901844E+03  0.11778886222E+04  0.16574042354E+04  0.87712672183E+03 0.  0.
         23    2    4    4    0    0 -0.49429351362E+03 -0.13472059306E+03  0.62771689235E+03  0.81506200169E+03  0.88441245166E+02 0.  0.
         23    2    4    4    0    0  0.23174194840E+03 -0.58727842537E+03  0.55017172989E+03  0.84234223373E+03  0.90836263682E+02 0.  0.
          4    1    3    3  502    0  0.87803437821E+01  0.67220121665E+02 -0.67469649060E+02  0.95644094109E+02  0.00000000000E+00 0. -1.
         -3    1    3    3    0  502  0.25377122144E+03  0.65477889677E+03 -0.92399345261E+03  0.11605598377E+04  0.00000000000E+00 0.  1.
         11    1    5    5    0    0 -0.38130254391E+02 -0.81621223534E+01  0.17477519164E+02  0.42731723782E+02  0.00000000000E+00 0. -1.
        -11    1    5    5    0    0 -0.45616325923E+03 -0.12655847071E+03  0.61023937319E+03  0.77233027790E+03  0.00000000000E+00 0.  1.
          1    1    6    6  503    0  0.82268152416E+02 -0.10785368459E+03  0.11464193820E+03  0.17760416711E+03  0.00000000000E+00 0. -1.
         -1    1    6    6    0  503  0.14947379598E+03 -0.47942474079E+03  0.43552979169E+03  0.66473806662E+03  0.00000000000E+00 0.  1.
<mgrwt>
<rscale>  0 0.29076379E+04</rscale>
<asrwt>0</asrwt>
<pdfrwt beam="1">  1        2 0.20978328E+00 0.29076379E+04</pdfrwt>
<pdfrwt beam="2">  1       -1 0.23846413E+00 0.29076379E+04</pdfrwt>
<totfact> 0.12379147E+00</totfact>
</mgrwt>
</event>
<event>
12    6  0.9533401E-008  0.1950512E+04  0.7818608E-02  0.8630114E-01
         -1   -1    0    0    0  501 -0.00000000000E+00  0.00000000000E+00  0.33839275710E+03  0.33839275710E+03  0.00000000000E+00 0.  1.
          2   -1    0    0  501    0  0.00000000000E+00 -0.00000000000E+00 -0.28107096520E+04  0.28107096520E+04  0.00000000000E+00 0. -1.
         24    2    1    2    0    0  0.56347756674E+03  0.20563957906E+03 -0.17392945571E+04  0.18415209489E+04  0.79115384490E+02 0.  0.
        254    2    1    2    0    0 -0.56347756674E+03 -0.20563957906E+03 -0.73302233776E+03  0.13075814602E+04  0.90147264111E+03 0.  0.
         23    2    4    4    0    0  0.16572623251E+03  0.10032168043E+03 -0.38053778991E+03  0.43674278927E+03  0.91682226856E+02 0.  0.
         23    2    4    4    0    0 -0.72920379926E+03 -0.30596125949E+03 -0.35248454784E+03  0.87083867091E+03  0.93617098459E+02 0.  0.
          4    1    3    3  502    0  0.55743723065E+03  0.20947809151E+03 -0.17309885449E+04  0.18305569315E+04  0.00000000000E+00 0. -1.
         -3    1    3    3    0  502  0.60403360922E+01 -0.38385124466E+01 -0.83060122067E+01  0.10964017361E+02  0.00000000000E+00 0.  1.
         11    1    5    5    0    0  0.55371865399E+02  0.11999297981E+02 -0.19759154510E+03  0.20555399613E+03  0.00000000000E+00 0.  1.
        -11    1    5    5    0    0  0.11035436712E+03  0.88322382450E+02 -0.18294624481E+03  0.23118879314E+03  0.00000000000E+00 0. -1.
          4    1    6    6  503    0 -0.41439698624E+03 -0.15132447370E+03 -0.15065408509E+03  0.46617658875E+03  0.00000000000E+00 0.  1.
         -4    1    6    6    0  503 -0.31480681301E+03 -0.15463678580E+03 -0.20183046275E+03  0.40466208216E+03  0.00000000000E+00 0. -1.
<mgrwt>
<rscale>  0 0.19505115E+04</rscale>
<asrwt>0</asrwt>
<pdfrwt beam="1">  1        2 0.43241688E+00 0.19505115E+04</pdfrwt>
<pdfrwt beam="2">  1       -1 0.52060423E-01 0.19505115E+04</pdfrwt>
<totfact> 0.90029381E+00</totfact>
</mgrwt>
</event>
<event>
12    6  0.9533401E-008  0.1882759E+04  0.7818608E-02  0.8663486E-01
         -1   -1    0    0    0  501 -0.00000000000E+00  0.00000000000E+00  0.11315580821E+04  0.11315580821E+04  0.00000000000E+00 0.  1.
          2   -1    0    0  501    0  0.00000000000E+00 -0.00000000000E+00 -0.78316407763E+03  0.78316407763E+03  0.00000000000E+00 0. -1.
         24    2    1    2    0    0  0.60419901293E+03 -0.13338810692E+03 -0.24892884957E+03  0.67201683306E+03  0.82414910527E+02 0.  0.
        254    2    1    2    0    0 -0.60419901293E+03  0.13338810692E+03  0.59732285407E+03  0.12427053267E+04  0.89703573101E+03 0.  0.
         23    2    4    4    0    0 -0.27401293240E+02  0.27054877098E+03 -0.11668739129E+03  0.30982389874E+03  0.91801048981E+02 0.  0.
         23    2    4    4    0    0 -0.57679771969E+03 -0.13716066406E+03  0.71401024535E+03  0.93288142795E+03  0.94596357949E+02 0.  0.
          4    1    3    3  502    0  0.50460713998E+03 -0.98625002568E+02 -0.17466721571E+03  0.54301371354E+03  0.00000000000E+00 0. -1.
         -3    1    3    3    0  502  0.99591872947E+02 -0.34763104356E+02 -0.74261633865E+02  0.12900311952E+03  0.00000000000E+00 0.  1.
         11    1    5    5    0    0 -0.31501961778E+01  0.53006148491E+02  0.13966315071E+02  0.54905677943E+02  0.00000000000E+00 0. -1.
        -11    1    5    5    0    0 -0.24251097062E+02  0.21754262249E+03 -0.13065370636E+03  0.25491822080E+03  0.00000000000E+00 0.  1.
          3    1    6    6  503    0 -0.49650960779E+02 -0.28311740677E+02  0.37499402972E+02  0.68359182190E+02  0.00000000000E+00 0. -1.
         -3    1    6    6    0  503 -0.52714675891E+03 -0.10884892338E+03  0.67651084238E+03  0.86452224576E+03  0.00000000000E+00 0.  1.
<mgrwt>
<rscale>  0 0.18827593E+04</rscale>
<asrwt>0</asrwt>
<pdfrwt beam="1">  1        2 0.12048678E+00 0.18827593E+04</pdfrwt>
<pdfrwt beam="2">  1       -1 0.17408586E+00 0.18827593E+04</pdfrwt>
<totfact> 0.87118515E+00</totfact>
</mgrwt>
</event>
<event>
12    6  0.9533401E-008  0.1826054E+04  0.7818608E-02  0.8692566E-01
         -1   -1    0    0    0  501 -0.00000000000E+00  0.00000000000E+00  0.91455788569E+03  0.91455788569E+03  0.00000000000E+00 0.  1.
          2   -1    0    0  501    0  0.00000000000E+00 -0.00000000000E+00 -0.91149839310E+03  0.91149839310E+03  0.00000000000E+00 0. -1.
         24    2    1    2    0    0  0.40191248275E+03 -0.11922560211E+03  0.51773469228E+03  0.67095821150E+03  0.79920723289E+02 0.  0.
        254    2    1    2    0    0 -0.40191248275E+03  0.11922560211E+03 -0.51467519968E+03  0.11550980673E+04  0.94531084618E+03 0.  0.
         23    2    4    4    0    0 -0.34624749699E+03  0.41037191899E+03  0.11417758261E+02  0.54463228134E+03  0.90562219591E+02 0.  0.
         23    2    4    4    0    0 -0.55664985761E+02 -0.29114631688E+03 -0.52609295794E+03  0.61046578594E+03  0.89609748024E+02 0.  0.
          4    1    3    3  502    0  0.88730506293E+02  0.71325705641E+01  0.10407492553E+03  0.13695096361E+03  0.00000000000E+00 0. -1.
         -3    1    3    3    0  502  0.31318197645E+03 -0.12635817267E+03  0.41365976674E+03  0.53400724789E+03  0.00000000000E+00 0.  1.
         11    1    5    5    0    0 -0.34367281243E+03  0.40769201434E+03  0.62812010534E+00  0.53322056890E+03  0.00000000000E+00 0.  1.
        -11    1    5    5    0    0 -0.25746845580E+01  0.26799046469E+01  0.10789638156E+02  0.11411712449E+02  0.00000000000E+00 0. -1.
          3    1    6    6  503    0  0.23697961237E+02 -0.57426769114E+02 -0.89843252970E+02  0.10923020316E+03  0.00000000000E+00 0. -1.
         -3    1    6    6    0  503 -0.79362946998E+02 -0.23371954776E+03 -0.43624970497E+03  0.50123558278E+03  0.00000000000E+00 0.  1.
<mgrwt>
<rscale>  0 0.18260537E+04</rscale>
<asrwt>0</asrwt>
<pdfrwt beam="1">  1        2 0.14023052E+00 0.18260537E+04</pdfrwt>
<pdfrwt beam="2">  1       -1 0.14070121E+00 0.18260537E+04</pdfrwt>
<totfact> 0.12810897E+01</totfact>
</mgrwt>
</event>
<event>
12    6  0.9533401E-008  0.1189574E+04  0.7818608E-02  0.9122032E-01
          2   -1    0    0  501    0  0.00000000000E+00  0.00000000000E+00  0.91590387292E+03  0.91590387292E+03  0.00000000000E+00 0. -1.
         -1   -1    0    0    0  501 -0.00000000000E+00 -0.00000000000E+00 -0.38625402297E+03  0.38625402297E+03  0.00000000000E+00 0.  1.
         24    2    1    2    0    0  0.27361858623E+02 -0.23543132963E+03  0.14454294262E+03  0.28821698774E+03  0.77458295142E+02 0.  0.
        254    2    1    2    0    0 -0.27361858623E+02  0.23543132963E+03  0.38510690734E+03  0.10139409081E+04  0.90751983607E+03 0.  0.
         23    2    4    4    0    0 -0.15512615157E+03 -0.19072857221E+03 -0.15765105694E+03  0.30619805570E+03  0.91988490598E+02 0.  0.
         23    2    4    4    0    0  0.12776429295E+03  0.42615990183E+03  0.54275796428E+03  0.70774285244E+03  0.91530109342E+02 0.  0.
          4    1    3    3  502    0  0.42865325748E+02 -0.22829574720E+03  0.13462773506E+03  0.26847907067E+03  0.00000000000E+00 0. -1.
         -3    1    3    3    0  502 -0.15503467125E+02 -0.71355824272E+01  0.99152075629E+01  0.19737917076E+02  0.00000000000E+00 0.  1.
         11    1    5    5    0    0 -0.14230564400E+03 -0.14126403041E+03 -0.85969789059E+02  0.21816788772E+03  0.00000000000E+00 0.  1.
        -11    1    5    5    0    0 -0.12820507577E+02 -0.49464541797E+02 -0.71681267885E+02  0.88030167984E+02  0.00000000000E+00 0. -1.
          4    1    6    6  503    0  0.71388039570E+01  0.22469041189E+02  0.73037617231E+02  0.76748380209E+02  0.00000000000E+00 0. -1.
         -4    1    6    6    0  503  0.12062548899E+03  0.40369086064E+03  0.46972034705E+03  0.63099447224E+03  0.00000000000E+00 0.  1.
<mgrwt>
<rscale>  0 0.11895740E+04</rscale>
<asrwt>0</asrwt>
<pdfrwt beam="1">  1        2 0.14090829E+00 0.11895740E+04</pdfrwt>
<pdfrwt beam="2">  1       -1 0.59423696E-01 0.11895740E+04</pdfrwt>
<totfact> 0.92528993E+01</totfact>
</mgrwt>
</event>
<event>
12    6  0.9533401E-008  0.1357334E+04  0.7818608E-02  0.8985295E-01
         -1   -1    0    0    0  501 -0.00000000000E+00  0.00000000000E+00  0.32974665138E+03  0.32974665138E+03  0.00000000000E+00 0.  1.
          2   -1    0    0  501    0  0.00000000000E+00 -0.00000000000E+00 -0.13967965166E+04  0.13967965166E+04  0.00000000000E+00 0. -1.
         24    2    1    2    0    0 -0.95523219547E+02 -0.35006716456E+03 -0.19662790328E+03  0.42037199826E+03  0.79864756937E+02 0.  0.
        254    2    1    2    0    0  0.95523219547E+02  0.35006716456E+03 -0.87042196192E+03  0.13061711697E+04  0.90375717292E+03 0.  0.
         23    2    4    4    0    0  0.12030315324E+03 -0.21575548793E+03 -0.63114660281E+03  0.68453620826E+03  0.96023470773E+02 0.  0.
         23    2    4    4    0    0 -0.24779933693E+02  0.56582265249E+03 -0.23927535912E+03  0.62163496144E+03  0.91695194136E+02 0.  0.
          2    1    3    3  502    0 -0.40578111534E+02 -0.23786815099E+03 -0.16231202418E+03  0.29081443153E+03  0.00000000000E+00 0. -1.
         -1    1    3    3    0  502 -0.54945108013E+02 -0.11219901357E+03 -0.34315879103E+02  0.12955756673E+03  0.00000000000E+00 0.  1.
         11    1    5    5    0    0  0.21728540731E+02 -0.50943117914E+02 -0.58553933771E+02  0.80597108541E+02  0.00000000000E+00 0. -1.
        -11    1    5    5    0    0  0.98574612510E+02 -0.16481237001E+03 -0.57259266904E+03  0.60393909972E+03  0.00000000000E+00 0.  1.
          1    1    6    6  503    0 -0.13575413965E+02  0.79401908131E+01 -0.73660223043E+01  0.17366541943E+02  0.00000000000E+00 0. -1.
         -1    1    6    6    0  503 -0.11204519729E+02  0.55788246167E+03 -0.23190933681E+03  0.60426841950E+03  0.00000000000E+00 0.  1.
<mgrwt>
<rscale>  0 0.13573341E+04</rscale>
<asrwt>0</asrwt>
<pdfrwt beam="1">  1        2 0.21489177E+00 0.13573341E+04</pdfrwt>
<pdfrwt beam="2">  1       -1 0.50730255E-01 0.13573341E+04</pdfrwt>
<totfact> 0.63115591E+01</totfact>
</mgrwt>
</event>
<event>
12    6  0.9533401E-008  0.2056986E+04  0.7818608E-02  0.8580432E-01
         -3   -1    0    0    0  501 -0.00000000000E+00  0.00000000000E+00  0.14677520280E+04  0.14677520280E+04  0.00000000000E+00 0.  1.
          2   -1    0    0  501    0  0.00000000000E+00 -0.00000000000E+00 -0.72069230349E+03  0.72069230349E+03  0.00000000000E+00 0. -1.
         24    2    1    2    0    0 -0.35937162541E+03 -0.45753224708E+03  0.93752558693E+03  0.11062070248E+04  0.79095090441E+02 0.  0.
        254    2    1    2    0    0  0.35937162541E+03  0.45753224708E+03 -0.19046586239E+03  0.10822373067E+04  0.89245538882E+03 0.  0.
         23    2    4    4    0    0  0.49880920540E+03  0.18509429971E+03 -0.42324899353E+03  0.68607741391E+03  0.92151962366E+02 0.  0.
         23    2    4    4    0    0 -0.13943757999E+03  0.27243794737E+03  0.23278313115E+03  0.39615989281E+03  0.95338348224E+02 0.  0.
          4    1    3    3  502    0 -0.72279763256E+01 -0.35507020480E+02  0.42148874005E+02  0.55583448301E+02  0.00000000000E+00 0. -1.
         -3    1    3    3    0  502 -0.35214364908E+03 -0.42202522660E+03  0.89537671293E+03  0.10506235765E+04  0.00000000000E+00 0.  1.
         11    1    5    5    0    0  0.45506050418E+03  0.15538740198E+03 -0.34575605119E+03  0.59226054579E+03  0.00000000000E+00 0. -1.
        -11    1    5    5    0    0  0.43748701218E+02  0.29706897725E+02 -0.77492942339E+02  0.93816868116E+02  0.00000000000E+00 0.  1.
          1    1    6    6  503    0 -0.69008759906E+02  0.21875814701E+03  0.14442546410E+03  0.27106466111E+03  0.00000000000E+00 0. -1.
         -1    1    6    6    0  503 -0.70428820086E+02  0.53679800360E+02  0.88357667050E+02  0.12509523169E+03  0.00000000000E+00 0.  1.
<mgrwt>
<rscale>  0 0.20569857E+04</rscale>
<asrwt>0</asrwt>
<pdfrwt beam="1">  1        2 0.11087574E+00 0.20569857E+04</pdfrwt>
<pdfrwt beam="2">  1       -3 0.22580800E+00 0.20569857E+04</pdfrwt>
<totfact> 0.23241376E+00</totfact>
</mgrwt>
</event>
<event>
12    6  0.9533401E-008  0.2128115E+04  0.7818608E-02  0.8548958E-01
          2   -1    0    0  501    0  0.00000000000E+00  0.00000000000E+00  0.10043564166E+04  0.10043564166E+04  0.00000000000E+00 0. -1.
         -1   -1    0    0    0  501 -0.00000000000E+00 -0.00000000000E+00 -0.11273077222E+04  0.11273077222E+04  0.00000000000E+00 0.  1.
         24    2    1    2    0    0  0.82918606782E+03 -0.19882843428E+03  0.10901073131E+03  0.86334569069E+03  0.80001004743E+02 0.  0.
        254    2    1    2    0    0 -0.82918606782E+03  0.19882843428E+03 -0.23196203692E+03  0.12683184482E+04  0.90980383494E+03 0.  0.
         23    2    4    4    0    0 -0.20125226995E+03 -0.14761858143E+03 -0.44201214045E+03  0.51547451977E+03  0.89696858863E+02 0.  0.
         23    2    4    4    0    0 -0.62793379787E+03  0.34644701571E+03  0.21005010353E+03  0.75284392840E+03  0.91249905957E+02 0.  0.
          2    1    3    3  502    0  0.21652897357E+03 -0.54364377164E+02 -0.66520713050E+01  0.22334845411E+03  0.00000000000E+00 0. -1.
         -3    1    3    3    0  502  0.61265709425E+03 -0.14446405711E+03  0.11566280262E+03  0.63999723659E+03  0.00000000000E+00 0.  1.
         11    1    5    5    0    0 -0.48153956940E+02 -0.85117044152E+02 -0.19611164251E+03  0.21914262730E+03  0.00000000000E+00 0.  1.
        -11    1    5    5    0    0 -0.15309831301E+03 -0.62501537277E+02 -0.24590049794E+03  0.29633189247E+03  0.00000000000E+00 0. -1.
          1    1    6    6  503    0 -0.31135184103E+03  0.19379862115E+03  0.15028009725E+03  0.39633569371E+03  0.00000000000E+00 0. -1.
         -1    1    6    6    0  503 -0.31658195684E+03  0.15264839455E+03  0.59770006279E+02  0.35650823469E+03  0.00000000000E+00 0.  1.
<mgrwt>
<rscale>  0 0.21281154E+04</rscale>
<asrwt>0</asrwt>
<pdfrwt beam="1">  1        2 0.15451637E+00 0.21281154E+04</pdfrwt>
<pdfrwt beam="2">  1       -1 0.17343196E+00 0.21281154E+04</pdfrwt>
<totfact> 0.60946159E+00</totfact>
</mgrwt>
</event>
<event>
12    6  0.9533401E-008  0.1578392E+04  0.7818608E-02  0.8833933E-01
          2   -1    0    0  501    0  0.00000000000E+00  0.00000000000E+00  0.72632773502E+03  0.72632773502E+03  0.00000000000E+00 0. -1.
         -1   -1    0    0    0  501 -0.00000000000E+00 -0.00000000000E+00 -0.85750634877E+03  0.85750634877E+03  0.00000000000E+00 0.  1.
         24    2    1    2    0    0  0.29972427271E+03 -0.19921805446E+03 -0.42526992828E+03  0.56239388723E+03  0.76875871566E+02 0.  0.
        254    2    1    2    0    0 -0.29972427271E+03  0.19921805446E+03  0.29409131453E+03  0.10214401966E+04  0.90957567085E+03 0.  0.
         23    2    4    4    0    0 -0.41584819623E+03  0.41936283873E+03  0.41747108931E+03  0.72897917543E+03  0.91288635606E+02 0.  0.
         23    2    4    4    0    0  0.11612392352E+03 -0.22014478427E+03 -0.12337977479E+03  0.29246102113E+03  0.91446095605E+02 0.  0.
          4    1    3    3  502    0  0.57328305309E+02 -0.96738832817E+01 -0.46892472593E+02  0.74692855035E+02  0.00000000000E+00 0. -1.
         -3    1    3    3    0  502  0.24239596740E+03 -0.18954417118E+03 -0.37837745568E+03  0.48770103220E+03  0.00000000000E+00 0.  1.
         11    1    5    5    0    0 -0.38779914284E+03  0.38011454592E+03  0.35003528347E+03  0.64606496800E+03  0.00000000000E+00 0. -1.
        -11    1    5    5    0    0 -0.28049053395E+02  0.39248292811E+02  0.67435805844E+02  0.82914207436E+02  0.00000000000E+00 0.  1.
          1    1    6    6  503    0  0.49991304453E+01 -0.97946365596E+02 -0.29207859530E+02  0.10233074268E+03  0.00000000000E+00 0. -1.
         -1    1    6    6    0  503  0.11112479308E+03 -0.12219841867E+03 -0.94171915256E+02  0.19013027846E+03  0.00000000000E+00 0.  1.
<mgrwt>
<rscale>  0 0.15783924E+04</rscale>
<asrwt>0</asrwt>
<pdfrwt beam="1">  1        2 0.11174273E+00 0.15783924E+04</pdfrwt>
<pdfrwt beam="2">  1       -1 0.13192405E+00 0.15783924E+04</pdfrwt>
<totfact> 0.20951915E+01</totfact>
</mgrwt>
</event>
<event>
12    6  0.9533401E-008  0.2635996E+04  0.7818608E-02  0.8356076E-01
          2   -1    0    0  501    0  0.00000000000E+00  0.00000000000E+00  0.22281635264E+04  0.22281635264E+04  0.00000000000E+00 0. -1.
         -3   -1    0    0    0  501 -0.00000000000E+00 -0.00000000000E+00 -0.77961894235E+03  0.77961894235E+03  0.00000000000E+00 0.  1.
         24    2    1    2    0    0 -0.10959234542E+04 -0.41206457817E+02  0.20990522785E+03  0.11194094291E+04  0.79190123796E+02 0.  0.
        254    2    1    2    0    0  0.10959234542E+04  0.41206457817E+02  0.12386393562E+04  0.18883730396E+04  0.91048288963E+03 0.  0.
         23    2    4    4    0    0  0.51876278270E+03  0.46057025501E+03  0.51421489693E+03  0.86784488947E+03  0.86591035567E+02 0.  0.
         23    2    4    4    0    0  0.57716067151E+03 -0.41936379719E+03  0.72442445926E+03  0.10205281501E+04  0.87786518862E+02 0.  0.
          2    1    3    3  502    0 -0.64418877455E+03 -0.51138334260E+02  0.94772503492E+02  0.65312796136E+03  0.00000000000E+00 0. -1.
         -1    1    3    3    0  502 -0.45173467967E+03  0.99318764436E+01  0.11513272435E+03  0.46628146779E+03  0.00000000000E+00 0.  1.
         11    1    5    5    0    0  0.16157726864E+03  0.10087335347E+03  0.11403008770E+03  0.22200339656E+03  0.00000000000E+00 0.  1.
        -11    1    5    5    0    0  0.35718551406E+03  0.35969690154E+03  0.40018480922E+03  0.64584149291E+03  0.00000000000E+00 0. -1.
          4    1    6    6  503    0  0.16682035444E+03 -0.10884123502E+03  0.25854978549E+03  0.32637928347E+03  0.00000000000E+00 0.  1.
         -4    1    6    6    0  503  0.41034031707E+03 -0.31052256217E+03  0.46587467376E+03  0.69414886666E+03  0.00000000000E+00 0. -1.
<mgrwt>
<rscale>  0 0.26359958E+04</rscale>
<asrwt>0</asrwt>
<pdfrwt beam="1">  1        2 0.34279439E+00 0.26359958E+04</pdfrwt>
<pdfrwt beam="2">  1       -3 0.11994138E+00 0.26359958E+04</pdfrwt>
<totfact> 0.15835307E+00</totfact>
</mgrwt>
</event>
<event>
12    6  0.9533401E-008  0.2164942E+04  0.7818608E-02  0.8533164E-01
         -1   -1    0    0    0  501 -0.00000000000E+00  0.00000000000E+00  0.22293577443E+04  0.22293577443E+04  0.00000000000E+00 0.  1.
          2   -1    0    0  501    0  0.00000000000E+00 -0.00000000000E+00 -0.52559663500E+03  0.52559663500E+03  0.00000000000E+00 0. -1.
         24    2    1    2    0    0  0.65192493464E+03 -0.61317161392E+03  0.70854305881E+03  0.11442803115E+04  0.79740933754E+02 0.  0.
        254    2    1    2    0    0 -0.65192493464E+03  0.61317161392E+03  0.99521805044E+03  0.16106740678E+04  0.89600582373E+03 0.  0.
         23    2    4    4    0    0 -0.46125717471E+03 -0.85187542077E+02  0.64105083113E+03  0.79957321645E+03  0.91411497241E+02 0.  0.
         23    2    4    4    0    0 -0.19066775993E+03  0.69835915600E+03  0.35416721931E+03  0.81110085132E+03  0.91599488742E+02 0.  0.
          2    1    3    3  502    0  0.63390181983E+03 -0.57762692591E+03  0.68786114309E+03  0.10993804323E+04  0.00000000000E+00 0. -1.
         -1    1    3    3    0  502  0.18023114805E+02 -0.35544688013E+02  0.20681915726E+02  0.44899879190E+02  0.00000000000E+00 0.  1.
         11    1    5    5    0    0 -0.13218838198E+03  0.38832949057E+01  0.13149598289E+03  0.18649407987E+03  0.00000000000E+00 0.  1.
        -11    1    5    5    0    0 -0.32906879274E+03 -0.89070836982E+02  0.50955484824E+03  0.61307913659E+03  0.00000000000E+00 0. -1.
          1    1    6    6  503    0 -0.13165955609E+03  0.38281515798E+03  0.15595961132E+03  0.43382609909E+03  0.00000000000E+00 0. -1.
         -1    1    6    6    0  503 -0.59008203841E+02  0.31554399802E+03  0.19820760799E+03  0.37727475223E+03  0.00000000000E+00 0.  1.
<mgrwt>
<rscale>  0 0.21649415E+04</rscale>
<asrwt>0</asrwt>
<pdfrwt beam="1">  1        2 0.80861022E-01 0.21649415E+04</pdfrwt>
<pdfrwt beam="2">  1       -1 0.34297811E+00 0.21649415E+04</pdfrwt>
<totfact> 0.10524163E+00</totfact>
</mgrwt>
</event>
<event>
12    6  0.9533401E-008  0.1645710E+04  0.7818608E-02  0.8792948E-01
          2   -1    0    0  501    0  0.00000000000E+00  0.00000000000E+00  0.28130365602E+04  0.28130365602E+04  0.00000000000E+00 0. -1.
         -1   -1    0    0    0  501 -0.00000000000E+00 -0.00000000000E+00 -0.24069739727E+03  0.24069739727E+03  0.00000000000E+00 0.  1.
         24    2    1    2    0    0  0.15114790982E+03 -0.37800859779E+03  0.15134981486E+03  0.44102908842E+03  0.76574798269E+02 0.  0.
        254    2    1    2    0    0 -0.15114790982E+03  0.37800859779E+03  0.24209893481E+04  0.26127048691E+04  0.89403641909E+03 0.  0.
         23    2    4    4    0    0 -0.26108624125E+03  0.19161360687E+02  0.16287090485E+03  0.32171142170E+03  0.91859262431E+02 0.  0.
         23    2    4    4    0    0  0.10993833143E+03  0.35884723710E+03  0.22581184432E+04  0.22909934474E+04  0.93243208346E+02 0.  0.
          2    1    3    3  502    0 -0.24643365465E+01 -0.33848174001E+02 -0.23236734969E+01  0.34017220586E+02  0.00000000000E+00 0. -1.
         -1    1    3    3    0  502  0.15361224636E+03 -0.34416042379E+03  0.15367348835E+03  0.40701186783E+03  0.00000000000E+00 0.  1.
         11    1    5    5    0    0 -0.94651321819E+02  0.25688186253E+02  0.10905874582E+03  0.14667162532E+03  0.00000000000E+00 0.  1.
        -11    1    5    5    0    0 -0.16643491943E+03 -0.65268255664E+01  0.53812159033E+02  0.17503979638E+03  0.00000000000E+00 0. -1.
          4    1    6    6  503    0  0.10048979494E+03  0.18916178875E+03  0.13884716711E+04  0.14048964242E+04  0.00000000000E+00 0. -1.
         -4    1    6    6    0  503  0.94485364880E+01  0.16968544836E+03  0.86964677213E+03  0.88609702319E+03  0.00000000000E+00 0.  1.
<mgrwt>
<rscale>  0 0.16457103E+04</rscale>
<asrwt>0</asrwt>
<pdfrwt beam="1">  1        2 0.43277483E+00 0.16457103E+04</pdfrwt>
<pdfrwt beam="2">  1       -1 0.37030371E-01 0.16457103E+04</pdfrwt>
<totfact> 0.17386821E+01</totfact>
</mgrwt>
</event>
<event>
12    6  0.9533401E-008  0.1314743E+04  0.7818608E-02  0.9017955E-01
         -1   -1    0    0    0  501 -0.00000000000E+00  0.00000000000E+00  0.25453894501E+03  0.25453894501E+03  0.00000000000E+00 0.  1.
          2   -1    0    0  501    0  0.00000000000E+00 -0.00000000000E+00 -0.16977260522E+04  0.16977260522E+04  0.00000000000E+00 0. -1.
         24    2    1    2    0    0 -0.32747001856E+03  0.16043824157E+03 -0.32273043031E+03  0.49650853476E+03  0.96895572814E+02 0.  0.
        254    2    1    2    0    0  0.32747001856E+03 -0.16043824157E+03 -0.11204566769E+04  0.14557564625E+04  0.85488401016E+03 0.  0.
         23    2    4    4    0    0 -0.22463855459E+03  0.15154975260E+03 -0.31453688185E+03  0.42515245362E+03  0.91604317867E+02 0.  0.
         23    2    4    4    0    0  0.55210857314E+03 -0.31198799417E+03 -0.80591979504E+03  0.10306040089E+04  0.10235976738E+03 0.  0.
          2    1    3    3  502    0 -0.16824110543E+03  0.73731078525E+02 -0.22526831976E+03  0.29066674626E+03  0.00000000000E+00 0. -1.
         -1    1    3    3    0  502 -0.15922891313E+03  0.86707163049E+02 -0.97462110555E+02  0.20584178850E+03  0.00000000000E+00 0.  1.
         11    1    5    5    0    0 -0.17633464230E+03  0.15717671748E+03 -0.27463621921E+03  0.36224781503E+03  0.00000000000E+00 0. -1.
        -11    1    5    5    0    0 -0.48303912290E+02 -0.56269648856E+01 -0.39900662642E+02  0.62904638586E+02  0.00000000000E+00 0.  1.
          1    1    6    6  503    0  0.40497530027E+03 -0.25204908618E+03 -0.53703188840E+03  0.71828753632E+03  0.00000000000E+00 0. -1.
         -1    1    6    6    0  503  0.14713327288E+03 -0.59938907988E+02 -0.26888790664E+03  0.31231647254E+03  0.00000000000E+00 0.  1.
<mgrwt>
<rscale>  0 0.13147432E+04</rscale>
<asrwt>0</asrwt>
<pdfrwt beam="1">  1        2 0.26118863E+00 0.13147432E+04</pdfrwt>
<pdfrwt beam="2">  1       -1 0.39159837E-01 0.13147432E+04</pdfrwt>
<totfact> 0.69471113E+01</totfact>
</mgrwt>
</event>
<event>
12    6  0.9533401E-008  0.1991333E+04  0.7818608E-02  0.8610684E-01
         -1   -1    0    0    0  501 -0.00000000000E+00  0.00000000000E+00  0.40443891461E+03  0.40443891461E+03  0.00000000000E+00 0.  1.
          2   -1    0    0  501    0  0.00000000000E+00 -0.00000000000E+00 -0.24511772967E+04  0.24511772967E+04  0.00000000000E+00 0. -1.
         24    2    1    2    0    0  0.52882611519E+02  0.60829366725E+03 -0.10991236685E+03  0.62612809539E+03  0.84486136314E+02 0.  0.
        254    2    1    2    0    0 -0.52882611519E+02 -0.60829366725E+03 -0.19368260152E+04  0.22294881159E+04  0.92005678602E+03 0.  0.
         23    2    4    4    0    0  0.20787011136E+03  0.15109428421E+03 -0.31789239343E+03  0.41981567822E+03  0.95656489370E+02 0.  0.
         23    2    4    4    0    0 -0.26075272288E+03 -0.75938795147E+03 -0.16189336218E+04  0.18096724377E+04  0.96468733890E+02 0.  0.
          4    1    3    3  502    0  0.33033588980E+01  0.84661513920E+02 -0.45654079275E+02  0.96243332619E+02  0.00000000000E+00 0. -1.
         -3    1    3    3    0  502  0.49579252621E+02  0.52363215333E+03 -0.64258287571E+02  0.52988476277E+03  0.00000000000E+00 0.  1.
         11    1    5    5    0    0  0.89079371386E+02  0.14929504228E+02 -0.13729257641E+03  0.16433890605E+03  0.00000000000E+00 0. -1.
        -11    1    5    5    0    0  0.11879073998E+03  0.13616477999E+03 -0.18059981702E+03  0.25547677217E+03  0.00000000000E+00 0.  1.
          2    1    6    6  503    0 -0.24243823376E+03 -0.58884589481E+03 -0.12529340596E+04  0.14054748460E+04  0.00000000000E+00 0. -1.
         -2    1    6    6    0  503 -0.18314489122E+02 -0.17054205666E+03 -0.36599956219E+03  0.40419759168E+03  0.00000000000E+00 0.  1.
<mgrwt>
<rscale>  0 0.19913327E+04</rscale>
<asrwt>0</asrwt>
<pdfrwt beam="1">  1        2 0.37710420E+00 0.19913327E+04</pdfrwt>
<pdfrwt beam="2">  1       -1 0.62221371E-01 0.19913327E+04</pdfrwt>
<totfact> 0.10305426E+01</totfact>
</mgrwt>
</event>
<event>
12    6  0.9533401E-008  0.1641632E+04  0.7818608E-02  0.8795372E-01
         -1   -1    0    0    0  501 -0.00000000000E+00  0.00000000000E+00  0.36366541114E+03  0.36366541114E+03  0.00000000000E+00 0.  1.
          2   -1    0    0  501    0  0.00000000000E+00 -0.00000000000E+00 -0.18526344880E+04  0.18526344880E+04  0.00000000000E+00 0. -1.
         24    2    1    2    0    0 -0.15002013175E+03 -0.64964511809E+02  0.21690201650E+03  0.28267901797E+03  0.78323142928E+02 0.  0.
        254    2    1    2    0    0  0.15002013175E+03  0.64964511809E+02 -0.17058710934E+04  0.19336208812E+04  0.89563781587E+03 0.  0.
         23    2    4    4    0    0  0.45868928251E+03 -0.13619002715E+03 -0.65449730140E+03  0.81587897775E+03  0.91368525247E+02 0.  0.
         23    2    4    4    0    0 -0.30866915076E+03  0.20115453896E+03 -0.10513737920E+04  0.11177419035E+04  0.90665975253E+02 0.  0.
          2    1    3    3  502    0  0.19551640535E+01 -0.39743972879E+01 -0.51382497696E+01  0.67838124217E+01  0.00000000000E+00 0. -1.
         -1    1    3    3    0  502 -0.15197529580E+03 -0.60990114521E+02  0.22204026626E+03  0.27589520555E+03  0.00000000000E+00 0.  1.
         11    1    5    5    0    0  0.37810143521E+03 -0.96573521639E+02 -0.47157115648E+03  0.61210007026E+03  0.00000000000E+00 0.  1.
        -11    1    5    5    0    0  0.80587847299E+02 -0.39616505509E+02 -0.18292614491E+03  0.20377890748E+03  0.00000000000E+00 0. -1.
          4    1    6    6  503    0 -0.21115665586E+02  0.36766311989E+02 -0.68523250493E+02  0.80579581089E+02  0.00000000000E+00 0. -1.
         -4    1    6    6    0  503 -0.28755348518E+03  0.16438822697E+03 -0.98285054150E+03  0.10371623224E+04  0.00000000000E+00 0.  1.
<mgrwt>
<rscale>  0 0.16416322E+04</rscale>
<asrwt>0</asrwt>
<pdfrwt beam="1">  1        2 0.28502069E+00 0.16416322E+04</pdfrwt>
<pdfrwt beam="2">  1       -1 0.55948525E-01 0.16416322E+04</pdfrwt>
<totfact> 0.28387042E+01</totfact>
</mgrwt>
</event>
<event>
12    6  0.9533401E-008  0.1952944E+04  0.7818608E-02  0.8628942E-01
          2   -1    0    0  501    0  0.00000000000E+00  0.00000000000E+00  0.98687942723E+03  0.98687942723E+03  0.00000000000E+00 0. -1.
         -1   -1    0    0    0  501 -0.00000000000E+00 -0.00000000000E+00 -0.96617431839E+03  0.96617431839E+03  0.00000000000E+00 0.  1.
         24    2    1    2    0    0 -0.14620159915E+03  0.51027550185E+03 -0.54060002560E+03  0.76182213370E+03  0.79803385518E+02 0.  0.
        254    2    1    2    0    0  0.14620159915E+03 -0.51027550185E+03  0.56130513445E+03  0.11912316119E+04  0.90675978290E+03 0.  0.
         23    2    4    4    0    0  0.13574492550E+02  0.61039270419E+02  0.58682490676E+03  0.59749249620E+03  0.93401030185E+02 0.  0.
         23    2    4    4    0    0  0.13262710660E+03 -0.57131477227E+03 -0.25519772314E+02  0.59373911572E+03  0.88793920609E+02 0.  0.
          4    1    3    3  502    0  0.91322012930E+01  0.22599519102E+02 -0.32524001675E+02  0.40644139172E+02  0.00000000000E+00 0. -1.
         -3    1    3    3    0  502 -0.15533380044E+03  0.48767598274E+03 -0.50807602393E+03  0.72117799453E+03  0.00000000000E+00 0.  1.
         11    1    5    5    0    0 -0.32906750594E+02  0.14492455580E+01  0.11389762697E+03  0.11856485136E+03  0.00000000000E+00 0. -1.
        -11    1    5    5    0    0  0.46481243144E+02  0.59590024861E+02  0.47292727979E+03  0.47892764484E+03  0.00000000000E+00 0.  1.
          2    1    6    6  503    0  0.25418469143E+02 -0.14804147464E+03 -0.44580863371E+02  0.15668385420E+03  0.00000000000E+00 0. -1.
         -2    1    6    6    0  503  0.10720863746E+03 -0.42327329762E+03  0.19061091057E+02  0.43705526152E+03  0.00000000000E+00 0.  1.
<mgrwt>
<rscale>  0 0.19529440E+04</rscale>
<asrwt>0</asrwt>
<pdfrwt beam="1">  1        2 0.15182760E+00 0.19529440E+04</pdfrwt>
<pdfrwt beam="2">  1       -1 0.14864220E+00 0.19529440E+04</pdfrwt>
<totfact> 0.97709402E+00</totfact>
</mgrwt>
</event>
<event>
12    6  0.9533401E-008  0.1473347E+04  0.7818608E-02  0.8902373E-01
         -1   -1    0    0    0  501 -0.00000000000E+00  0.00000000000E+00  0.12521424209E+04  0.12521424209E+04  0.00000000000E+00 0.  1.
          2   -1    0    0  501    0  0.00000000000E+00 -0.00000000000E+00 -0.43340753765E+03  0.43340753765E+03  0.00000000000E+00 0. -1.
         24    2    1    2    0    0 -0.27824137375E+03 -0.91509338815E+02 -0.13963179879E+03  0.33713678145E+03  0.91498355229E+02 0.  0.
        254    2    1    2    0    0  0.27824137375E+03  0.91509338815E+02  0.95836668206E+03  0.13484131771E+04  0.90219686200E+03 0.  0.
         23    2    4    4    0    0  0.15228476975E+03  0.39841405459E+03  0.89904002829E+03  0.99919539665E+03  0.90521037493E+02 0.  0.
         23    2    4    4    0    0  0.12595660401E+03 -0.30690471578E+03  0.59326653779E+02  0.34921778048E+03  0.91530517820E+02 0.  0.
          4    1    3    3  502    0 -0.23923863879E+03 -0.10973555713E+03 -0.11243354853E+03  0.28621376910E+03  0.00000000000E+00 0. -1.
         -3    1    3    3    0  502 -0.39002734963E+02  0.18226218312E+02 -0.27198250267E+02  0.50923012344E+02  0.00000000000E+00 0.  1.
         11    1    5    5    0    0  0.89477226877E+01  0.62210173784E+02  0.21028035468E+03  0.21947208257E+03  0.00000000000E+00 0. -1.
        -11    1    5    5    0    0  0.14333704706E+03  0.33620388081E+03  0.68875967361E+03  0.77972331408E+03  0.00000000000E+00 0.  1.
          1    1    6    6  503    0  0.52001395579E+02 -0.37637901834E+02  0.24123416847E+01  0.64238432336E+02  0.00000000000E+00 0. -1.
         -1    1    6    6    0  503  0.73955208430E+02 -0.26926681395E+03  0.56914312094E+02  0.28497934814E+03  0.00000000000E+00 0.  1.
<mgrwt>
<rscale>  0 0.14733472E+04</rscale>
<asrwt>0</asrwt>
<pdfrwt beam="1">  1        2 0.66678083E-01 0.14733472E+04</pdfrwt>
<pdfrwt beam="2">  1       -1 0.19263729E+00 0.14733472E+04</pdfrwt>
<totfact> 0.13611024E+01</totfact>
</mgrwt>
</event>
<event>
12    6  0.9533401E-008  0.2367120E+04  0.7818608E-02  0.8451917E-01
          2   -1    0    0  501    0  0.00000000000E+00  0.00000000000E+00  0.24006406005E+04  0.24006406005E+04  0.00000000000E+00 0. -1.
         -1   -1    0    0    0  501 -0.00000000000E+00 -0.00000000000E+00 -0.58351690274E+03  0.58351690274E+03  0.00000000000E+00 0.  1.
         24    2    1    2    0    0  0.62177317617E+03  0.26335879895E+02  0.17855131641E+04  0.18925757884E+04  0.80562983499E+02 0.  0.
        254    2    1    2    0    0 -0.62177317617E+03 -0.26335879895E+02  0.31610533646E+02  0.10915817149E+04  0.89624547599E+03 0.  0.
         23    2    4    4    0    0 -0.22744524404E+03 -0.40156807497E+03 -0.17579719653E+03  0.50188024564E+03  0.89391659430E+02 0.  0.
         23    2    4    4    0    0 -0.39432793212E+03  0.37523219508E+03  0.20740773018E+03  0.58970146923E+03  0.91848451280E+02 0.  0.
          2    1    3    3  502    0  0.55529260086E+03  0.49246273838E+01  0.16328316351E+04  0.17246777303E+04  0.00000000000E+00 0. -1.
         -1    1    3    3    0  502  0.66480575304E+02  0.21411252511E+02  0.15268152898E+03  0.16789805811E+03  0.00000000000E+00 0.  1.
         11    1    5    5    0    0 -0.16886096739E+03 -0.21107951836E+03 -0.89976287722E+02  0.28489352701E+03  0.00000000000E+00 0.  1.
        -11    1    5    5    0    0 -0.58584276649E+02 -0.19048855661E+03 -0.85820908809E+02  0.21698671862E+03  0.00000000000E+00 0. -1.
          2    1    6    6  503    0 -0.36246526338E+03  0.31270763909E+03  0.20111739215E+03  0.51924497121E+03  0.00000000000E+00 0. -1.
         -2    1    6    6    0  503 -0.31862668747E+02  0.62524555994E+02  0.62903380268E+01  0.70456498029E+02  0.00000000000E+00 0.  1.
<mgrwt>
<rscale>  0 0.23671201E+04</rscale>
<asrwt>0</asrwt>
<pdfrwt beam="1">  1        2 0.36932932E+00 0.23671201E+04</pdfrwt>
<pdfrwt beam="2">  1       -1 0.89771833E-01 0.23671201E+04</pdfrwt>
<totfact> 0.49489381E+00</totfact>
</mgrwt>
</event>
<event>
12    6  0.9533401E-008  0.2085611E+04  0.7818608E-02  0.8567608E-01
          2   -1    0    0  501    0  0.00000000000E+00  0.00000000000E+00  0.13114183159E+04  0.13114183159E+04  0.00000000000E+00 0. -1.
         -1   -1    0    0    0  501 -0.00000000000E+00 -0.00000000000E+00 -0.82921163249E+03  0.82921163249E+03  0.00000000000E+00 0.  1.
         24    2    1    2    0    0  0.60857074598E+03 -0.36732249084E+03 -0.27714222568E+03  0.76712525767E+03  0.79932362366E+02 0.  0.
        254    2    1    2    0    0 -0.60857074598E+03  0.36732249084E+03  0.75934890911E+03  0.13735046907E+04  0.89700624555E+03 0.  0.
         23    2    4    4    0    0 -0.69689725369E+03  0.27572940160E+03  0.18333264022E+03  0.77658354164E+03  0.88196683979E+02 0.  0.
         23    2    4    4    0    0  0.88326507707E+02  0.91593089242E+02  0.57601626888E+03  0.59692114910E+03  0.91264726252E+02 0.  0.
          4    1    3    3  502    0  0.16159163357E+03 -0.12526013892E+03 -0.50663838010E+02  0.21063898719E+03  0.00000000000E+00 0. -1.
         -3    1    3    3    0  502  0.44697911241E+03 -0.24206235193E+03 -0.22647838767E+03  0.55648627048E+03  0.00000000000E+00 0.  1.
         11    1    5    5    0    0 -0.17014203014E+03  0.85763052820E+02  0.82434492253E+02  0.20760312416E+03  0.00000000000E+00 0.  1.
        -11    1    5    5    0    0 -0.52675522355E+03  0.18996634878E+03  0.10089814797E+03  0.56898041748E+03  0.00000000000E+00 0. -1.
          3    1    6    6  503    0  0.49010720908E+02  0.96943911481E+02  0.49411296234E+03  0.50591283072E+03  0.00000000000E+00 0. -1.
         -3    1    6    6    0  503  0.39315786799E+02 -0.53508222390E+01  0.81903306544E+02  0.91008318373E+02  0.00000000000E+00 0.  1.
<mgrwt>
<rscale>  0 0.20856110E+04</rscale>
<asrwt>0</asrwt>
<pdfrwt beam="1">  1        2 0.20175666E+00 0.20856110E+04</pdfrwt>
<pdfrwt beam="2">  1       -1 0.12757102E+00 0.20856110E+04</pdfrwt>
<totfact> 0.91056990E+00</totfact>
</mgrwt>
</event>
<event>
12    6  0.9533401E-008  0.1505692E+04  0.7818608E-02  0.8880677E-01
         -1   -1    0    0    0  501 -0.00000000000E+00  0.00000000000E+00  0.31197493338E+03  0.31197493338E+03  0.00000000000E+00 0.  1.
          2   -1    0    0  501    0  0.00000000000E+00 -0.00000000000E+00 -0.18167385964E+04  0.18167385964E+04  0.00000000000E+00 0. -1.
         24    2    1    2    0    0  0.15908911534E+02  0.38461113017E+03 -0.81243216633E+02  0.40157640590E+03  0.80525366250E+02 0.  0.
        254    2    1    2    0    0 -0.15908911534E+02 -0.38461113017E+03 -0.14235204464E+04  0.17271371239E+04  0.89911810595E+03 0.  0.
         23    2    4    4    0    0 -0.15982858512E+03 -0.47852307412E+03 -0.31680882756E+03  0.60333868256E+03  0.95499861579E+02 0.  0.
         23    2    4    4    0    0  0.14391967359E+03  0.93911943946E+02 -0.11067116188E+04  0.11237984413E+04  0.92628309868E+02 0.  0.
          4    1    3    3  502    0 -0.14679191735E+02  0.24143136732E+03 -0.81271034934E+02  0.25516575968E+03  0.00000000000E+00 0. -1.
         -3    1    3    3    0  502  0.30588103268E+02  0.14317976286E+03  0.27818301095E-01  0.14641064622E+03  0.00000000000E+00 0.  1.
         11    1    5    5    0    0 -0.15247576969E+02 -0.17516940525E+03 -0.86591894180E+02  0.19599736039E+03  0.00000000000E+00 0. -1.
        -11    1    5    5    0    0 -0.14458100815E+03 -0.30335366887E+03 -0.23021693338E+03  0.40734132217E+03  0.00000000000E+00 0.  1.
          1    1    6    6  503    0  0.98410528733E+02  0.77817293425E+02 -0.98347763068E+03  0.99144763521E+03  0.00000000000E+00 0. -1.
         -1    1    6    6    0  503  0.45509144854E+02  0.16094650521E+02 -0.12323398815E+03  0.13235080611E+03  0.00000000000E+00 0.  1.
<mgrwt>
<rscale>  0 0.15056917E+04</rscale>
<asrwt>0</asrwt>
<pdfrwt beam="1">  1        2 0.27949825E+00 0.15056917E+04</pdfrwt>
<pdfrwt beam="2">  1       -1 0.47996143E-01 0.15056917E+04</pdfrwt>
<totfact> 0.40313377E+01</totfact>
</mgrwt>
</event>
<event>
12    6  0.9533401E-008  0.1570859E+04  0.7818608E-02  0.8838653E-01
         -1   -1    0    0    0  501 -0.00000000000E+00  0.00000000000E+00  0.57848672359E+03  0.57848672359E+03  0.00000000000E+00 0.  1.
          2   -1    0    0  501    0  0.00000000000E+00 -0.00000000000E+00 -0.10664026720E+04  0.10664026720E+04  0.00000000000E+00 0. -1.
         24    2    1    2    0    0  0.97479591106E+02 -0.40387311055E+03 -0.49670681563E+03  0.65230992270E+03  0.78579987650E+02 0.  0.
        254    2    1    2    0    0 -0.97479591106E+02  0.40387311055E+03  0.87908672559E+01  0.99257947285E+03  0.90139945111E+03 0.  0.
         23    2    4    4    0    0 -0.16810085963E+03 -0.20174429742E+03  0.20421060974E+03  0.34585911013E+03  0.94646132424E+02 0.  0.
         23    2    4    4    0    0  0.70621268527E+02  0.60561740797E+03 -0.19541974248E+03  0.64672036272E+03  0.91096341305E+02 0.  0.
          2    1    3    3  502    0  0.95250617130E+02 -0.23118030921E+03 -0.30056266274E+03  0.39096666055E+03  0.00000000000E+00 0. -1.
         -1    1    3    3    0  502  0.22289739762E+01 -0.17269280134E+03 -0.19614415288E+03  0.26134326215E+03  0.00000000000E+00 0.  1.
         11    1    5    5    0    0 -0.10014519551E+03 -0.16944809956E+03  0.18025930021E+03  0.26689910817E+03  0.00000000000E+00 0.  1.
        -11    1    5    5    0    0 -0.67955664119E+02 -0.32296197854E+02  0.23951309524E+02  0.78960001961E+02  0.00000000000E+00 0. -1.
          4    1    6    6  503    0  0.12759549054E+02  0.26933682848E+03 -0.12976510878E+03  0.29923922992E+03  0.00000000000E+00 0. -1.
         -4    1    6    6    0  503  0.57861719473E+02  0.33628057949E+03 -0.65654633697E+02  0.34748113280E+03  0.00000000000E+00 0.  1.
<mgrwt>
<rscale>  0 0.15708594E+04</rscale>
<asrwt>0</asrwt>
<pdfrwt beam="1">  1        2 0.16406195E+00 0.15708594E+04</pdfrwt>
<pdfrwt beam="2">  1       -1 0.88997958E-01 0.15708594E+04</pdfrwt>
<totfact> 0.31035178E+01</totfact>
</mgrwt>
</event>
<event>
12    6  0.9533401E-008  0.2315618E+04  0.7818608E-02  0.8471789E-01
          2   -1    0    0  501    0  0.00000000000E+00  0.00000000000E+00  0.14060733323E+04  0.14060733323E+04  0.00000000000E+00 0. -1.
         -1   -1    0    0    0  501 -0.00000000000E+00 -0.00000000000E+00 -0.95337922356E+03  0.95337922356E+03  0.00000000000E+00 0.  1.
         24    2    1    2    0    0 -0.83712135829E+03  0.16714165195E+03 -0.30245150044E+03  0.90942230839E+03  0.82846391239E+02 0.  0.
        254    2    1    2    0    0  0.83712135829E+03 -0.16714165195E+03  0.75514560923E+03  0.14500302475E+04  0.89645653951E+03 0.  0.
         23    2    4    4    0    0  0.55082262751E+03 -0.42667763293E+03  0.13770547647E+03  0.71587425020E+03  0.89742823850E+02 0.  0.
         23    2    4    4    0    0  0.28629873078E+03  0.25953598098E+03  0.61744013276E+03  0.73415599731E+03  0.91797724219E+02 0.  0.
          4    1    3    3  502    0 -0.32614391046E+03  0.67392413937E+02 -0.16109809882E+03  0.36995159849E+03  0.00000000000E+00 0. -1.
         -3    1    3    3    0  502 -0.51097744784E+03  0.99749238010E+02 -0.14135340163E+03  0.53947070990E+03  0.00000000000E+00 0.  1.
         11    1    5    5    0    0  0.64575719356E+02 -0.43461520950E+02 -0.12430049138E+02  0.78825335109E+02  0.00000000000E+00 0. -1.
        -11    1    5    5    0    0  0.48624690816E+03 -0.38321611198E+03  0.15013552560E+03  0.63704891509E+03  0.00000000000E+00 0.  1.
          4    1    6    6  503    0  0.58180716734E+01  0.20526829650E+02  0.97339795787E+01  0.23451035199E+02  0.00000000000E+00 0. -1.
         -4    1    6    6    0  503  0.28048065911E+03  0.23900915133E+03  0.60770615318E+03  0.71070496211E+03  0.00000000000E+00 0.  1.
<mgrwt>
<rscale>  0 0.23156175E+04</rscale>
<asrwt>0</asrwt>
<pdfrwt beam="1">  1        2 0.21631897E+00 0.23156175E+04</pdfrwt>
<pdfrwt beam="2">  1       -1 0.14667373E+00 0.23156175E+04</pdfrwt>
<totfact> 0.54881911E+00</totfact>
</mgrwt>
</event>
<event>
12    6  0.9533401E-008  0.1513487E+04  0.7818608E-02  0.8875533E-01
          2   -1    0    0  501    0  0.00000000000E+00  0.00000000000E+00  0.78522442400E+03  0.78522442400E+03  0.00000000000E+00 0. -1.
         -1   -1    0    0    0  501 -0.00000000000E+00 -0.00000000000E+00 -0.72929598955E+03  0.72929598955E+03  0.00000000000E+00 0.  1.
         24    2    1    2    0    0 -0.26755839445E+03  0.12380812160E+03 -0.36608512561E+03  0.47683132469E+03  0.80211268513E+02 0.  0.
        254    2    1    2    0    0  0.26755839445E+03 -0.12380812160E+03  0.42201356007E+03  0.10376890889E+04  0.90099237225E+03 0.  0.
         23    2    4    4    0    0  0.39023943110E+03  0.34024275425E+02 -0.14682409272E+03  0.42828539497E+03  0.91796516475E+02 0.  0.
         23    2    4    4    0    0 -0.12268103665E+03 -0.15783239703E+03  0.56883765279E+03  0.60940369390E+03  0.88514883476E+02 0.  0.
          4    1    3    3  502    0 -0.73247226750E+02 -0.33299296515E+01 -0.87554895269E+02  0.11420203301E+03  0.00000000000E+00 0. -1.
         -3    1    3    3    0  502 -0.19431116770E+03  0.12713805126E+03 -0.27853023035E+03  0.36262929168E+03  0.00000000000E+00 0.  1.
         11    1    5    5    0    0  0.30734102583E+03  0.58779208300E+02 -0.13565797022E+03  0.34105217544E+03  0.00000000000E+00 0.  1.
        -11    1    5    5    0    0  0.82898405265E+02 -0.24754932876E+02 -0.11166122499E+02  0.87233219526E+02  0.00000000000E+00 0. -1.
          1    1    6    6  503    0 -0.13412930878E+03 -0.14644941222E+03  0.54907692685E+03  0.58388661006E+03  0.00000000000E+00 0. -1.
         -1    1    6    6    0  503  0.11448272122E+02 -0.11382984806E+02  0.19760725943E+02  0.25517083836E+02  0.00000000000E+00 0.  1.
<mgrwt>
<rscale>  0 0.15134874E+04</rscale>
<asrwt>0</asrwt>
<pdfrwt beam="1">  1        2 0.12080376E+00 0.15134874E+04</pdfrwt>
<pdfrwt beam="2">  1       -1 0.11219938E+00 0.15134874E+04</pdfrwt>
<totfact> 0.28342680E+01</totfact>
</mgrwt>
</event>
<event>
12    6  0.9533401E-008  0.1155438E+04  0.7818608E-02  0.9152781E-01
          2   -1    0    0  501    0  0.00000000000E+00  0.00000000000E+00  0.36072902289E+03  0.36072902289E+03  0.00000000000E+00 0. -1.
         -1   -1    0    0    0  501 -0.00000000000E+00 -0.00000000000E+00 -0.92523595724E+03  0.92523595724E+03  0.00000000000E+00 0.  1.
         24    2    1    2    0    0 -0.67708022768E+01  0.13675370862E+03  0.72662286524E+02  0.17384764757E+03  0.78713252370E+02 0.  0.
        254    2    1    2    0    0  0.67708022768E+01 -0.13675370862E+03 -0.63716922087E+03  0.11121173326E+04  0.90115088900E+03 0.  0.
         23    2    4    4    0    0  0.47580804882E+02 -0.69739422742E+02 -0.85487723678E+03  0.86397688835E+03  0.92268377940E+02 0.  0.
         23    2    4    4    0    0 -0.40810002605E+02 -0.67014285874E+02  0.21770801591E+03  0.24814044420E+03  0.89557406356E+02 0.  0.
          4    1    3    3  502    0 -0.12082394891E+02  0.14063976656E+03  0.49210377293E+02  0.14948976365E+03  0.00000000000E+00 0. -1.
         -3    1    3    3    0  502  0.53115926142E+01 -0.38860579391E+01  0.23451909231E+02  0.24357883918E+02  0.00000000000E+00 0.  1.
         11    1    5    5    0    0  0.57830653171E+02 -0.82371864807E+02 -0.58380062383E+03  0.59241259013E+03  0.00000000000E+00 0.  1.
        -11    1    5    5    0    0 -0.10249848288E+02  0.12632442066E+02 -0.27107661295E+03  0.27156429822E+03  0.00000000000E+00 0. -1.
          1    1    6    6  503    0 -0.14537164633E+02 -0.35053329226E+02  0.14277300709E+02  0.40545115130E+02  0.00000000000E+00 0. -1.
         -1    1    6    6    0  503 -0.26272837972E+02 -0.31960956648E+02  0.20343071520E+03  0.20759532907E+03  0.00000000000E+00 0.  1.
<mgrwt>
<rscale>  0 0.11554384E+04</rscale>
<asrwt>0</asrwt>
<pdfrwt beam="1">  1        2 0.55496772E-01 0.11554384E+04</pdfrwt>
<pdfrwt beam="2">  1       -1 0.14234399E+00 0.11554384E+04</pdfrwt>
<totfact> 0.40620920E+01</totfact>
</mgrwt>
</event>
<event>
12    6  0.9533401E-008  0.2728175E+04  0.7818608E-02  0.8325921E-01
         -1   -1    0    0    0  501 -0.00000000000E+00  0.00000000000E+00  0.13189190997E+04  0.13189190997E+04  0.00000000000E+00 0.  1.
          2   -1    0    0  501    0  0.00000000000E+00 -0.00000000000E+00 -0.14108028220E+04  0.14108028220E+04  0.00000000000E+00 0. -1.
         24    2    1    2    0    0  0.23079538486E+03  0.10629636687E+04 -0.54832798849E+03  0.12208463263E+04  0.81510114408E+02 0.  0.
        254    2    1    2    0    0 -0.23079538486E+03 -0.10629636687E+04  0.45644426617E+03  0.15088755954E+04  0.94085382679E+03 0.  0.
         23    2    4    4    0    0  0.65949161223E+02  0.13952483000E+03 -0.16521832531E+02  0.17997131766E+03  0.91105621001E+02 0.  0.
         23    2    4    4    0    0 -0.29674454609E+03 -0.12024884988E+04  0.47296609870E+03  0.13289042777E+04  0.90850060470E+02 0.  0.
          4    1    3    3  502    0  0.22022332098E+03  0.10537929774E+04 -0.54399292371E+03  0.12061949475E+04  0.00000000000E+00 0. -1.
         -3    1    3    3    0  502  0.10572063880E+02  0.91706913536E+01 -0.43350647762E+01  0.14651378815E+02  0.00000000000E+00 0.  1.
         11    1    5    5    0    0  0.41235250488E+02  0.20427700391E+02 -0.33825759601E+02  0.57112335258E+02  0.00000000000E+00 0.  1.
        -11    1    5    5    0    0  0.24713910735E+02  0.11909712961E+03  0.17303927070E+02  0.12285898241E+03  0.00000000000E+00 0. -1.
          1    1    6    6  503    0 -0.25669849613E+03 -0.10943110257E+04  0.45285683911E+03  0.12118127148E+04  0.00000000000E+00 0. -1.
         -1    1    6    6    0  503 -0.40046049959E+02 -0.10817747304E+03  0.20109259596E+02  0.11709156294E+03  0.00000000000E+00 0.  1.
<mgrwt>
<rscale>  0 0.27281751E+04</rscale>
<asrwt>0</asrwt>
<pdfrwt beam="1">  1        2 0.21704659E+00 0.27281751E+04</pdfrwt>
<pdfrwt beam="2">  1       -1 0.20291063E+00 0.27281751E+04</pdfrwt>
<totfact> 0.20440781E+00</totfact>
</mgrwt>
</event>
<event>
12    6  0.9533401E-008  0.1193386E+04  0.7818608E-02  0.9118665E-01
         -1   -1    0    0    0  501 -0.00000000000E+00  0.00000000000E+00  0.35318366430E+03  0.35318366430E+03  0.00000000000E+00 0.  1.
          2   -1    0    0  501    0  0.00000000000E+00 -0.00000000000E+00 -0.10080953749E+04  0.10080953749E+04  0.00000000000E+00 0. -1.
         24    2    1    2    0    0 -0.17904155927E+03 -0.15598355338E+03 -0.16031718295E+03  0.29727363150E+03  0.79267042101E+02 0.  0.
        254    2    1    2    0    0  0.17904155927E+03  0.15598355338E+03 -0.49459452764E+03  0.10640054077E+04  0.91164522264E+03 0.  0.
         23    2    4    4    0    0 -0.34691117951E+02  0.34060702767E+03  0.12611512268E+03  0.37597252442E+03  0.90739704579E+02 0.  0.
         23    2    4    4    0    0  0.21373267723E+03 -0.18462347429E+03 -0.62070965032E+03  0.68803288328E+03  0.91330684317E+02 0.  0.
          4    1    3    3  502    0 -0.15686283572E+02 -0.56677778524E+02 -0.44598246007E+02  0.73806731519E+02  0.00000000000E+00 0. -1.
         -3    1    3    3    0  502 -0.16335527570E+03 -0.99305774859E+02 -0.11571893694E+03  0.22346689998E+03  0.00000000000E+00 0.  1.
         11    1    5    5    0    0 -0.56799126685E+02  0.31536134689E+03  0.11043005290E+03  0.33893025313E+03  0.00000000000E+00 0.  1.
        -11    1    5    5    0    0  0.22108008734E+02  0.25245680782E+02  0.15685069777E+02  0.37042271289E+02  0.00000000000E+00 0. -1.
          3    1    6    6  503    0  0.12088786546E+03 -0.16019504899E+03 -0.40998406028E+03  0.45646824580E+03  0.00000000000E+00 0. -1.
         -3    1    6    6    0  503  0.92844811770E+02 -0.24428425303E+02 -0.21072559003E+03  0.23156463748E+03  0.00000000000E+00 0.  1.
<mgrwt>
<rscale>  0 0.11933865E+04</rscale>
<asrwt>0</asrwt>
<pdfrwt beam="1">  1        2 0.15509160E+00 0.11933865E+04</pdfrwt>
<pdfrwt beam="2">  1       -1 0.54335949E-01 0.11933865E+04</pdfrwt>
<totfact> 0.95851929E+01</totfact>
</mgrwt>
</event>
<event>
12    6  0.9618496E-008  0.2211649E+04  0.7818608E-02  0.8513595E-01
          2   -1    0    0  501    0  0.00000000000E+00  0.00000000000E+00  0.21337876647E+04  0.21337876647E+04  0.00000000000E+00 0. -1.
         -1   -1    0    0    0  501 -0.00000000000E+00 -0.00000000000E+00 -0.57308792538E+03  0.57308792538E+03  0.00000000000E+00 0.  1.
         24    2    1    2    0    0 -0.51289609726E+03  0.46788624192E+02  0.15497502430E+04  0.16354528064E+04  0.87911798413E+02 0.  0.
        254    2    1    2    0    0  0.51289609726E+03 -0.46788624192E+02  0.10949496372E+02  0.10714227837E+04  0.93945479301E+03 0.  0.
         23    2    4    4    0    0 -0.16290377338E+03  0.23726493836E+03 -0.11307562548E+03  0.32224136573E+03  0.90670338891E+02 0.  0.
         23    2    4    4    0    0  0.67579987063E+03 -0.28405356255E+03  0.12402512185E+03  0.74918141801E+03  0.92188256769E+02 0.  0.
          4    1    3    3  502    0 -0.50249414356E+03  0.54726145635E+02  0.14661691865E+04  0.15508537645E+04  0.00000000000E+00 0. -1.
         -3    1    3    3    0  502 -0.10401953696E+02 -0.79375214425E+01  0.83581056499E+02  0.84599041914E+02  0.00000000000E+00 0.  1.
         11    1    5    5    0    0 -0.10821918591E+03  0.19397989591E+03 -0.48854153090E+02  0.22743421134E+03  0.00000000000E+00 0.  1.
        -11    1    5    5    0    0 -0.54684587473E+02  0.43285042450E+02 -0.64221472392E+02  0.94807154388E+02  0.00000000000E+00 0. -1.
          3    1    6    6  503    0  0.89833280236E+02 -0.15759652323E+02 -0.72024721262E+01  0.91489127682E+02  0.00000000000E+00 0. -1.
         -3    1    6    6    0  503  0.58596659040E+03 -0.26829391023E+03  0.13122759398E+03  0.65769229032E+03  0.00000000000E+00 0.  1.
<mgrwt>
<rscale>  0 0.22116491E+04</rscale>
<asrwt>0</asrwt>
<pdfrwt beam="1">  1        2 0.32827502E+00 0.22116491E+04</pdfrwt>
<pdfrwt beam="2">  1       -1 0.88167375E-01 0.22116491E+04</pdfrwt>
<totfact> 0.73889032E+00</totfact>
</mgrwt>
</event>
<event>
12    6  0.9533401E-008  0.2922945E+04  0.7818608E-02  0.8266083E-01
          2   -1    0    0  501    0  0.00000000000E+00  0.00000000000E+00  0.13796929155E+04  0.13796929155E+04  0.00000000000E+00 0. -1.
         -1   -1    0    0    0  501 -0.00000000000E+00 -0.00000000000E+00 -0.15480991526E+04  0.15480991526E+04  0.00000000000E+00 0.  1.
         24    2    1    2    0    0  0.16828274614E+03  0.27840278223E+03 -0.13564191924E+04  0.13972173974E+04  0.80723220582E+02 0.  0.
        254    2    1    2    0    0 -0.16828274614E+03 -0.27840278223E+03  0.11880129553E+04  0.15305746707E+04  0.90854655852E+03 0.  0.
         23    2    4    4    0    0 -0.19791490996E+03  0.29977682667E+03  0.55981422294E+03  0.67159995619E+03  0.92833612235E+02 0.  0.
         23    2    4    4    0    0  0.29632163818E+02 -0.57817960890E+03  0.62819873235E+03  0.85897471455E+03  0.89633630050E+02 0.  0.
          4    1    3    3  502    0 -0.52052707025E+01  0.39391487768E+02 -0.14986843959E+03  0.15504622967E+03  0.00000000000E+00 0. -1.
         -3    1    3    3    0  502  0.17348801684E+03  0.23901129446E+03 -0.12065507528E+04  0.12421711677E+04  0.00000000000E+00 0.  1.
         11    1    5    5    0    0  0.42095014110E+01  0.34026565905E+02  0.31115212157E+02  0.46299929989E+02  0.00000000000E+00 0. -1.
        -11    1    5    5    0    0 -0.20212441137E+03  0.26575026077E+03  0.52869901078E+03  0.62530002620E+03  0.00000000000E+00 0.  1.
          1    1    6    6  503    0  0.90492471687E+00  0.31167458523E+01  0.11305131207E+01  0.34367213107E+01  0.00000000000E+00 0. -1.
         -1    1    6    6    0  503  0.28727239101E+02 -0.58129635475E+03  0.62706821923E+03  0.85553799324E+03  0.00000000000E+00 0.  1.
<mgrwt>
<rscale>  0 0.29229447E+04</rscale>
<asrwt>0</asrwt>
<pdfrwt beam="1">  1        2 0.21226045E+00 0.29229447E+04</pdfrwt>
<pdfrwt beam="2">  1       -1 0.23816910E+00 0.29229447E+04</pdfrwt>
<totfact> 0.12156295E+00</totfact>
</mgrwt>
</event>
<event>
12    6  0.9533401E-008  0.2005820E+04  0.7818608E-02  0.8603904E-01
          2   -1    0    0  501    0  0.00000000000E+00  0.00000000000E+00  0.92293837504E+03  0.92293837504E+03  0.00000000000E+00 0. -1.
         -1   -1    0    0    0  501 -0.00000000000E+00 -0.00000000000E+00 -0.10898113392E+04  0.10898113392E+04  0.00000000000E+00 0.  1.
         24    2    1    2    0    0 -0.41056119990E+03  0.24926399562E+03 -0.70977759490E+03  0.86075979408E+03  0.80188219281E+02 0.  0.
        254    2    1    2    0    0  0.41056119990E+03 -0.24926399562E+03  0.54290463077E+03  0.11519899201E+04  0.89534479368E+03 0.  0.
         23    2    4    4    0    0  0.21059360280E+01 -0.47714141003E+03  0.87256707371E+02  0.49275760988E+03  0.86763869103E+02 0.  0.
         23    2    4    4    0    0  0.40845526387E+03  0.22787741441E+03  0.45564792340E+03  0.65923231024E+03  0.90600166530E+02 0.  0.
          4    1    3    3  502    0 -0.12591788484E+03  0.79551369717E+02 -0.28926325066E+03  0.32535666941E+03  0.00000000000E+00 0. -1.
         -3    1    3    3    0  502 -0.28464331506E+03  0.16971262590E+03 -0.42051434424E+03  0.53540312468E+03  0.00000000000E+00 0.  1.
         11    1    5    5    0    0  0.18006844651E+02 -0.29368619504E+03  0.92818668027E+02  0.30853060261E+03  0.00000000000E+00 0. -1.
        -11    1    5    5    0    0 -0.15900908623E+02 -0.18345521500E+03 -0.55619606565E+01  0.18422700728E+03  0.00000000000E+00 0.  1.
          2    1    6    6  503    0  0.35941560244E+03  0.18641583475E+03  0.34800714354E+03  0.53389082281E+03  0.00000000000E+00 0. -1.
         -2    1    6    6    0  503  0.49039661430E+02  0.41461579661E+02  0.10764077986E+03  0.12534148743E+03  0.00000000000E+00 0.  1.
<mgrwt>
<rscale>  0 0.20058202E+04</rscale>
<asrwt>0</asrwt>
<pdfrwt beam="1">  1        2 0.14199052E+00 0.20058202E+04</pdfrwt>
<pdfrwt beam="2">  1       -1 0.16766328E+00 0.20058202E+04</pdfrwt>
<totfact> 0.76759904E+00</totfact>
</mgrwt>
</event>
<event>
12    6  0.9533401E-008  0.1704288E+04  0.7818608E-02  0.8758922E-01
          2   -1    0    0  501    0  0.00000000000E+00  0.00000000000E+00  0.19375106259E+04  0.19375106259E+04  0.00000000000E+00 0. -1.
         -1   -1    0    0    0  501 -0.00000000000E+00 -0.00000000000E+00 -0.37478490584E+03  0.37478490584E+03  0.00000000000E+00 0.  1.
         24    2    1    2    0    0 -0.34546408498E+03 -0.27504179474E+03 -0.87010459025E+01  0.44899901780E+03  0.80814521759E+02 0.  0.
        254    2    1    2    0    0  0.34546408498E+03  0.27504179474E+03  0.15714267659E+04  0.18632965139E+04  0.89860914484E+03 0.  0.
         23    2    4    4    0    0  0.58723730768E+03  0.29671585787E+03  0.74897561776E+03  0.10011419491E+04  0.91830117469E+02 0.  0.
         23    2    4    4    0    0 -0.24177322270E+03 -0.21674063129E+02  0.82245114816E+03  0.86215456477E+03  0.89221893099E+02 0.  0.
          4    1    3    3  502    0 -0.33411335971E+02 -0.30317889467E+02  0.23966662577E+02  0.51087109021E+02  0.00000000000E+00 0. -1.
         -3    1    3    3    0  502 -0.31205274901E+03 -0.24472390527E+03 -0.32667708479E+02  0.39791190878E+03  0.00000000000E+00 0.  1.
         11    1    5    5    0    0  0.18888866689E+03  0.58829205093E+02  0.26484597445E+03  0.33058008718E+03  0.00000000000E+00 0.  1.
        -11    1    5    5    0    0  0.39834864078E+03  0.23788665277E+03  0.48412964331E+03  0.67056186196E+03  0.00000000000E+00 0. -1.
          1    1    6    6  503    0 -0.66537357924E+02 -0.39459537924E+02  0.33620425131E+03  0.34498923712E+03  0.00000000000E+00 0. -1.
         -1    1    6    6    0  503 -0.17523586478E+03  0.17785474794E+02  0.48624689685E+03  0.51716532765E+03  0.00000000000E+00 0.  1.
<mgrwt>
<rscale>  0 0.17042884E+04</rscale>
<asrwt>0</asrwt>
<pdfrwt beam="1">  1        2 0.29807855E+00 0.17042884E+04</pdfrwt>
<pdfrwt beam="2">  1       -1 0.57659218E-01 0.17042884E+04</pdfrwt>
<totfact> 0.23891888E+01</totfact>
</mgrwt>
</event>
<event>
12    6  0.9533401E-008  0.1957998E+04  0.7818608E-02  0.8626514E-01
         -1   -1    0    0    0  501 -0.00000000000E+00  0.00000000000E+00  0.72219585619E+03  0.72219585619E+03  0.00000000000E+00 0.  1.
          2   -1    0    0  501    0  0.00000000000E+00 -0.00000000000E+00 -0.13271180719E+04  0.13271180719E+04  0.00000000000E+00 0. -1.
         24    2    1    2    0    0 -0.20312006993E+03  0.28581962354E+03 -0.95188253769E+03  0.10174713780E+04  0.78848078012E+02 0.  0.
        254    2    1    2    0    0  0.20312006993E+03 -0.28581962354E+03  0.34696032196E+03  0.10318425501E+04  0.90629297871E+03 0.  0.
         23    2    4    4    0    0  0.19200448292E+03 -0.48314270303E+03 -0.97585002280E+02  0.53573182116E+03  0.84812490692E+02 0.  0.
         23    2    4    4    0    0  0.11115587005E+02  0.19732307949E+03  0.44454532424E+03  0.49611072899E+03  0.97187222090E+02 0.  0.
          2    1    3    3  502    0 -0.20948581161E+03  0.27720915717E+03 -0.93505772420E+03  0.99752802951E+03  0.00000000000E+00 0. -1.
         -1    1    3    3    0  502  0.63657416818E+01  0.86104663719E+01 -0.16824813489E+02  0.19943348446E+02  0.00000000000E+00 0.  1.
         11    1    5    5    0    0  0.12334070059E+03 -0.38737503452E+03 -0.96742338386E+02  0.41788925067E+03  0.00000000000E+00 0.  1.
        -11    1    5    5    0    0  0.68663782332E+02 -0.95767668511E+02 -0.84266389363E+00  0.11784257049E+03  0.00000000000E+00 0. -1.
          4    1    6    6  503    0 -0.18489880773E+02  0.16193230223E+03  0.26829330586E+03  0.31391916820E+03  0.00000000000E+00 0. -1.
         -4    1    6    6    0  503  0.29605467778E+02  0.35390777260E+02  0.17625201838E+03  0.18219156078E+03  0.00000000000E+00 0.  1.
<mgrwt>
<rscale>  0 0.19579981E+04</rscale>
<asrwt>0</asrwt>
<pdfrwt beam="1">  1        2 0.20417201E+00 0.19579981E+04</pdfrwt>
<pdfrwt beam="2">  1       -1 0.11110706E+00 0.19579981E+04</pdfrwt>
<totfact> 0.12624631E+01</totfact>
</mgrwt>
</event>
<event>
12    6  0.9533401E-008  0.1167266E+04  0.7818608E-02  0.9142001E-01
          2   -1    0    0  501    0  0.00000000000E+00  0.00000000000E+00  0.16959341123E+04  0.16959341123E+04  0.00000000000E+00 0. -1.
         -1   -1    0    0    0  501 -0.00000000000E+00 -0.00000000000E+00 -0.20084944147E+03  0.20084944147E+03  0.00000000000E+00 0.  1.
         24    2    1    2    0    0  0.22372645121E+03  0.52784248821E+02  0.30374883023E+03  0.38932832488E+03  0.80458006375E+02 0.  0.
        254    2    1    2    0    0 -0.22372645121E+03 -0.52784248821E+02  0.11913358406E+04  0.15074552289E+04  0.89459514875E+03 0.  0.
         23    2    4    4    0    0 -0.28249670471E+03 -0.41470133607E+03  0.47090685450E+03  0.69408403762E+03  0.90652078591E+02 0.  0.
         23    2    4    4    0    0  0.58770253494E+02  0.36191708725E+03  0.72042898615E+03  0.81337119133E+03  0.90093562812E+02 0.  0.
          4    1    3    3  502    0  0.17101586551E+03  0.46625283389E+02  0.17070393961E+03  0.24608977692E+03  0.00000000000E+00 0. -1.
         -3    1    3    3    0  502  0.52710585704E+02  0.61589654330E+01  0.13304489062E+03  0.14323854795E+03  0.00000000000E+00 0.  1.
         11    1    5    5    0    0 -0.28733088122E+02 -0.39138181386E+02  0.88995482493E+02  0.10137841733E+03  0.00000000000E+00 0. -1.
        -11    1    5    5    0    0 -0.25376361659E+03 -0.37556315468E+03  0.38191137200E+03  0.59270562029E+03  0.00000000000E+00 0.  1.
          3    1    6    6  503    0  0.14068260747E+02  0.29263958989E+02  0.13210728122E+03  0.13603907162E+03  0.00000000000E+00 0. -1.
         -3    1    6    6    0  503  0.44701992747E+02  0.33265312826E+03  0.58832170493E+03  0.67733211971E+03  0.00000000000E+00 0.  1.
<mgrwt>
<rscale>  0 0.11672659E+04</rscale>
<asrwt>0</asrwt>
<pdfrwt beam="1">  1        2 0.26091293E+00 0.11672659E+04</pdfrwt>
<pdfrwt beam="2">  1       -1 0.30899915E-01 0.11672659E+04</pdfrwt>
<totfact> 0.10755812E+02</totfact>
</mgrwt>
</event>
<event>
12    6  0.9533401E-008  0.2731816E+04  0.7818608E-02  0.8324755E-01
         -1   -1    0    0    0  501 -0.00000000000E+00  0.00000000000E+00  0.74351365697E+03  0.74351365697E+03  0.00000000000E+00 0.  1.
          2   -1    0    0  501    0  0.00000000000E+00 -0.00000000000E+00 -0.25093084308E+04  0.25093084308E+04  0.00000000000E+00 0. -1.
         24    2    1    2    0    0 -0.10856234623E+04  0.26560164274E+03 -0.20955293946E+03  0.11400896943E+04  0.82277227098E+02 0.  0.
        254    2    1    2    0    0  0.10856234623E+04 -0.26560164274E+03 -0.15562418344E+04  0.21127323934E+04  0.89029600955E+03 0.  0.
         23    2    4    4    0    0  0.11511376333E+04 -0.37515890043E+03 -0.11311492832E+04  0.16595205808E+04  0.92993580005E+02 0.  0.
         23    2    4    4    0    0 -0.65514170936E+02  0.10955725769E+03 -0.42509255113E+03  0.45321181260E+03  0.91664446502E+02 0.  0.
          2    1    3    3  502    0 -0.41276890907E+03  0.10098341113E+03 -0.39170596382E+02  0.42674366690E+03  0.00000000000E+00 0. -1.
         -1    1    3    3    0  502 -0.67285455327E+03  0.16461823161E+03 -0.17038234308E+03  0.71334602744E+03  0.00000000000E+00 0.  1.
         11    1    5    5    0    0  0.84964841784E+03 -0.31492890978E+03 -0.81955427588E+03  0.12217822487E+04  0.00000000000E+00 0. -1.
        -11    1    5    5    0    0  0.30148921543E+03 -0.60229990649E+02 -0.31159500736E+03  0.43773833212E+03  0.00000000000E+00 0.  1.
          2    1    6    6  503    0  0.10072412220E+02 -0.93105938635E+00 -0.32303504967E+01  0.10618640395E+02  0.00000000000E+00 0.  1.
         -2    1    6    6    0  503 -0.75586583156E+02  0.11048831708E+03 -0.42186220063E+03  0.44259317221E+03  0.00000000000E+00 0. -1.
<mgrwt>
<rscale>  0 0.27318163E+04</rscale>
<asrwt>0</asrwt>
<pdfrwt beam="1">  1        2 0.38604745E+00 0.27318163E+04</pdfrwt>
<pdfrwt beam="2">  1       -1 0.11438672E+00 0.27318163E+04</pdfrwt>
<totfact> 0.23774893E+00</totfact>
</mgrwt>
</event>
<event>
12    6  0.9533401E-008  0.2358823E+04  0.7818608E-02  0.8455083E-01
          2   -1    0    0  501    0  0.00000000000E+00  0.00000000000E+00  0.11913670821E+04  0.11913670821E+04  0.00000000000E+00 0. -1.
         -1   -1    0    0    0  501 -0.00000000000E+00 -0.00000000000E+00 -0.11675754472E+04  0.11675754472E+04  0.00000000000E+00 0.  1.
         24    2    1    2    0    0 -0.92334315418E+03  0.24775749858E+03  0.14690752698E+03  0.97050406742E+03  0.79686667154E+02 0.  0.
        254    2    1    2    0    0  0.92334315418E+03 -0.24775749858E+03 -0.12311589206E+03  0.13884384618E+04  0.99932851501E+03 0.  0.
         23    2    4    4    0    0  0.12116890701E+03 -0.29507460595E+03 -0.41202314097E+03  0.52961055257E+03  0.94727723475E+02 0.  0.
         23    2    4    4    0    0  0.80217424717E+03  0.47317107373E+02  0.28890724891E+03  0.85882790925E+03  0.91627221745E+02 0.  0.
          2    1    3    3  502    0 -0.10404462486E+02  0.10878619059E+02  0.83426204404E+01  0.17210360486E+02  0.00000000000E+00 0. -1.
         -1    1    3    3    0  502 -0.91293869169E+03  0.23687887952E+03  0.13856490654E+03  0.95329370693E+03  0.00000000000E+00 0.  1.
         11    1    5    5    0    0  0.18563544670E+02 -0.16150157322E+03 -0.22955303497E+03  0.28128625847E+03  0.00000000000E+00 0. -1.
        -11    1    5    5    0    0  0.10260536234E+03 -0.13357303274E+03 -0.18247010600E+03  0.24832429410E+03  0.00000000000E+00 0.  1.
          2    1    6    6  503    0  0.26216135889E+03 -0.15728420871E+02  0.63013935524E+02  0.27008649983E+03  0.00000000000E+00 0. -1.
         -2    1    6    6    0  503  0.54001288827E+03  0.63045528244E+02  0.22589331338E+03  0.58874140942E+03  0.00000000000E+00 0.  1.
<mgrwt>
<rscale>  0 0.23588225E+04</rscale>
<asrwt>0</asrwt>
<pdfrwt beam="1">  1        2 0.18328724E+00 0.23588225E+04</pdfrwt>
<pdfrwt beam="2">  1       -1 0.17962699E+00 0.23588225E+04</pdfrwt>
<totfact> 0.41280493E+00</totfact>
</mgrwt>
</event>
<event>
12    6  0.9533401E-008  0.2431161E+04  0.7818608E-02  0.8427929E-01
         -1   -1    0    0    0  501 -0.00000000000E+00  0.00000000000E+00  0.21870213946E+04  0.21870213946E+04  0.00000000000E+00 0.  1.
          2   -1    0    0  501    0  0.00000000000E+00 -0.00000000000E+00 -0.67563874566E+03  0.67563874566E+03  0.00000000000E+00 0. -1.
         24    2    1    2    0    0 -0.32472880751E+03  0.92977116510E+03  0.10674859442E+04  0.14546938489E+04  0.81760228475E+02 0.  0.
        254    2    1    2    0    0  0.32472880751E+03 -0.92977116510E+03  0.44389670470E+03  0.14079662914E+04  0.90299588885E+03 0.  0.
         23    2    4    4    0    0 -0.11827648883E+03 -0.86088020958E+03  0.23632867571E+03  0.90517174233E+03  0.91545491985E+02 0.  0.
         23    2    4    4    0    0  0.44300529635E+03 -0.68890955519E+02  0.20756802899E+03  0.50279454902E+03  0.93371384928E+02 0.  0.
          4    1    3    3  502    0 -0.87566574433E+01  0.51464747796E+02  0.83007693571E+02  0.98059046025E+02  0.00000000000E+00 0. -1.
         -3    1    3    3    0  502 -0.31597215007E+03  0.87830641730E+03  0.98447825063E+03  0.13566348028E+04  0.00000000000E+00 0.  1.
         11    1    5    5    0    0 -0.77091771496E+02 -0.71619438203E+03  0.16651072720E+03  0.73932628545E+03  0.00000000000E+00 0.  1.
        -11    1    5    5    0    0 -0.41184717335E+02 -0.14468582755E+03  0.69817948507E+02  0.16584545689E+03  0.00000000000E+00 0. -1.
          3    1    6    6  503    0  0.25765754216E+03 -0.46990792937E+02  0.17049069758E+03  0.31251019441E+03  0.00000000000E+00 0.  1.
         -3    1    6    6    0  503  0.18534775419E+03 -0.21900162582E+02  0.37077331414E+02  0.19028435461E+03  0.00000000000E+00 0. -1.
<mgrwt>
<rscale>  0 0.24311614E+04</rscale>
<asrwt>0</asrwt>
<pdfrwt beam="1">  1        2 0.10394442E+00 0.24311614E+04</pdfrwt>
<pdfrwt beam="2">  1       -1 0.33646483E+00 0.24311614E+04</pdfrwt>
<totfact> 0.83734133E-01</totfact>
</mgrwt>
</event>
<event>
12    6  0.9533401E-008  0.1299588E+04  0.7818608E-02  0.9029892E-01
         -1   -1    0    0    0  501 -0.00000000000E+00  0.00000000000E+00  0.14373698099E+03  0.14373698099E+03  0.00000000000E+00 0.  1.
          2   -1    0    0  501    0  0.00000000000E+00 -0.00000000000E+00 -0.29375341002E+04  0.29375341002E+04  0.00000000000E+00 0. -1.
         24    2    1    2    0    0 -0.40374135094E+02 -0.31652763615E+03 -0.53106259773E+03  0.62457927326E+03  0.79069403928E+02 0.  0.
        254    2    1    2    0    0  0.40374135094E+02  0.31652763615E+03 -0.22627345214E+04  0.24566918079E+04  0.90196857439E+03 0.  0.
         23    2    4    4    0    0  0.71371984869E+02 -0.12190176096E+02  0.44880209618E+02  0.12390300327E+03  0.89973109242E+02 0.  0.
         23    2    4    4    0    0 -0.30997849775E+02  0.32871781225E+03 -0.23076147311E+04  0.23327888046E+04  0.88326627743E+02 0.  0.
          2    1    3    3  502    0 -0.47446380235E+02 -0.19133203315E+03 -0.38138020452E+03  0.42931336609E+03  0.00000000000E+00 0. -1.
         -1    1    3    3    0  502  0.70722451408E+01 -0.12519560300E+03 -0.14968239322E+03  0.19526590716E+03  0.00000000000E+00 0.  1.
         11    1    5    5    0    0  0.76024945350E+02 -0.10115300129E+01  0.65259564022E+02  0.10019793513E+03  0.00000000000E+00 0.  1.
        -11    1    5    5    0    0 -0.46529604812E+01 -0.11178646083E+02 -0.20379354404E+02  0.23705068138E+02  0.00000000000E+00 0. -1.
          4    1    6    6  503    0 -0.15497669858E+02  0.87629064912E+02 -0.39044685827E+03  0.40045946102E+03  0.00000000000E+00 0. -1.
         -4    1    6    6    0  503 -0.15500179917E+02  0.24108874734E+03 -0.19171678728E+04  0.19323293436E+04  0.00000000000E+00 0.  1.
<mgrwt>
<rscale>  0 0.12995881E+04</rscale>
<asrwt>0</asrwt>
<pdfrwt beam="1">  1        2 0.45192831E+00 0.12995881E+04</pdfrwt>
<pdfrwt beam="2">  1       -1 0.22113382E-01 0.12995881E+04</pdfrwt>
<totfact> 0.37102604E+01</totfact>
</mgrwt>
</event>
<event>
12    6  0.9533401E-008  0.1656822E+04  0.7818608E-02  0.8786381E-01
         -3   -1    0    0    0  501 -0.00000000000E+00  0.00000000000E+00  0.59561361567E+03  0.59561361567E+03  0.00000000000E+00 0.  1.
          4   -1    0    0  501    0  0.00000000000E+00 -0.00000000000E+00 -0.11521972659E+04  0.11521972659E+04  0.00000000000E+00 0. -1.
         24    2    1    2    0    0  0.26725987535E+03  0.13778418992E+03 -0.69401033678E+03  0.76079817543E+03  0.82165638851E+02 0.  0.
        254    2    1    2    0    0 -0.26725987535E+03 -0.13778418992E+03  0.13742668656E+03  0.98701270615E+03  0.92999766879E+03 0.  0.
         23    2    4    4    0    0  0.10281007575E+03 -0.34051329102E+03 -0.21778206061E+03  0.42741445702E+03  0.93460575166E+02 0.  0.
         23    2    4    4    0    0 -0.37006995110E+03  0.20272910109E+03  0.35520874717E+03  0.55959824912E+03  0.94477982728E+02 0.  0.
          2    1    3    3  502    0  0.23673006828E+03  0.13341478158E+03 -0.54930823411E+03  0.61284595555E+03  0.00000000000E+00 0. -1.
         -1    1    3    3    0  502  0.30529807065E+02  0.43694083462E+01 -0.14470210267E+03  0.14795221988E+03  0.00000000000E+00 0.  1.
         11    1    5    5    0    0 -0.64043784890E+01 -0.96765773236E+02 -0.32237251498E+02  0.10219526074E+03  0.00000000000E+00 0.  1.
        -11    1    5    5    0    0  0.10921445424E+03 -0.24374751778E+03 -0.18554480911E+03  0.32521919628E+03  0.00000000000E+00 0. -1.
          3    1    6    6  503    0 -0.32178577018E+03  0.20154373490E+03  0.28670151284E+03  0.47577696081E+03  0.00000000000E+00 0. -1.
         -3    1    6    6    0  503 -0.48284180919E+02  0.11853661905E+01  0.68507234323E+02  0.83821288314E+02  0.00000000000E+00 0.  1.
<mgrwt>
<rscale>  0 0.16568215E+04</rscale>
<asrwt>0</asrwt>
<pdfrwt beam="1">  1        4 0.17726112E+00 0.16568215E+04</pdfrwt>
<pdfrwt beam="2">  1       -3 0.91632865E-01 0.16568215E+04</pdfrwt>
<totfact> 0.43851694E-01</totfact>
</mgrwt>
</event>
<event>
12    6  0.9533401E-008  0.2098436E+04  0.7818608E-02  0.8561933E-01
          2   -1    0    0  501    0  0.00000000000E+00  0.00000000000E+00  0.12172215175E+04  0.12172215175E+04  0.00000000000E+00 0. -1.
         -1   -1    0    0    0  501 -0.00000000000E+00 -0.00000000000E+00 -0.90440278193E+03  0.90440278193E+03  0.00000000000E+00 0.  1.
         24    2    1    2    0    0  0.24450540253E+03  0.21133200527E+03 -0.66950069364E+03  0.74762160743E+03  0.79137733066E+02 0.  0.
        254    2    1    2    0    0 -0.24450540253E+03 -0.21133200527E+03  0.98231942925E+03  0.13740026921E+04  0.90470317141E+03 0.  0.
         23    2    4    4    0    0  0.33610949616E+01 -0.17978749869E+03  0.10735238210E+04  0.10918365475E+04  0.85550047759E+02 0.  0.
         23    2    4    4    0    0 -0.24786649749E+03 -0.31544506580E+02 -0.91204391741E+02  0.28216614451E+03  0.94162814093E+02 0.  0.
          2    1    3    3  502    0  0.72001986329E+02  0.57267874723E+02 -0.11829688238E+03  0.14986009440E+03  0.00000000000E+00 0. -1.
         -1    1    3    3    0  502  0.17250341620E+03  0.15406413055E+03 -0.55120381125E+03  0.59776151303E+03  0.00000000000E+00 0.  1.
         11    1    5    5    0    0  0.21136468376E+02 -0.17527492272E+03  0.10222241501E+04  0.10373573453E+04  0.00000000000E+00 0. -1.
        -11    1    5    5    0    0 -0.17775373414E+02 -0.45125759730E+01  0.51299670868E+02  0.54479202206E+02  0.00000000000E+00 0.  1.
          4    1    6    6  503    0 -0.21220815619E+03 -0.10009806217E+02 -0.40033149771E+02  0.21618314193E+03  0.00000000000E+00 0. -1.
         -4    1    6    6    0  503 -0.35658341302E+02 -0.21534700363E+02 -0.51171241970E+02  0.65983002575E+02  0.00000000000E+00 0.  1.
<mgrwt>
<rscale>  0 0.20984361E+04</rscale>
<asrwt>0</asrwt>
<pdfrwt beam="1">  1        2 0.18726485E+00 0.20984361E+04</pdfrwt>
<pdfrwt beam="2">  1       -1 0.13913889E+00 0.20984361E+04</pdfrwt>
<totfact> 0.82799708E+00</totfact>
</mgrwt>
</event>
<event>
12    6  0.9533401E-008  0.1091024E+04  0.7818608E-02  0.9213985E-01
          2   -1    0    0  501    0  0.00000000000E+00  0.00000000000E+00  0.13478798297E+04  0.13478798297E+04  0.00000000000E+00 0. -1.
         -1   -1    0    0    0  501 -0.00000000000E+00 -0.00000000000E+00 -0.22077866127E+03  0.22077866127E+03  0.00000000000E+00 0.  1.
         24    2    1    2    0    0  0.89691409172E+02  0.29328969569E+01 -0.52351731633E+01  0.12008143251E+03  0.79617790918E+02 0.  0.
        254    2    1    2    0    0 -0.89691409172E+02 -0.29328969569E+01  0.11323363416E+04  0.14485770585E+04  0.89896426685E+03 0.  0.
         23    2    4    4    0    0  0.90879635657E+01 -0.41251061392E+02  0.12562065861E+04  0.12602432344E+04  0.91508369559E+02 0.  0.
         23    2    4    4    0    0 -0.98779372738E+02  0.38318164435E+02 -0.12387024452E+03  0.18833382407E+03  0.94340583028E+02 0.  0.
          2    1    3    3  502    0  0.31840892584E+02 -0.25381671692E+02 -0.30520559410E+02  0.50887879157E+02  0.00000000000E+00 0. -1.
         -1    1    3    3    0  502  0.57850516588E+02  0.28314568649E+02  0.25285386247E+02  0.69193553348E+02  0.00000000000E+00 0.  1.
         11    1    5    5    0    0  0.11459191531E+02 -0.58561451208E+02  0.11976484246E+04  0.11991340649E+04  0.00000000000E+00 0. -1.
        -11    1    5    5    0    0 -0.23712279651E+01  0.17310389816E+02  0.58558161514E+02  0.61109169504E+02  0.00000000000E+00 0.  1.
          1    1    6    6  503    0 -0.78870679859E+02  0.14233915124E+02 -0.13343627774E+03  0.15565483834E+03  0.00000000000E+00 0. -1.
         -1    1    6    6    0  503 -0.19908692879E+02  0.24084249312E+02  0.95660332140E+01  0.32678985733E+02  0.00000000000E+00 0.  1.
<mgrwt>
<rscale>  0 0.10910236E+04</rscale>
<asrwt>0</asrwt>
<pdfrwt beam="1">  1        2 0.20736612E+00 0.10910236E+04</pdfrwt>
<pdfrwt beam="2">  1       -1 0.33965949E-01 0.10910236E+04</pdfrwt>
<totfact> 0.14358868E+02</totfact>
</mgrwt>
</event>
<event>
12    6  0.9533401E-008  0.1518325E+04  0.7818608E-02  0.8872357E-01
          2   -1    0    0  501    0  0.00000000000E+00  0.00000000000E+00  0.15613390498E+04  0.15613390498E+04  0.00000000000E+00 0. -1.
         -1   -1    0    0    0  501 -0.00000000000E+00 -0.00000000000E+00 -0.36912420369E+03  0.36912420369E+03  0.00000000000E+00 0.  1.
         24    2    1    2    0    0 -0.47768576041E+03  0.90542842428E+02  0.38807002266E+03  0.62711536016E+03  0.79332467742E+02 0.  0.
        254    2    1    2    0    0  0.47768576041E+03 -0.90542842428E+02  0.80414482343E+03  0.13033478933E+04  0.90315288957E+03 0.  0.
         23    2    4    4    0    0 -0.81881495791E+02 -0.21427625547E+03  0.66102598198E+03  0.70553971777E+03  0.90620370174E+02 0.  0.
         23    2    4    4    0    0  0.55956725620E+03  0.12373341304E+03  0.14311884145E+03  0.59780817554E+03  0.92011631060E+02 0.  0.
          2    1    3    3  502    0 -0.66023429338E+02  0.27305748274E+02  0.28636358061E+02  0.76972320436E+02  0.00000000000E+00 0. -1.
         -1    1    3    3    0  502 -0.41166233107E+03  0.63237094154E+02  0.35943366460E+03  0.55014303972E+03  0.00000000000E+00 0.  1.
         11    1    5    5    0    0 -0.17996204264E+02 -0.51913308451E+02  0.68246399836E+02  0.87615215875E+02  0.00000000000E+00 0.  1.
        -11    1    5    5    0    0 -0.63885291526E+02 -0.16236294702E+03  0.59277958214E+03  0.61792450189E+03  0.00000000000E+00 0. -1.
          3    1    6    6  503    0  0.46460520570E+03  0.95347444925E+02  0.81886147363E+02  0.48130496938E+03  0.00000000000E+00 0. -1.
         -3    1    6    6    0  503  0.94962050504E+02  0.28385968116E+02  0.61232694088E+02  0.11650320617E+03  0.00000000000E+00 0.  1.
<mgrwt>
<rscale>  0 0.15183254E+04</rscale>
<asrwt>0</asrwt>
<pdfrwt beam="1">  1        2 0.24020600E+00 0.15183254E+04</pdfrwt>
<pdfrwt beam="2">  1       -1 0.56788340E-01 0.15183254E+04</pdfrwt>
<totfact> 0.40451533E+01</totfact>
</mgrwt>
</event>
<event>
12    6  0.9533401E-008  0.1956734E+04  0.7818608E-02  0.8627120E-01
          2   -1    0    0  501    0  0.00000000000E+00  0.00000000000E+00  0.20637021001E+04  0.20637021001E+04  0.00000000000E+00 0. -1.
         -1   -1    0    0    0  501 -0.00000000000E+00 -0.00000000000E+00 -0.46382766822E+03  0.46382766822E+03  0.00000000000E+00 0.  1.
         24    2    1    2    0    0  0.69706491797E+02 -0.50637110190E+03  0.13697787135E+04  0.14643551066E+04  0.82288921189E+02 0.  0.
        254    2    1    2    0    0 -0.69706491797E+02  0.50637110190E+03  0.23009571845E+03  0.10631746617E+04  0.90339672011E+03 0.  0.
         23    2    4    4    0    0 -0.22759215118E+03  0.12885598924E+03 -0.28598095096E+03  0.39816930646E+03  0.91387302482E+02 0.  0.
         23    2    4    4    0    0  0.15788565938E+03  0.37751511266E+03  0.51607666942E+03  0.66500535529E+03  0.91931779712E+02 0.  0.
          4    1    3    3  502    0  0.63138367456E+01 -0.10897717830E+03  0.20882883546E+03  0.23563822365E+03  0.00000000000E+00 0. -1.
         -3    1    3    3    0  502  0.63392655051E+02 -0.39739392359E+03  0.11609498780E+04  0.12287168829E+04  0.00000000000E+00 0.  1.
         11    1    5    5    0    0 -0.15198575063E+03  0.12700631799E+03 -0.23310497954E+03  0.30588920329E+03  0.00000000000E+00 0.  1.
        -11    1    5    5    0    0 -0.75606400548E+02  0.18496712516E+01 -0.52875971421E+02  0.92280103172E+02  0.00000000000E+00 0. -1.
          1    1    6    6  503    0  0.37145063240E+02  0.88374152625E+02  0.18980891464E+03  0.21264329440E+03  0.00000000000E+00 0. -1.
         -1    1    6    6    0  503  0.12074059614E+03  0.28914096003E+03  0.32626775477E+03  0.45236206089E+03  0.00000000000E+00 0.  1.
<mgrwt>
<rscale>  0 0.19567341E+04</rscale>
<asrwt>0</asrwt>
<pdfrwt beam="1">  1        2 0.31749263E+00 0.19567341E+04</pdfrwt>
<pdfrwt beam="2">  1       -1 0.71358104E-01 0.19567341E+04</pdfrwt>
<totfact> 0.12959929E+01</totfact>
</mgrwt>
</event>
<event>
12    6  0.9533401E-008  0.1210075E+04  0.7818608E-02  0.9104084E-01
          2   -1    0    0  501    0  0.00000000000E+00  0.00000000000E+00  0.15036167609E+04  0.15036167609E+04  0.00000000000E+00 0. -1.
         -1   -1    0    0    0  501 -0.00000000000E+00 -0.00000000000E+00 -0.24345973559E+03  0.24345973559E+03  0.00000000000E+00 0.  1.
         24    2    1    2    0    0  0.51582367760E+02  0.23758486367E+03  0.40310750358E+03  0.47753293623E+03  0.80216816378E+02 0.  0.
        254    2    1    2    0    0 -0.51582367760E+02 -0.23758486367E+03  0.85704952175E+03  0.12695435603E+04  0.90448861830E+03 0.  0.
         23    2    4    4    0    0 -0.36985541944E+03 -0.25145881570E+03  0.81686216301E+03  0.93580845551E+03  0.91919011974E+02 0.  0.
         23    2    4    4    0    0  0.31827305168E+03  0.13873952021E+02  0.40187358738E+02  0.33373510478E+03  0.90960839866E+02 0.  0.
          2    1    3    3  502    0  0.42485005889E+02  0.23901788165E+03  0.39982712379E+03  0.46775661662E+03  0.00000000000E+00 0. -1.
         -1    1    3    3    0  502  0.90973618711E+01 -0.14330179803E+01  0.32803797972E+01  0.97763196122E+01  0.00000000000E+00 0.  1.
         11    1    5    5    0    0 -0.29078585876E+03 -0.17034074125E+03  0.67334722808E+03  0.75297335501E+03  0.00000000000E+00 0. -1.
        -11    1    5    5    0    0 -0.79069560681E+02 -0.81118074447E+02  0.14351493493E+03  0.18283510051E+03  0.00000000000E+00 0.  1.
          4    1    6    6  503    0  0.23286363191E+03  0.50375335952E+02  0.24043906885E+02  0.23946034118E+03  0.00000000000E+00 0.  1.
         -4    1    6    6    0  503  0.85409419773E+02 -0.36501383932E+02  0.16143451854E+02  0.94274763604E+02  0.00000000000E+00 0. -1.
<mgrwt>
<rscale>  0 0.12100746E+04</rscale>
<asrwt>0</asrwt>
<pdfrwt beam="1">  1        2 0.23132565E+00 0.12100746E+04</pdfrwt>
<pdfrwt beam="2">  1       -1 0.37455345E-01 0.12100746E+04</pdfrwt>
<totfact> 0.97425767E+01</totfact>
</mgrwt>
</event>
<event>
12    6  0.9533401E-008  0.1308477E+04  0.7818608E-02  0.9022869E-01
         -1   -1    0    0    0  501 -0.00000000000E+00  0.00000000000E+00  0.56291591103E+03  0.56291591103E+03  0.00000000000E+00 0.  1.
          2   -1    0    0  501    0  0.00000000000E+00 -0.00000000000E+00 -0.76037692648E+03  0.76037692648E+03  0.00000000000E+00 0. -1.
         24    2    1    2    0    0 -0.15614458273E+03  0.10150746286E+03  0.23051492314E+03  0.30700348818E+03  0.80181769943E+02 0.  0.
        254    2    1    2    0    0  0.15614458273E+03 -0.10150746286E+03 -0.42797593860E+03  0.10162893493E+04  0.90277114587E+03 0.  0.
         23    2    4    4    0    0 -0.15483909696E+03  0.31074656036E+03 -0.34360277471E+02  0.36051399184E+03  0.90835779984E+02 0.  0.
         23    2    4    4    0    0  0.31098367969E+03 -0.41225402321E+03 -0.39361566113E+03  0.65577535749E+03  0.91890163372E+02 0.  0.
          2    1    3    3  502    0 -0.33269522314E+02 -0.10421362944E+02  0.56287875848E+02  0.66210202296E+02  0.00000000000E+00 0. -1.
         -1    1    3    3    0  502 -0.12287506042E+03  0.11192882580E+03  0.17422704730E+03  0.24079328588E+03  0.00000000000E+00 0.  1.
         11    1    5    5    0    0 -0.15025032721E+02  0.30429895454E+02 -0.32891534514E+02  0.47260799700E+02  0.00000000000E+00 0. -1.
        -11    1    5    5    0    0 -0.13981406424E+03  0.28031666490E+03 -0.14687429564E+01  0.31325319214E+03  0.00000000000E+00 0.  1.
          2    1    6    6  503    0  0.40661421014E+02 -0.59490782773E+02 -0.99451426571E+02  0.12281323479E+03  0.00000000000E+00 0. -1.
         -2    1    6    6    0  503  0.27032225867E+03 -0.35276324044E+03 -0.29416423456E+03  0.53296212270E+03  0.00000000000E+00 0.  1.
<mgrwt>
<rscale>  0 0.13084774E+04</rscale>
<asrwt>0</asrwt>
<pdfrwt beam="1">  1        2 0.11698107E+00 0.13084774E+04</pdfrwt>
<pdfrwt beam="2">  1       -1 0.86602448E-01 0.13084774E+04</pdfrwt>
<totfact> 0.54187567E+01</totfact>
</mgrwt>
</event>
<event>
12    6  0.9533401E-008  0.2082920E+04  0.7818608E-02  0.8568805E-01
          2   -1    0    0  501    0  0.00000000000E+00  0.00000000000E+00  0.89983125571E+03  0.89983125571E+03  0.00000000000E+00 0. -1.
         -1   -1    0    0    0  501 -0.00000000000E+00 -0.00000000000E+00 -0.12053801747E+04  0.12053801747E+04  0.00000000000E+00 0.  1.
         24    2    1    2    0    0 -0.11714687363E+03 -0.71080035218E+03  0.32496658734E+03  0.79495553627E+03  0.85967965494E+02 0.  0.
        254    2    1    2    0    0  0.11714687363E+03  0.71080035218E+03 -0.63051550637E+03  0.13102558942E+04  0.89457262075E+03 0.  0.
         23    2    4    4    0    0  0.13180866694E+03 -0.13136236492E+03  0.60887591608E+02  0.21647977563E+03  0.92339584390E+02 0.  0.
         23    2    4    4    0    0 -0.14661793314E+02  0.84216271711E+03 -0.69140309798E+03  0.10937761186E+04  0.94100708584E+02 0.  0.
          2    1    3    3  502    0 -0.12115735045E+03 -0.67199025271E+03  0.28756423975E+03  0.74090700853E+03  0.00000000000E+00 0. -1.
         -1    1    3    3    0  502  0.40104768172E+01 -0.38810099470E+02  0.37402347592E+02  0.54048527737E+02  0.00000000000E+00 0.  1.
         11    1    5    5    0    0  0.13630985687E+03 -0.93743157644E+02  0.66267734498E+02  0.17821214695E+03  0.00000000000E+00 0. -1.
        -11    1    5    5    0    0 -0.45011899288E+01 -0.37619207281E+02 -0.53801428906E+01  0.38267628679E+02  0.00000000000E+00 0.  1.
          1    1    6    6  503    0 -0.50901614366E+02  0.41290212943E+03 -0.31722925570E+03  0.52317639808E+03  0.00000000000E+00 0. -1.
         -1    1    6    6    0  503  0.36239821052E+02  0.42926058767E+03 -0.37417384227E+03  0.57059972047E+03  0.00000000000E+00 0.  1.
<mgrwt>
<rscale>  0 0.20829198E+04</rscale>
<asrwt>0</asrwt>
<pdfrwt beam="1">  1        2 0.13843558E+00 0.20829198E+04</pdfrwt>
<pdfrwt beam="2">  1       -1 0.18544310E+00 0.20829198E+04</pdfrwt>
<totfact> 0.58756178E+00</totfact>
</mgrwt>
</event>
<event>
12    6  0.9533401E-008  0.2493088E+04  0.7818608E-02  0.8405452E-01
         -1   -1    0    0    0  501 -0.00000000000E+00  0.00000000000E+00  0.89388158699E+03  0.89388158699E+03  0.00000000000E+00 0.  1.
          2   -1    0    0  501    0  0.00000000000E+00 -0.00000000000E+00 -0.17383426233E+04  0.17383426233E+04  0.00000000000E+00 0. -1.
         24    2    1    2    0    0 -0.32741389281E+03  0.99320660157E+03 -0.66144746465E+03  0.12401476764E+04  0.82427544699E+02 0.  0.
        254    2    1    2    0    0  0.32741389281E+03 -0.99320660157E+03 -0.18301357162E+03  0.13920765339E+04  0.90040207582E+03 0.  0.
         23    2    4    4    0    0 -0.26252925170E+03 -0.86282621438E+02 -0.80934303949E+02  0.30183402127E+03  0.90482683875E+02 0.  0.
         23    2    4    4    0    0  0.58994314450E+03 -0.90692398013E+03 -0.10207926767E+03  0.10902425126E+04  0.87547358057E+02 0.  0.
          4    1    3    3  502    0 -0.33115046224E+03  0.98320405058E+03 -0.64898730091E+03  0.12237382688E+04  0.00000000000E+00 0. -1.
         -3    1    3    3    0  502  0.37365694354E+01  0.10002550993E+02 -0.12460163739E+02  0.16409407604E+02  0.00000000000E+00 0.  1.
         11    1    5    5    0    0 -0.25734378770E+03 -0.78654073077E+02 -0.55473317538E+02  0.27475366647E+03  0.00000000000E+00 0.  1.
        -11    1    5    5    0    0 -0.51854639929E+01 -0.76285483609E+01 -0.25460986411E+02  0.27080354797E+02  0.00000000000E+00 0. -1.
          4    1    6    6  503    0  0.93213391287E+02 -0.91320831196E+02 -0.12679421728E+02  0.13110682004E+03  0.00000000000E+00 0. -1.
         -4    1    6    6    0  503  0.49672975322E+03 -0.81560314893E+03 -0.89399845940E+02  0.95913569256E+03  0.00000000000E+00 0.  1.
<mgrwt>
<rscale>  0 0.24930884E+04</rscale>
<asrwt>0</asrwt>
<pdfrwt beam="1">  1        2 0.26743733E+00 0.24930884E+04</pdfrwt>
<pdfrwt beam="2">  1       -1 0.13752024E+00 0.24930884E+04</pdfrwt>
<totfact> 0.41658012E+00</totfact>
</mgrwt>
</event>
<event>
12    6  0.9533401E-008  0.2419294E+04  0.7818608E-02  0.8432316E-01
          2   -1    0    0  501    0  0.00000000000E+00  0.00000000000E+00  0.37278783838E+04  0.37278783838E+04  0.00000000000E+00 0. -1.
         -1   -1    0    0    0  501 -0.00000000000E+00 -0.00000000000E+00 -0.39251422038E+03  0.39251422038E+03  0.00000000000E+00 0.  1.
         24    2    1    2    0    0  0.42495339588E+03 -0.34347813020E+03 -0.68075304904E+02  0.55638392068E+03  0.79788504590E+02 0.  0.
        254    2    1    2    0    0 -0.42495339588E+03  0.34347813020E+03  0.34034394684E+04  0.35640086835E+04  0.90564621510E+03 0.  0.
         23    2    4    4    0    0 -0.18689954951E+03 -0.45060165153E+02  0.27699598406E+04  0.27782372046E+04  0.94670939124E+02 0.  0.
         23    2    4    4    0    0 -0.23805384637E+03  0.38853829535E+03  0.63347962781E+03  0.78577147892E+03  0.92242818231E+02 0.  0.
          4    1    3    3  502    0  0.10695503489E+03 -0.62969017677E+02 -0.43926610384E+02  0.13165873983E+03  0.00000000000E+00 0. -1.
         -3    1    3    3    0  502  0.31799836099E+03 -0.28050911252E+03 -0.24148694520E+02  0.42472518085E+03  0.00000000000E+00 0.  1.
         11    1    5    5    0    0 -0.49324726272E+01 -0.15683372332E+02  0.66542339634E+02  0.68543274053E+02  0.00000000000E+00 0. -1.
        -11    1    5    5    0    0 -0.18196707688E+03 -0.29376792822E+02  0.27034175009E+04  0.27096939306E+04  0.00000000000E+00 0.  1.
          3    1    6    6  503    0 -0.14346498452E+03  0.16113511611E+03  0.33956086723E+03  0.40230375338E+03  0.00000000000E+00 0. -1.
         -3    1    6    6    0  503 -0.94588861845E+02  0.22740317924E+03  0.29391876057E+03  0.38346772554E+03  0.00000000000E+00 0.  1.
<mgrwt>
<rscale>  0 0.24192935E+04</rscale>
<asrwt>0</asrwt>
<pdfrwt beam="1">  1        2 0.57351973E+00 0.24192935E+04</pdfrwt>
<pdfrwt beam="2">  1       -1 0.60386806E-01 0.24192935E+04</pdfrwt>
<totfact> 0.15849636E+00</totfact>
</mgrwt>
</event>
<event>
12    6  0.9533401E-008  0.2623721E+04  0.7818608E-02  0.8360188E-01
         -1   -1    0    0    0  501 -0.00000000000E+00  0.00000000000E+00  0.60950957034E+03  0.60950957034E+03  0.00000000000E+00 0.  1.
          2   -1    0    0  501    0  0.00000000000E+00 -0.00000000000E+00 -0.28235460601E+04  0.28235460601E+04  0.00000000000E+00 0. -1.
         24    2    1    2    0    0  0.98165585953E+03 -0.49464962486E+03 -0.51313922498E+03  0.12157249685E+04  0.79679714173E+02 0.  0.
        254    2    1    2    0    0 -0.98165585953E+03  0.49464962486E+03 -0.17008972648E+04  0.22173306619E+04  0.90287168587E+03 0.  0.
         23    2    4    4    0    0 -0.36998812472E+02  0.46243275375E+03 -0.55029555808E+03  0.72537440225E+03  0.90165727030E+02 0.  0.
         23    2    4    4    0    0 -0.94465704706E+03  0.32216871107E+02 -0.11506017067E+04  0.14919562597E+04  0.92921095797E+02 0.  0.
          4    1    3    3  502    0  0.16764763330E+03 -0.11744301030E+03 -0.10592481141E+03  0.23047484742E+03  0.00000000000E+00 0. -1.
         -3    1    3    3    0  502  0.81400822623E+03 -0.37720661456E+03 -0.40721441357E+03  0.98525012106E+03  0.00000000000E+00 0.  1.
         11    1    5    5    0    0  0.30104813872E+02  0.15928564849E+03 -0.18940075275E+03  0.24930074764E+03  0.00000000000E+00 0.  1.
        -11    1    5    5    0    0 -0.67103626343E+02  0.30314710526E+03 -0.36089480533E+03  0.47607365461E+03  0.00000000000E+00 0. -1.
          1    1    6    6  503    0 -0.67319819300E+03 -0.16289103100E+02 -0.84026348497E+03  0.10768026124E+04  0.00000000000E+00 0. -1.
         -1    1    6    6    0  503 -0.27145885407E+03  0.48505974207E+02 -0.31033822171E+03  0.41515364727E+03  0.00000000000E+00 0.  1.
<mgrwt>
<rscale>  0 0.26237213E+04</rscale>
<asrwt>0</asrwt>
<pdfrwt beam="1">  1        2 0.43439171E+00 0.26237213E+04</pdfrwt>
<pdfrwt beam="2">  1       -1 0.93770701E-01 0.26237213E+04</pdfrwt>
<totfact> 0.24757074E+00</totfact>
</mgrwt>
</event>
<event>
12    6  0.9533401E-008  0.2312541E+04  0.7818608E-02  0.8472993E-01
          2   -1    0    0  501    0  0.00000000000E+00  0.00000000000E+00  0.13451446754E+04  0.13451446754E+04  0.00000000000E+00 0. -1.
         -1   -1    0    0    0  501 -0.00000000000E+00 -0.00000000000E+00 -0.99391629500E+03  0.99391629500E+03  0.00000000000E+00 0.  1.
         24    2    1    2    0    0 -0.77683828373E+03 -0.43644027926E+03  0.55671234458E+03  0.10536230046E+04  0.78961792748E+02 0.  0.
        254    2    1    2    0    0  0.77683828373E+03  0.43644027926E+03 -0.20548396418E+03  0.12854379658E+04  0.90342086985E+03 0.  0.
         23    2    4    4    0    0  0.62905147190E+02 -0.69497163256E+02 -0.36908516619E+03  0.39169926520E+03  0.91747159147E+02 0.  0.
         23    2    4    4    0    0  0.71393313654E+03  0.50593744251E+03  0.16360120202E+03  0.89373870065E+03  0.79563135600E+02 0.  0.
          4    1    3    3  502    0 -0.16676556082E+03 -0.13015342447E+03  0.11930690427E+03  0.24286787269E+03  0.00000000000E+00 0. -1.
         -3    1    3    3    0  502 -0.61007272290E+03 -0.30628685479E+03  0.43740544032E+03  0.81075513188E+03  0.00000000000E+00 0.  1.
         11    1    5    5    0    0  0.85287377386E+02 -0.55543303305E+02 -0.32233503273E+03  0.33802199427E+03  0.00000000000E+00 0. -1.
        -11    1    5    5    0    0 -0.22382230196E+02 -0.13953859951E+02 -0.46750133463E+02  0.53677270933E+02  0.00000000000E+00 0.  1.
          2    1    6    6  503    0  0.33730364347E+03  0.26023394652E+03  0.11602858344E+03  0.44154058363E+03  0.00000000000E+00 0. -1.
         -2    1    6    6    0  503  0.37662949307E+03  0.24570349600E+03  0.47572618576E+02  0.45219811702E+03  0.00000000000E+00 0.  1.
<mgrwt>
<rscale>  0 0.23125408E+04</rscale>
<asrwt>0</asrwt>
<pdfrwt beam="1">  1        2 0.20694534E+00 0.23125408E+04</pdfrwt>
<pdfrwt beam="2">  1       -1 0.15291020E+00 0.23125408E+04</pdfrwt>
<totfact> 0.53194610E+00</totfact>
</mgrwt>
</event>
<event>
12    6  0.9533401E-008  0.1205162E+04  0.7818608E-02  0.9108350E-01
          2   -1    0    0  501    0  0.00000000000E+00  0.00000000000E+00  0.96368163129E+03  0.96368163129E+03  0.00000000000E+00 0. -1.
         -1   -1    0    0    0  501 -0.00000000000E+00 -0.00000000000E+00 -0.37678843975E+03  0.37678843975E+03  0.00000000000E+00 0.  1.
         24    2    1    2    0    0 -0.63357356114E+01 -0.35876903521E+02  0.42639122430E+03  0.43530642516E+03  0.79717713662E+02 0.  0.
        254    2    1    2    0    0  0.63357356114E+01  0.35876903521E+02  0.16050196724E+03  0.90516364589E+03  0.89007474439E+03 0.  0.
         23    2    4    4    0    0  0.42068042210E+03  0.61890504726E+02  0.20036465211E+03  0.47849338947E+03  0.89484511753E+02 0.  0.
         23    2    4    4    0    0 -0.41434468648E+03 -0.26013601205E+02 -0.39862684875E+02  0.42667025642E+03  0.90001374430E+02 0.  0.
          4    1    3    3  502    0 -0.41814308138E+02 -0.25553168800E+02  0.28412985002E+03  0.28832476910E+03  0.00000000000E+00 0. -1.
         -3    1    3    3    0  502  0.35478572527E+02 -0.10323734721E+02  0.14226137427E+03  0.14698165606E+03  0.00000000000E+00 0.  1.
         11    1    5    5    0    0  0.17575713718E+03  0.66271927943E+02  0.10816796707E+03  0.21675527399E+03  0.00000000000E+00 0. -1.
        -11    1    5    5    0    0  0.24492328492E+03 -0.43814232173E+01  0.92196685047E+02  0.26173811549E+03  0.00000000000E+00 0.  1.
          2    1    6    6  503    0 -0.39641683040E+03 -0.41272350834E+01 -0.35214437393E+02  0.39799923881E+03  0.00000000000E+00 0.  1.
         -2    1    6    6    0  503 -0.17927856082E+02 -0.21886366121E+02 -0.46482474818E+01  0.28671017603E+02  0.00000000000E+00 0. -1.
<mgrwt>
<rscale>  0 0.12051624E+04</rscale>
<asrwt>0</asrwt>
<pdfrwt beam="1">  1        2 0.14825871E+00 0.12051624E+04</pdfrwt>
<pdfrwt beam="2">  1       -1 0.57967452E-01 0.12051624E+04</pdfrwt>
<totfact> 0.90224305E+01</totfact>
</mgrwt>
</event>
<event>
12    6  0.9533401E-008  0.2881916E+04  0.7818608E-02  0.8278278E-01
          2   -1    0    0  501    0  0.00000000000E+00  0.00000000000E+00  0.30380869895E+04  0.30380869895E+04  0.00000000000E+00 0. -1.
         -1   -1    0    0    0  501 -0.00000000000E+00 -0.00000000000E+00 -0.68344312788E+03  0.68344312788E+03  0.00000000000E+00 0.  1.
         24    2    1    2    0    0 -0.75573114994E+03 -0.91080574588E+03  0.18035057274E+04  0.21585196757E+04  0.76665531342E+02 0.  0.
        254    2    1    2    0    0  0.75573114994E+03  0.91080574588E+03  0.55113813415E+03  0.15630104417E+04  0.85939031884E+03 0.  0.
         23    2    4    4    0    0 -0.98809561653E+02  0.17226418399E+03  0.34567160980E+03  0.41160741176E+03  0.10243788869E+03 0.  0.
         23    2    4    4    0    0  0.85454071159E+03  0.73854156189E+03  0.20546652435E+03  0.11514030299E+04  0.88481513432E+02 0.  0.
          2    1    3    3  502    0 -0.55019001449E+03 -0.69001524663E+03  0.12905769818E+04  0.15634637951E+04  0.00000000000E+00 0. -1.
         -1    1    3    3    0  502 -0.20554113545E+03 -0.22079049925E+03  0.51292874561E+03  0.59505588057E+03  0.00000000000E+00 0.  1.
         11    1    5    5    0    0 -0.11894949764E+03  0.14265120280E+03  0.30769086406E+03  0.35940508688E+03  0.00000000000E+00 0.  1.
        -11    1    5    5    0    0  0.20139935987E+02  0.29612981190E+02  0.37980745736E+02  0.52202324883E+02  0.00000000000E+00 0. -1.
          4    1    6    6  503    0  0.19746167732E+03  0.21871739609E+03  0.67235416303E+02  0.30223999498E+03  0.00000000000E+00 0. -1.
         -4    1    6    6    0  503  0.65707903427E+03  0.51982416580E+03  0.13823110805E+03  0.84916303492E+03  0.00000000000E+00 0.  1.
<mgrwt>
<rscale>  0 0.28819158E+04</rscale>
<asrwt>0</asrwt>
<pdfrwt beam="1">  1        2 0.46739799E+00 0.28819158E+04</pdfrwt>
<pdfrwt beam="2">  1       -1 0.10514510E+00 0.28819158E+04</pdfrwt>
<totfact> 0.13726377E+00</totfact>
</mgrwt>
</event>
<event>
12    6  0.9533401E-008  0.2197173E+04  0.7818608E-02  0.8519606E-01
         -1   -1    0    0    0  501 -0.00000000000E+00  0.00000000000E+00  0.42904669382E+03  0.42904669382E+03  0.00000000000E+00 0.  1.
          2   -1    0    0  501    0  0.00000000000E+00 -0.00000000000E+00 -0.28129621530E+04  0.28129621530E+04  0.00000000000E+00 0. -1.
         24    2    1    2    0    0 -0.74856814761E+03  0.20741824619E+03 -0.16873322326E+04  0.18592175404E+04  0.78887252866E+02 0.  0.
        254    2    1    2    0    0  0.74856814761E+03 -0.20741824619E+03 -0.69658322660E+03  0.13827913065E+04  0.90747286753E+03 0.  0.
         23    2    4    4    0    0  0.25085753997E+02 -0.30782284080E+03 -0.53987648547E+03  0.63031236252E+03  0.10219030490E+03 0.  0.
         23    2    4    4    0    0  0.72348239362E+03  0.10040459460E+03 -0.15670674113E+03  0.75247894399E+03  0.90331068529E+02 0.  0.
          2    1    3    3  502    0 -0.61687459778E+03  0.18005071664E+03 -0.13219917461E+04  0.14699029582E+04  0.00000000000E+00 0. -1.
         -1    1    3    3    0  502 -0.13169354984E+03  0.27367529546E+02 -0.36534048658E+03  0.38931458215E+03  0.00000000000E+00 0.  1.
         11    1    5    5    0    0  0.42595287302E+02 -0.30354424587E+03 -0.51876058093E+03  0.60254958968E+03  0.00000000000E+00 0.  1.
        -11    1    5    5    0    0 -0.17509533305E+02 -0.42785949266E+01 -0.21115904537E+02  0.27762772836E+02  0.00000000000E+00 0. -1.
          2    1    6    6  503    0  0.15870069617E+03 -0.13106620256E+00 -0.36121679837E+01  0.15874185302E+03  0.00000000000E+00 0. -1.
         -2    1    6    6    0  503  0.56478169745E+03  0.10053566081E+03 -0.15309457315E+03  0.59373709097E+03  0.00000000000E+00 0.  1.
<mgrwt>
<rscale>  0 0.21971728E+04</rscale>
<asrwt>0</asrwt>
<pdfrwt beam="1">  1        2 0.43276342E+00 0.21971728E+04</pdfrwt>
<pdfrwt beam="2">  1       -1 0.66007182E-01 0.21971728E+04</pdfrwt>
<totfact> 0.54994609E+00</totfact>
</mgrwt>
</event>
<event>
12    6  0.9533401E-008  0.1735284E+04  0.7818608E-02  0.8741492E-01
         -3   -1    0    0    0  501 -0.00000000000E+00  0.00000000000E+00  0.52165821504E+03  0.52165821504E+03  0.00000000000E+00 0.  1.
          2   -1    0    0  501    0  0.00000000000E+00 -0.00000000000E+00 -0.14430963457E+04  0.14430963457E+04  0.00000000000E+00 0. -1.
         24    2    1    2    0    0 -0.33924019425E+03  0.44250675253E+03 -0.63852616117E+03  0.85159048400E+03  0.81206887014E+02 0.  0.
        254    2    1    2    0    0  0.33924019425E+03 -0.44250675253E+03 -0.28291196947E+03  0.11131640767E+04  0.92097716790E+03 0.  0.
         23    2    4    4    0    0  0.21069230437E+03  0.85006462846E+02 -0.47059687889E+03  0.53060188155E+03  0.91976020967E+02 0.  0.
         23    2    4    4    0    0  0.12854788988E+03 -0.52751321538E+03  0.18768490942E+03  0.58256219517E+03  0.96738480583E+02 0.  0.
          4    1    3    3  502    0 -0.23077904423E+03  0.28293639545E+03 -0.35987804239E+03  0.51266380458E+03  0.00000000000E+00 0. -1.
         -3    1    3    3    0  502 -0.10846115003E+03  0.15957035708E+03 -0.27864811878E+03  0.33892667942E+03  0.00000000000E+00 0.  1.
         11    1    5    5    0    0  0.96250990287E+01  0.33940494563E+02 -0.97849288613E+02  0.10401482098E+03  0.00000000000E+00 0. -1.
        -11    1    5    5    0    0  0.20106720535E+03  0.51065968283E+02 -0.37274759028E+03  0.42658706056E+03  0.00000000000E+00 0.  1.
          3    1    6    6  503    0  0.13398111835E+03 -0.48883161622E+03  0.15074876976E+03  0.52880287506E+03  0.00000000000E+00 0. -1.
         -3    1    6    6    0  503 -0.54332284754E+01 -0.38681599159E+02  0.36936139663E+02  0.53759320107E+02  0.00000000000E+00 0.  1.
<mgrwt>
<rscale>  0 0.17352845E+04</rscale>
<asrwt>0</asrwt>
<pdfrwt beam="1">  1        2 0.22201482E+00 0.17352845E+04</pdfrwt>
<pdfrwt beam="2">  1       -3 0.80255111E-01 0.17352845E+04</pdfrwt>
<totfact> 0.11939568E+01</totfact>
</mgrwt>
</event>
<event>
12    6  0.9533401E-008  0.1509157E+04  0.7818608E-02  0.8878387E-01
         -1   -1    0    0    0  501 -0.00000000000E+00  0.00000000000E+00  0.34209500475E+03  0.34209500475E+03  0.00000000000E+00 0.  1.
          2   -1    0    0  501    0  0.00000000000E+00 -0.00000000000E+00 -0.16644160129E+04  0.16644160129E+04  0.00000000000E+00 0. -1.
         24    2    1    2    0    0  0.60531036332E+02  0.46864691281E+03 -0.54568336493E+03  0.72479682253E+03  0.65315878134E+02 0.  0.
        254    2    1    2    0    0 -0.60531036332E+02 -0.46864691281E+03 -0.77663764322E+03  0.12817141951E+04  0.90351054993E+03 0.  0.
         23    2    4    4    0    0  0.35457830821E+03  0.21149027346E+02 -0.22112432865E+03  0.42788543537E+03  0.89537249640E+02 0.  0.
         23    2    4    4    0    0 -0.41510934454E+03 -0.48979594016E+03 -0.55551331458E+03  0.85382875974E+03  0.90623823407E+02 0.  0.
          2    1    3    3  502    0 -0.12485618893E+01  0.12877498124E+03 -0.11465725507E+03  0.17242633454E+03  0.00000000000E+00 0. -1.
         -1    1    3    3    0  502  0.61779598221E+02  0.33987193157E+03 -0.43102610985E+03  0.55237048799E+03  0.00000000000E+00 0.  1.
         11    1    5    5    0    0  0.41492626144E+02 -0.43625273134E+01  0.32653085392E+01  0.41848917653E+02  0.00000000000E+00 0. -1.
        -11    1    5    5    0    0  0.31308568207E+03  0.25511554660E+02 -0.22438963719E+03  0.38603651772E+03  0.00000000000E+00 0.  1.
          1    1    6    6  503    0 -0.13066967684E+03 -0.96039714552E+02 -0.15363991999E+03  0.22339072548E+03  0.00000000000E+00 0. -1.
         -1    1    6    6    0  503 -0.28443966771E+03 -0.39375622561E+03 -0.40187339459E+03  0.63043803427E+03  0.00000000000E+00 0.  1.
<mgrwt>
<rscale>  0 0.15091566E+04</rscale>
<asrwt>0</asrwt>
<pdfrwt beam="1">  1        2 0.25606400E+00 0.15091566E+04</pdfrwt>
<pdfrwt beam="2">  1       -1 0.52630000E-01 0.15091566E+04</pdfrwt>
<totfact> 0.41079713E+01</totfact>
</mgrwt>
</event>
<event>
12    6  0.9533401E-008  0.3205312E+04  0.7818608E-02  0.8187416E-01
          2   -1    0    0  501    0  0.00000000000E+00  0.00000000000E+00  0.15850769901E+04  0.15850769901E+04  0.00000000000E+00 0. -1.
         -1   -1    0    0    0  501 -0.00000000000E+00 -0.00000000000E+00 -0.16204303636E+04  0.16204303636E+04  0.00000000000E+00 0.  1.
         24    2    1    2    0    0 -0.11289111819E+03 -0.14709633074E+04  0.24169274296E+01  0.14773854938E+04  0.78642223331E+02 0.  0.
        254    2    1    2    0    0  0.11289111819E+03  0.14709633074E+04 -0.37770300981E+02  0.17281218599E+04  0.89916689811E+03 0.  0.
         23    2    4    4    0    0  0.29130194898E+03  0.10391608067E+04  0.32365621271E+03  0.11305609452E+04  0.93288257850E+02 0.  0.
         23    2    4    4    0    0 -0.17841083079E+03  0.43180250071E+03 -0.36142651369E+03  0.59756091471E+03  0.90366464058E+02 0.  0.
          2    1    3    3  502    0 -0.25743107949E+02 -0.45358608749E+03 -0.34422727349E+02  0.45561822892E+03  0.00000000000E+00 0. -1.
         -1    1    3    3    0  502 -0.87148010238E+02 -0.10173772200E+04  0.36839654779E+02  0.10217672649E+04  0.00000000000E+00 0.  1.
         11    1    5    5    0    0  0.11520265062E+03  0.53497953379E+03  0.19769173331E+03  0.58185631706E+03  0.00000000000E+00 0. -1.
        -11    1    5    5    0    0  0.17609929836E+03  0.50418127295E+03  0.12596447940E+03  0.54870462814E+03  0.00000000000E+00 0.  1.
          2    1    6    6  503    0 -0.39408929794E+02  0.11231051890E+03 -0.46105632310E+02  0.12764186513E+03  0.00000000000E+00 0.  1.
         -2    1    6    6    0  503 -0.13900190099E+03  0.31949198180E+03 -0.31532088138E+03  0.46991904957E+03  0.00000000000E+00 0. -1.
<mgrwt>
<rscale>  0 0.32053124E+04</rscale>
<asrwt>0</asrwt>
<pdfrwt beam="1">  1        2 0.24385800E+00 0.32053124E+04</pdfrwt>
<pdfrwt beam="2">  1       -1 0.24929698E+00 0.32053124E+04</pdfrwt>
<totfact> 0.76752473E-01</totfact>
</mgrwt>
</event>
<event>
12    6  0.9533401E-008  0.3540745E+04  0.7818608E-02  0.8104201E-01
         -1   -1    0    0    0  501 -0.00000000000E+00  0.00000000000E+00  0.14860919411E+04  0.14860919411E+04  0.00000000000E+00 0.  1.
          2   -1    0    0  501    0  0.00000000000E+00 -0.00000000000E+00 -0.21090347334E+04  0.21090347334E+04  0.00000000000E+00 0. -1.
         24    2    1    2    0    0 -0.49791198371E+03 -0.10365728530E+04 -0.14848825251E+04  0.18797661335E+04  0.79025186023E+02 0.  0.
        254    2    1    2    0    0  0.49791198371E+03  0.10365728530E+04  0.86193973279E+03  0.17153605410E+04  0.93654794838E+03 0.  0.
         23    2    4    4    0    0  0.56919332464E+03  0.76115381671E+03  0.18146641976E+03  0.97191342772E+03  0.91375466938E+02 0.  0.
         23    2    4    4    0    0 -0.71281340936E+02  0.27541903627E+03  0.68047331303E+03  0.74344711329E+03  0.93450550644E+02 0.  0.
          4    1    3    3  502    0 -0.25492866660E+03 -0.62053129641E+03 -0.85993300724E+03  0.10906569084E+04  0.00000000000E+00 0. -1.
         -3    1    3    3    0  502 -0.24298331711E+03 -0.41604155658E+03 -0.62494951789E+03  0.78910922508E+03  0.00000000000E+00 0.  1.
         11    1    5    5    0    0  0.54144705128E+03  0.71964054693E+03  0.15025768305E+03  0.91303055669E+03  0.00000000000E+00 0. -1.
        -11    1    5    5    0    0  0.27746273362E+02  0.41513269780E+02  0.31208736712E+02  0.58882871027E+02  0.00000000000E+00 0.  1.
          3    1    6    6  503    0 -0.87835586015E+02  0.17330720287E+03  0.48066157187E+03  0.51844577673E+03  0.00000000000E+00 0. -1.
         -3    1    6    6    0  503  0.16554245079E+02  0.10211183340E+03  0.19981174116E+03  0.22500133657E+03  0.00000000000E+00 0.  1.
<mgrwt>
<rscale>  0 0.35407454E+04</rscale>
<asrwt>0</asrwt>
<pdfrwt beam="1">  1        2 0.32446688E+00 0.35407454E+04</pdfrwt>
<pdfrwt beam="2">  1       -1 0.22862953E+00 0.35407454E+04</pdfrwt>
<totfact> 0.52143123E-01</totfact>
</mgrwt>
</event>
<event>
12    6  0.9533401E-008  0.2261679E+04  0.7818608E-02  0.8493186E-01
          2   -1    0    0  501    0  0.00000000000E+00  0.00000000000E+00  0.27173605882E+04  0.27173605882E+04  0.00000000000E+00 0. -1.
         -1   -1    0    0    0  501 -0.00000000000E+00 -0.00000000000E+00 -0.47060306812E+03  0.47060306812E+03  0.00000000000E+00 0.  1.
         24    2    1    2    0    0 -0.77328120065E+03  0.10703224467E+03  0.16853377480E+03  0.80240607428E+03  0.77666969186E+02 0.  0.
        254    2    1    2    0    0  0.77328120065E+03 -0.10703224467E+03  0.20782237453E+04  0.23855575820E+04  0.87318458824E+03 0.  0.
         23    2    4    4    0    0  0.77939601947E+03 -0.74410311639E+02  0.87181859484E+03  0.11751962157E+04  0.89573619623E+02 0.  0.
         23    2    4    4    0    0 -0.61148188136E+01 -0.32621933034E+02  0.12064051504E+04  0.12103613664E+04  0.91976457546E+02 0.  0.
          2    1    3    3  502    0 -0.18674850165E+03  0.37562100794E+02  0.94423309965E+01  0.19072249971E+03  0.00000000000E+00 0. -1.
         -1    1    3    3    0  502 -0.58653269901E+03  0.69470143880E+02  0.15909144380E+03  0.61168357456E+03  0.00000000000E+00 0.  1.
         11    1    5    5    0    0  0.53207263286E+03 -0.88209363281E+01  0.59343264232E+03  0.79708305497E+03  0.00000000000E+00 0.  1.
        -11    1    5    5    0    0  0.24732338661E+03 -0.65589375311E+02  0.27838595252E+03  0.37811316068E+03  0.00000000000E+00 0. -1.
          1    1    6    6  503    0 -0.29115028255E+02  0.22993566685E+02  0.40224301657E+03  0.40395028575E+03  0.00000000000E+00 0. -1.
         -1    1    6    6    0  503  0.23000209442E+02 -0.55615499720E+02  0.80416213385E+03  0.80641108063E+03  0.00000000000E+00 0.  1.
<mgrwt>
<rscale>  0 0.22616792E+04</rscale>
<asrwt>0</asrwt>
<pdfrwt beam="1">  1        2 0.41805547E+00 0.22616792E+04</pdfrwt>
<pdfrwt beam="2">  1       -1 0.72400474E-01 0.22616792E+04</pdfrwt>
<totfact> 0.51647230E+00</totfact>
</mgrwt>
</event>
<event>
12    6  0.9533401E-008  0.1818994E+04  0.7818608E-02  0.8696263E-01
         -1   -1    0    0    0  501 -0.00000000000E+00  0.00000000000E+00  0.65027845475E+03  0.65027845475E+03  0.00000000000E+00 0.  1.
          2   -1    0    0  501    0  0.00000000000E+00 -0.00000000000E+00 -0.12720469236E+04  0.12720469236E+04  0.00000000000E+00 0. -1.
         24    2    1    2    0    0 -0.35865440903E+03 -0.53296525527E+03 -0.49139449399E+03  0.81180796437E+03  0.69847504188E+02 0.  0.
        254    2    1    2    0    0  0.35865440903E+03  0.53296525527E+03 -0.13037397485E+03  0.11105174140E+04  0.89641876653E+03 0.  0.
         23    2    4    4    0    0  0.20992222258E+03 -0.22203455689E+03 -0.98552305479E+02  0.33551223391E+03  0.97412618284E+02 0.  0.
         23    2    4    4    0    0  0.14873218646E+03  0.75499981216E+03 -0.31821669374E+02  0.77500518007E+03  0.86454790745E+02 0.  0.
          2    1    3    3  502    0 -0.28307229997E+03 -0.45212120422E+03 -0.43060470374E+03  0.68553914637E+03  0.00000000000E+00 0. -1.
         -1    1    3    3    0  502 -0.75582109069E+02 -0.80844051054E+02 -0.60789790250E+02  0.12626881801E+03  0.00000000000E+00 0.  1.
         11    1    5    5    0    0  0.14315342146E+03 -0.80681758324E+02 -0.53709125365E+02  0.17287891239E+03  0.00000000000E+00 0.  1.
        -11    1    5    5    0    0  0.66768801121E+02 -0.14135279857E+03 -0.44843180114E+02  0.16263332152E+03  0.00000000000E+00 0. -1.
          4    1    6    6  503    0  0.11193942454E+03  0.36628388899E+03 -0.34344724236E+02  0.38454373247E+03  0.00000000000E+00 0. -1.
         -4    1    6    6    0  503  0.36792761921E+02  0.38871592317E+03  0.25230548627E+01  0.39046144760E+03  0.00000000000E+00 0.  1.
<mgrwt>
<rscale>  0 0.18189939E+04</rscale>
<asrwt>0</asrwt>
<pdfrwt beam="1">  1        2 0.19569952E+00 0.18189939E+04</pdfrwt>
<pdfrwt beam="2">  1       -1 0.10004284E+00 0.18189939E+04</pdfrwt>
<totfact> 0.17567514E+01</totfact>
</mgrwt>
</event>
<event>
12    6  0.9533401E-008  0.1668746E+04  0.7818608E-02  0.8779393E-01
          2   -1    0    0  501    0  0.00000000000E+00  0.00000000000E+00  0.15582943283E+04  0.15582943283E+04  0.00000000000E+00 0. -1.
         -3   -1    0    0    0  501 -0.00000000000E+00 -0.00000000000E+00 -0.44675654598E+03  0.44675654598E+03  0.00000000000E+00 0.  1.
         24    2    1    2    0    0 -0.54378478209E+02 -0.51723414916E+03  0.61253377854E+02  0.52968931233E+03  0.79565113941E+02 0.  0.
        254    2    1    2    0    0  0.54378478209E+02  0.51723414916E+03  0.10502844044E+04  0.14753615619E+04  0.89616194085E+03 0.  0.
         23    2    4    4    0    0 -0.13544721882E+03  0.26803622984E+03  0.11005312672E+04  0.11444668801E+04  0.91902121495E+02 0.  0.
         23    2    4    4    0    0  0.18982569703E+03  0.24919791932E+03 -0.50246862765E+02  0.33089468183E+03  0.93984812605E+02 0.  0.
          2    1    3    3  502    0 -0.17606061248E+02 -0.71355350930E+02 -0.17172605791E+02  0.75474882502E+02  0.00000000000E+00 0. -1.
         -1    1    3    3    0  502 -0.36772416961E+02 -0.44587879823E+03  0.78425983645E+02  0.45421442983E+03  0.00000000000E+00 0.  1.
         11    1    5    5    0    0 -0.11436703498E+03  0.20321679628E+03  0.69058353921E+03  0.72889128792E+03  0.00000000000E+00 0. -1.
        -11    1    5    5    0    0 -0.21080183839E+02  0.64819433559E+02  0.40994772800E+03  0.41557559218E+03  0.00000000000E+00 0.  1.
          4    1    6    6  503    0  0.17851045761E+03  0.21017509329E+03 -0.71737094355E+02  0.28493115663E+03  0.00000000000E+00 0. -1.
         -4    1    6    6    0  503  0.11315239417E+02  0.39022826030E+02  0.21490231590E+02  0.45963525193E+02  0.00000000000E+00 0.  1.
<mgrwt>
<rscale>  0 0.16687459E+04</rscale>
<asrwt>0</asrwt>
<pdfrwt beam="1">  1        2 0.23973759E+00 0.16687459E+04</pdfrwt>
<pdfrwt beam="2">  1       -3 0.68731777E-01 0.16687459E+04</pdfrwt>
<totfact> 0.14556841E+01</totfact>
</mgrwt>
</event>
<event>
12    6  0.9533401E-008  0.1144545E+04  0.7818608E-02  0.9162831E-01
          2   -1    0    0  501    0  0.00000000000E+00  0.00000000000E+00  0.22441633283E+04  0.22441633283E+04  0.00000000000E+00 0. -1.
         -1   -1    0    0    0  501 -0.00000000000E+00 -0.00000000000E+00 -0.14593230517E+03  0.14593230517E+03  0.00000000000E+00 0.  1.
         24    2    1    2    0    0  0.15765184884E+03 -0.32385863512E+02  0.13695210243E+03  0.22723768920E+03  0.83535258620E+02 0.  0.
        254    2    1    2    0    0 -0.15765184884E+03  0.32385863512E+02  0.19612789207E+04  0.21628579442E+04  0.89746115945E+03 0.  0.
         23    2    4    4    0    0 -0.24262971160E+03  0.31033557315E+03  0.17395836366E+04  0.17860689632E+04  0.93347563344E+02 0.  0.
         23    2    4    4    0    0  0.84977862764E+02 -0.27794970964E+03  0.22169528408E+03  0.37678898108E+03  0.91344726356E+02 0.  0.
          4    1    3    3  502    0  0.85588142809E+02  0.70467630232E+01  0.11249418906E+03  0.14152713390E+03  0.00000000000E+00 0. -1.
         -3    1    3    3    0  502  0.72063706030E+02 -0.39432626535E+02  0.24457913375E+02  0.85710555295E+02  0.00000000000E+00 0.  1.
         11    1    5    5    0    0 -0.21489818149E+03  0.24930510510E+03  0.12808874406E+04  0.13225002455E+04  0.00000000000E+00 0. -1.
        -11    1    5    5    0    0 -0.27731530118E+02  0.61030468050E+02  0.45869619599E+03  0.46356871768E+03  0.00000000000E+00 0.  1.
          3    1    6    6  503    0  0.68580408502E+02 -0.10088586537E+03  0.57924434461E+02  0.13504247617E+03  0.00000000000E+00 0. -1.
         -3    1    6    6    0  503  0.16397454263E+02 -0.17706384426E+03  0.16377084962E+03  0.24174650491E+03  0.00000000000E+00 0.  1.
<mgrwt>
<rscale>  0 0.11445452E+04</rscale>
<asrwt>0</asrwt>
<pdfrwt beam="1">  1        2 0.34525587E+00 0.11445452E+04</pdfrwt>
<pdfrwt beam="2">  1       -1 0.22451126E-01 0.11445452E+04</pdfrwt>
<totfact> 0.92954129E+01</totfact>
</mgrwt>
</event>
<event>
12    6  0.9533401E-008  0.1335253E+04  0.7818608E-02  0.9002067E-01
          2   -1    0    0  501    0  0.00000000000E+00  0.00000000000E+00  0.49336629367E+04  0.49336629367E+04  0.00000000000E+00 0. -1.
         -1   -1    0    0    0  501 -0.00000000000E+00 -0.00000000000E+00 -0.90343706795E+02  0.90343706795E+02  0.00000000000E+00 0.  1.
         24    2    1    2    0    0  0.32951570732E+03  0.61140781845E+02  0.89470714429E+03  0.95867237268E+03  0.78949651912E+02 0.  0.
        254    2    1    2    0    0 -0.32951570732E+03 -0.61140781845E+02  0.39486120856E+04  0.40653342708E+04  0.90724116649E+03 0.  0.
         23    2    4    4    0    0 -0.39044270962E+02 -0.37593019464E+03  0.84705347897E+03  0.93273112811E+03  0.98182456526E+02 0.  0.
         23    2    4    4    0    0 -0.29047143636E+03  0.31478941280E+03  0.31015586067E+04  0.31326031427E+04  0.10035252581E+03 0.  0.
          2    1    3    3  502    0  0.99061077990E+01  0.16159698576E+02  0.27943522546E+02  0.33765474706E+02  0.00000000000E+00 0. -1.
         -1    1    3    3    0  502  0.31960959952E+03  0.44981083270E+02  0.86676362174E+03  0.92490689798E+03  0.00000000000E+00 0.  1.
         11    1    5    5    0    0 -0.22405128824E+01 -0.31461659026E+03  0.62986850707E+03  0.70407595823E+03  0.00000000000E+00 0.  1.
        -11    1    5    5    0    0 -0.36803758080E+02 -0.61313604383E+02  0.21718497191E+03  0.22865516988E+03  0.00000000000E+00 0. -1.
          3    1    6    6  503    0 -0.64255746420E+02  0.11120538350E+03  0.11987325907E+04  0.12055933238E+04  0.00000000000E+00 0. -1.
         -3    1    6    6    0  503 -0.22621568994E+03  0.20358402930E+03  0.19028260160E+04  0.19270098190E+04  0.00000000000E+00 0.  1.
<mgrwt>
<rscale>  0 0.13352534E+04</rscale>
<asrwt>0</asrwt>
<pdfrwt beam="1">  1        2 0.75902486E+00 0.13352534E+04</pdfrwt>
<pdfrwt beam="2">  1       -1 0.13899036E-01 0.13352534E+04</pdfrwt>
<totfact> 0.18326049E+00</totfact>
</mgrwt>
</event>
<event>
12    6  0.9533401E-008  0.1432946E+04  0.7818608E-02  0.8930310E-01
          2   -1    0    0  501    0  0.00000000000E+00  0.00000000000E+00  0.17413177463E+04  0.17413177463E+04  0.00000000000E+00 0. -1.
         -1   -1    0    0    0  501 -0.00000000000E+00 -0.00000000000E+00 -0.29479616277E+03  0.29479616277E+03  0.00000000000E+00 0.  1.
         24    2    1    2    0    0 -0.10473366710E+03 -0.14370532181E+03 -0.16097296698E+03  0.25244096591E+03  0.78700601204E+02 0.  0.
        254    2    1    2    0    0  0.10473366710E+03  0.14370532181E+03  0.16074945505E+04  0.17836729431E+04  0.75221677571E+03 0.  0.
         23    2    4    4    0    0 -0.19034983499E+03 -0.16271164225E+03  0.28131159274E+03  0.38809607110E+03  0.93670753082E+02 0.  0.
         23    2    4    4    0    0  0.29508350209E+03  0.30641696406E+03  0.13261829577E+04  0.13955768720E+04  0.88926594899E+02 0.  0.
          4    1    3    3  502    0 -0.13401002349E+02 -0.84311149104E+02 -0.65937196052E+02  0.10786876541E+03  0.00000000000E+00 0. -1.
         -3    1    3    3    0  502 -0.91332664753E+02 -0.59394172705E+02 -0.95035770927E+02  0.14457220050E+03  0.00000000000E+00 0.  1.
         11    1    5    5    0    0  0.64223789075E+01 -0.87672284683E+01  0.37367162692E+02  0.38915499399E+02  0.00000000000E+00 0. -1.
        -11    1    5    5    0    0 -0.19677221389E+03 -0.15394441379E+03  0.24394443005E+03  0.34918057170E+03  0.00000000000E+00 0.  1.
          1    1    6    6  503    0  0.22222823594E+02  0.12503352223E+02  0.33427449122E+02  0.42042621946E+02  0.00000000000E+00 0. -1.
         -1    1    6    6    0  503  0.27286067849E+03  0.29391361184E+03  0.12927555086E+04  0.13535342501E+04  0.00000000000E+00 0.  1.
<mgrwt>
<rscale>  0 0.14329463E+04</rscale>
<asrwt>0</asrwt>
<pdfrwt beam="1">  1        2 0.26789503E+00 0.14329463E+04</pdfrwt>
<pdfrwt beam="2">  1       -1 0.45353257E-01 0.14329463E+04</pdfrwt>
<totfact> 0.49657500E+01</totfact>
</mgrwt>
</event>
<event>
12    6  0.9533401E-008  0.3091807E+04  0.7818608E-02  0.8217990E-01
          2   -1    0    0  501    0  0.00000000000E+00  0.00000000000E+00  0.95067292122E+03  0.95067292122E+03  0.00000000000E+00 0. -1.
         -1   -1    0    0    0  501 -0.00000000000E+00 -0.00000000000E+00 -0.25138171223E+04  0.25138171223E+04  0.00000000000E+00 0.  1.
         24    2    1    2    0    0  0.12947461443E+04  0.41849245480E+03 -0.28439025206E+03  0.13923847520E+04  0.79711789245E+02 0.  0.
        254    2    1    2    0    0 -0.12947461443E+04 -0.41849245480E+03 -0.12787539491E+04  0.20721052915E+04  0.89827900132E+03 0.  0.
         23    2    4    4    0    0 -0.75538939875E+03 -0.65506203925E+03 -0.98720556632E+03  0.14082546482E+04  0.94270382688E+02 0.  0.
         23    2    4    4    0    0 -0.53935674551E+03  0.23656958445E+03 -0.29154838273E+03  0.66385064332E+03  0.93948655907E+02 0.  0.
          2    1    3    3  502    0  0.55987373156E+03  0.19281104008E+03 -0.16249436859E+03  0.61403510673E+03  0.00000000000E+00 0. -1.
         -1    1    3    3    0  502  0.73487241270E+03  0.22568141472E+03 -0.12189588347E+03  0.77834964527E+03  0.00000000000E+00 0.  1.
         11    1    5    5    0    0 -0.40797425906E+03 -0.41322945468E+03 -0.58811461852E+03  0.82648677109E+03  0.00000000000E+00 0. -1.
        -11    1    5    5    0    0 -0.34741513969E+03 -0.24183258458E+03 -0.39909094780E+03  0.58176787713E+03  0.00000000000E+00 0.  1.
          4    1    6    6  503    0 -0.44104922669E+03  0.19810812977E+03 -0.27717666132E+03  0.55731333469E+03  0.00000000000E+00 0. -1.
         -4    1    6    6    0  503 -0.98307518827E+02  0.38461454675E+02 -0.14371721409E+02  0.10653730863E+03  0.00000000000E+00 0.  1.
<mgrwt>
<rscale>  0 0.30918072E+04</rscale>
<asrwt>0</asrwt>
<pdfrwt beam="1">  1        2 0.14625737E+00 0.30918072E+04</pdfrwt>
<pdfrwt beam="2">  1       -1 0.38674109E+00 0.30918072E+04</pdfrwt>
<totfact> 0.23115082E-01</totfact>
</mgrwt>
</event>
<event>
12    6  0.9533401E-008  0.2325726E+04  0.7818608E-02  0.8467846E-01
         -1   -1    0    0    0  501 -0.00000000000E+00  0.00000000000E+00  0.21467279849E+04  0.21467279849E+04  0.00000000000E+00 0.  1.
          2   -1    0    0  501    0  0.00000000000E+00 -0.00000000000E+00 -0.62991247869E+03  0.62991247869E+03  0.00000000000E+00 0. -1.
         24    2    1    2    0    0 -0.80868134391E+03 -0.78867695471E+02 -0.29199294916E+02  0.81684198910E+03  0.78693118892E+02 0.  0.
        254    2    1    2    0    0  0.80868134391E+03  0.78867695471E+02  0.15460148012E+04  0.19597984745E+04  0.88907967358E+03 0.  0.
         23    2    4    4    0    0  0.22421165911E+03  0.43597066777E+03  0.79509365211E+03  0.93865706154E+03  0.92530385913E+02 0.  0.
         23    2    4    4    0    0  0.58446968481E+03 -0.35710297230E+03  0.75092114905E+03  0.10211414130E+04  0.98589390623E+02 0.  0.
          2    1    3    3  502    0 -0.35927555162E+03 -0.34363170040E+02  0.26136962967E+02  0.36186031874E+03  0.00000000000E+00 0. -1.
         -1    1    3    3    0  502 -0.44940579230E+03 -0.44504525431E+02 -0.55336257883E+02  0.45498167037E+03  0.00000000000E+00 0.  1.
         11    1    5    5    0    0  0.32020890770E+02  0.14882379702E+02  0.70298681464E+02  0.78668464374E+02  0.00000000000E+00 0. -1.
        -11    1    5    5    0    0  0.19219076834E+03  0.42108828807E+03  0.72479497065E+03  0.85998859717E+03  0.00000000000E+00 0.  1.
          2    1    6    6  503    0  0.22148415274E+01  0.50487023397E+01  0.23603421107E+01  0.59971771015E+01  0.00000000000E+00 0. -1.
         -2    1    6    6    0  503  0.58225484328E+03 -0.36215167464E+03  0.74856080694E+03  0.10151442359E+04  0.00000000000E+00 0.  1.
<mgrwt>
<rscale>  0 0.23257263E+04</rscale>
<asrwt>0</asrwt>
<pdfrwt beam="1">  1        2 0.96909613E-01 0.23257263E+04</pdfrwt>
<pdfrwt beam="2">  1       -1 0.33026584E+00 0.23257263E+04</pdfrwt>
<totfact> 0.10123019E+00</totfact>
</mgrwt>
</event>
<event>
12    6  0.9533401E-008  0.2109864E+04  0.7818608E-02  0.8556911E-01
          2   -1    0    0  501    0  0.00000000000E+00  0.00000000000E+00  0.11090256556E+04  0.11090256556E+04  0.00000000000E+00 0. -1.
         -1   -1    0    0    0  501 -0.00000000000E+00 -0.00000000000E+00 -0.10034769909E+04  0.10034769909E+04  0.00000000000E+00 0.  1.
         24    2    1    2    0    0 -0.82561292412E+02  0.84416816345E+03 -0.40349852979E+02  0.85300560319E+03  0.80957972130E+02 0.  0.
        254    2    1    2    0    0  0.82561292412E+02 -0.84416816345E+03  0.14589851768E+03  0.12594970434E+04  0.91957064420E+03 0.  0.
         23    2    4    4    0    0  0.26007181489E+03 -0.94768612731E+03  0.24177528793E+03  0.10159751096E+04  0.89463895956E+02 0.  0.
         23    2    4    4    0    0 -0.17751052248E+03  0.10351796386E+03 -0.95876770251E+02  0.24352193379E+03  0.88795398132E+02 0.  0.
          2    1    3    3  502    0 -0.40382917996E+02  0.23606240483E+03 -0.43611748491E+02  0.24343012067E+03  0.00000000000E+00 0. -1.
         -1    1    3    3    0  502 -0.42178374416E+02  0.60810575861E+03  0.32618955114E+01  0.60957548252E+03  0.00000000000E+00 0.  1.
         11    1    5    5    0    0  0.67240195485E+02 -0.18841286028E+03  0.15892279964E+02  0.20068187354E+03  0.00000000000E+00 0.  1.
        -11    1    5    5    0    0  0.19283161941E+03 -0.75927326704E+03  0.22588300796E+03  0.81529323606E+03  0.00000000000E+00 0. -1.
          1    1    6    6  503    0 -0.18723837272E+03  0.99178194902E+02 -0.84997153679E+02  0.22829594542E+03  0.00000000000E+00 0. -1.
         -1    1    6    6    0  503  0.97278502419E+01  0.43397689623E+01 -0.10879616572E+02  0.15225988366E+02  0.00000000000E+00 0.  1.
<mgrwt>
<rscale>  0 0.21098642E+04</rscale>
<asrwt>0</asrwt>
<pdfrwt beam="1">  1        2 0.17061933E+00 0.21098642E+04</pdfrwt>
<pdfrwt beam="2">  1       -1 0.15438108E+00 0.21098642E+04</pdfrwt>
<totfact> 0.72869764E+00</totfact>
</mgrwt>
</event>
<event>
12    6  0.9533401E-008  0.2801572E+04  0.7818608E-02  0.8302780E-01
         -1   -1    0    0    0  501 -0.00000000000E+00  0.00000000000E+00  0.19602696811E+04  0.19602696811E+04  0.00000000000E+00 0.  1.
          2   -1    0    0  501    0  0.00000000000E+00 -0.00000000000E+00 -0.10009856248E+04  0.10009856248E+04  0.00000000000E+00 0. -1.
         24    2    1    2    0    0 -0.85582169306E+03 -0.91814905924E+03  0.44437696168E+03  0.13339635104E+04  0.80989490550E+02 0.  0.
        254    2    1    2    0    0  0.85582169306E+03  0.91814905924E+03  0.51490709454E+03  0.16272917956E+04  0.89862161483E+03 0.  0.
         23    2    4    4    0    0  0.77872606443E+03  0.38309627707E+03  0.61806031264E+03  0.10693497074E+04  0.91286394249E+02 0.  0.
         23    2    4    4    0    0  0.77095628633E+02  0.53505278217E+03 -0.10315321810E+03  0.55794208815E+03  0.91834479728E+02 0.  0.
          4    1    3    3  502    0 -0.50263082813E+03 -0.56138208716E+03  0.30545019606E+03  0.81307282542E+03  0.00000000000E+00 0. -1.
         -3    1    3    3    0  502 -0.35319086494E+03 -0.35676697207E+03  0.13892676562E+03  0.52089068493E+03  0.00000000000E+00 0.  1.
         11    1    5    5    0    0  0.21180682628E+03  0.60091961440E+02  0.15603410510E+03  0.26985147293E+03  0.00000000000E+00 0. -1.
        -11    1    5    5    0    0  0.56691923815E+03  0.32300431563E+03  0.46202620755E+03  0.79949823449E+03  0.00000000000E+00 0.  1.
          2    1    6    6  503    0  0.17402828345E+02  0.29761235208E+02  0.11566210319E+02  0.36364361354E+02  0.00000000000E+00 0. -1.
         -2    1    6    6    0  503  0.59692800288E+02  0.50529154696E+03 -0.11471942842E+03  0.52157772680E+03  0.00000000000E+00 0.  1.
<mgrwt>
<rscale>  0 0.28015723E+04</rscale>
<asrwt>0</asrwt>
<pdfrwt beam="1">  1        2 0.15399779E+00 0.28015723E+04</pdfrwt>
<pdfrwt beam="2">  1       -1 0.30157995E+00 0.28015723E+04</pdfrwt>
<totfact> 0.80446605E-01</totfact>
</mgrwt>
</event>
<event>
12    6  0.9533401E-008  0.1643311E+04  0.7818608E-02  0.8794374E-01
         -1   -1    0    0    0  501 -0.00000000000E+00  0.00000000000E+00  0.54656115206E+03  0.54656115206E+03  0.00000000000E+00 0.  1.
          2   -1    0    0  501    0  0.00000000000E+00 -0.00000000000E+00 -0.12352092859E+04  0.12352092859E+04  0.00000000000E+00 0. -1.
         24    2    1    2    0    0 -0.48971459008E+03  0.11885816517E+03  0.42792610045E+02  0.51693372082E+03  0.10696551353E+03 0.  0.
        254    2    1    2    0    0  0.48971459008E+03 -0.11885816517E+03 -0.73144074385E+03  0.12648367171E+04  0.90047693808E+03 0.  0.
         23    2    4    4    0    0 -0.12140246163E+03  0.12429662165E+03  0.84629261014E+02  0.21277180224E+03  0.89002922220E+02 0.  0.
         23    2    4    4    0    0  0.61111705171E+03 -0.24315478682E+03 -0.81607000486E+03  0.10520649149E+04  0.91005664814E+02 0.  0.
          4    1    3    3  502    0 -0.46194765046E+02  0.40989270542E+02 -0.13227363859E+02  0.63158845556E+02  0.00000000000E+00 0. -1.
         -3    1    3    3    0  502 -0.44351982503E+03  0.77868894628E+02  0.56019973904E+02  0.45377487527E+03  0.00000000000E+00 0.  1.
         11    1    5    5    0    0 -0.42731478784E+02  0.82886317620E+02  0.49455053326E+01  0.93384040128E+02  0.00000000000E+00 0.  1.
        -11    1    5    5    0    0 -0.78670982845E+02  0.41410304031E+02  0.79683755681E+02  0.11938776211E+03  0.00000000000E+00 0. -1.
          4    1    6    6  503    0  0.61375081338E+03 -0.24453269570E+03 -0.80970414462E+03  0.10450392825E+04  0.00000000000E+00 0. -1.
         -4    1    6    6    0  503 -0.26337616682E+01  0.13779088761E+01 -0.63658602461E+01  0.70256323607E+01  0.00000000000E+00 0.  1.
<mgrwt>
<rscale>  0 0.16433106E+04</rscale>
<asrwt>0</asrwt>
<pdfrwt beam="1">  1        2 0.19003220E+00 0.16433106E+04</pdfrwt>
<pdfrwt beam="2">  1       -1 0.84086332E-01 0.16433106E+04</pdfrwt>
<totfact> 0.27567219E+01</totfact>
</mgrwt>
</event>
<event>
12    6  0.9533401E-008  0.1744848E+04  0.7818608E-02  0.8736191E-01
         -1   -1    0    0    0  501 -0.00000000000E+00  0.00000000000E+00  0.19284965459E+04  0.19284965459E+04  0.00000000000E+00 0.  1.
          2   -1    0    0  501    0  0.00000000000E+00 -0.00000000000E+00 -0.39467197175E+03  0.39467197175E+03  0.00000000000E+00 0. -1.
         24    2    1    2    0    0  0.17258492013E+02 -0.61419713962E+03  0.36230295634E+03  0.71778536902E+03  0.80102571344E+02 0.  0.
        254    2    1    2    0    0 -0.17258492013E+02  0.61419713962E+03  0.11715216178E+04  0.16053831486E+04  0.90953623953E+03 0.  0.
         23    2    4    4    0    0  0.15992249507E+03  0.79021564773E+03  0.99994874896E+03  0.12878084370E+04  0.92396404001E+02 0.  0.
         23    2    4    4    0    0 -0.17718098708E+03 -0.17601850812E+03  0.17157286880E+03  0.31757471160E+03  0.95083283251E+02 0.  0.
          2    1    3    3  502    0  0.21752099304E+02 -0.13156482749E+03  0.11169288044E+03  0.17394757025E+03  0.00000000000E+00 0. -1.
         -3    1    3    3    0  502 -0.44936072908E+01 -0.48263231213E+03  0.25061007591E+03  0.54383779877E+03  0.00000000000E+00 0.  1.
         11    1    5    5    0    0  0.11442874464E+03  0.66908660572E+03  0.87991180992E+03  0.11113125648E+04  0.00000000000E+00 0. -1.
        -11    1    5    5    0    0  0.45493750432E+02  0.12112904202E+03  0.12003693905E+03  0.17649587214E+03  0.00000000000E+00 0.  1.
          2    1    6    6  503    0  0.63799027551E+01 -0.53299631326E+01  0.26915811418E+02  0.28170420133E+02  0.00000000000E+00 0. -1.
         -2    1    6    6    0  503 -0.18356088984E+03 -0.17068854498E+03  0.14465705738E+03  0.28940429146E+03  0.00000000000E+00 0.  1.
<mgrwt>
<rscale>  0 0.17448479E+04</rscale>
<asrwt>0</asrwt>
<pdfrwt beam="1">  1        2 0.60718766E-01 0.17448479E+04</pdfrwt>
<pdfrwt beam="2">  1       -1 0.29669177E+00 0.17448479E+04</pdfrwt>
<totfact> 0.30412101E+00</totfact>
</mgrwt>
</event>
<event>
12    6  0.9533401E-008  0.1334822E+04  0.7818608E-02  0.9002398E-01
          2   -1    0    0  501    0  0.00000000000E+00  0.00000000000E+00  0.94742200881E+03  0.94742200881E+03  0.00000000000E+00 0. -1.
         -1   -1    0    0    0  501 -0.00000000000E+00 -0.00000000000E+00 -0.47015729419E+03  0.47015729419E+03  0.00000000000E+00 0.  1.
         24    2    1    2    0    0 -0.36923528623E+02  0.13239935001E+03  0.48153273135E+03  0.50741495481E+03  0.81873256672E+02 0.  0.
        254    2    1    2    0    0  0.36923528623E+02 -0.13239935001E+03 -0.42680167349E+01  0.91016434818E+03  0.89971550497E+03 0.  0.
         23    2    4    4    0    0  0.16419572833E+03  0.25703810179E+02  0.40366658152E+03  0.44565793074E+03  0.89684776533E+02 0.  0.
         23    2    4    4    0    0 -0.12727219971E+03 -0.15810316019E+03 -0.40793459825E+03  0.46450641744E+03  0.90336887887E+02 0.  0.
          2    1    3    3  502    0 -0.92481445657E+01  0.12807486606E+03  0.42997213563E+03  0.44873682367E+03  0.00000000000E+00 0. -1.
         -1    1    3    3    0  502 -0.27675384057E+02  0.43244839498E+01  0.51560595719E+02  0.58678131148E+02  0.00000000000E+00 0.  1.
         11    1    5    5    0    0  0.49722320894E+02 -0.28144436366E+02  0.81398424936E+02  0.99449092884E+02  0.00000000000E+00 0.  1.
        -11    1    5    5    0    0  0.11447340743E+03  0.53848246545E+02  0.32226815658E+03  0.34620883786E+03  0.00000000000E+00 0. -1.
          4    1    6    6  503    0 -0.13372187352E+03 -0.12593687782E+03 -0.37721412851E+03  0.41956183740E+03  0.00000000000E+00 0. -1.
         -4    1    6    6    0  503  0.64496738147E+01 -0.32166282378E+02 -0.30720469741E+02  0.44944580045E+02  0.00000000000E+00 0.  1.
<mgrwt>
<rscale>  0 0.13348219E+04</rscale>
<asrwt>0</asrwt>
<pdfrwt beam="1">  1        2 0.14575723E+00 0.13348219E+04</pdfrwt>
<pdfrwt beam="2">  1       -1 0.72331892E-01 0.13348219E+04</pdfrwt>
<totfact> 0.58651474E+01</totfact>
</mgrwt>
</event>
<event>
12    6  0.9533401E-008  0.1229992E+04  0.7818608E-02  0.9087002E-01
          2   -1    0    0  501    0  0.00000000000E+00  0.00000000000E+00  0.17739589935E+04  0.17739589935E+04  0.00000000000E+00 0. -1.
         -1   -1    0    0    0  501 -0.00000000000E+00 -0.00000000000E+00 -0.21320665932E+03  0.21320665932E+03  0.00000000000E+00 0.  1.
         24    2    1    2    0    0 -0.35688339797E+02 -0.13990123178E+02 -0.79591205628E+02  0.11689752034E+03  0.76556443907E+02 0.  0.
        254    2    1    2    0    0  0.35688339797E+02  0.13990123178E+02  0.16403435398E+04  0.18702681325E+04  0.89761159621E+03 0.  0.
         23    2    4    4    0    0 -0.26567588790E+02  0.30336301606E+03  0.14947200758E+04  0.15281926291E+04  0.91921980345E+02 0.  0.
         23    2    4    4    0    0  0.62255928587E+02 -0.28937289288E+03  0.14562346404E+03  0.34207550338E+03  0.90537202043E+02 0.  0.
          4    1    3    3  502    0 -0.19438410101E+02  0.23898933408E+02 -0.43631303859E+01  0.31113465124E+02  0.00000000000E+00 0. -1.
         -3    1    3    3    0  502 -0.16249929696E+02 -0.37889056586E+02 -0.75228075242E+02  0.85784055212E+02  0.00000000000E+00 0.  1.
         11    1    5    5    0    0 -0.36189952825E+02  0.25765020419E+03  0.10822240473E+04  0.11130598497E+04  0.00000000000E+00 0. -1.
        -11    1    5    5    0    0  0.96223640350E+01  0.45712811872E+02  0.41249602845E+03  0.41513277941E+03  0.00000000000E+00 0.  1.
          4    1    6    6  503    0  0.56445474365E+02 -0.28439318721E+03  0.15595186132E+03  0.32922114081E+03  0.00000000000E+00 0. -1.
         -4    1    6    6    0  503  0.58104542222E+01 -0.49797056767E+01 -0.10328397276E+02  0.12854362574E+02  0.00000000000E+00 0.  1.
<mgrwt>
<rscale>  0 0.12299917E+04</rscale>
<asrwt>0</asrwt>
<pdfrwt beam="1">  1        2 0.27291676E+00 0.12299917E+04</pdfrwt>
<pdfrwt beam="2">  1       -1 0.32801026E-01 0.12299917E+04</pdfrwt>
<totfact> 0.87223774E+01</totfact>
</mgrwt>
</event>
<event>
12    6  0.9533401E-008  0.2006245E+04  0.7818608E-02  0.8603706E-01
          2   -1    0    0  501    0  0.00000000000E+00  0.00000000000E+00  0.11798854888E+04  0.11798854888E+04  0.00000000000E+00 0. -1.
         -1   -1    0    0    0  501 -0.00000000000E+00 -0.00000000000E+00 -0.85284143033E+03  0.85284143033E+03  0.00000000000E+00 0.  1.
         24    2    1    2    0    0 -0.41289867258E+03 -0.79423399133E+02  0.78513279156E+03  0.89441087588E+03  0.82121400082E+02 0.  0.
        254    2    1    2    0    0  0.41289867258E+03  0.79423399133E+02 -0.45808873307E+03  0.11383160433E+04  0.95348032851E+03 0.  0.
         23    2    4    4    0    0  0.13465696818E+03  0.33464368075E+03 -0.61497938411E+03  0.71913974894E+03  0.94039584625E+02 0.  0.
         23    2    4    4    0    0  0.27824170439E+03 -0.25522028162E+03  0.15689065104E+03  0.41917629433E+03  0.92402657604E+02 0.  0.
          2    1    3    3  502    0 -0.40696838599E+03 -0.66355695884E+02  0.74097908644E+03  0.84798369802E+03  0.00000000000E+00 0. -1.
         -1    1    3    3    0  502 -0.59302865859E+01 -0.13067703249E+02  0.44153705125E+02  0.46427177853E+02  0.00000000000E+00 0.  1.
         11    1    5    5    0    0  0.79839895410E+02  0.91911398228E+02 -0.16671720989E+03  0.20643822829E+03  0.00000000000E+00 0. -1.
        -11    1    5    5    0    0  0.54817072775E+02  0.24273228252E+03 -0.44826217422E+03  0.51270152066E+03  0.00000000000E+00 0.  1.
          2    1    6    6  503    0  0.30980576146E+02 -0.76573641666E+02  0.20995138744E+02  0.85229775004E+02  0.00000000000E+00 0. -1.
         -2    1    6    6    0  503  0.24726112825E+03 -0.17864663995E+03  0.13589551230E+03  0.33394651933E+03  0.00000000000E+00 0.  1.
<mgrwt>
<rscale>  0 0.20062455E+04</rscale>
<asrwt>0</asrwt>
<pdfrwt beam="1">  1        2 0.18152084E+00 0.20062455E+04</pdfrwt>
<pdfrwt beam="2">  1       -1 0.13120637E+00 0.20062455E+04</pdfrwt>
<totfact> 0.10216105E+01</totfact>
</mgrwt>
</event>
<event>
12    6  0.9533401E-008  0.1582512E+04  0.7818608E-02  0.8831364E-01
          2   -1    0    0  501    0  0.00000000000E+00  0.00000000000E+00  0.15622580866E+04  0.15622580866E+04  0.00000000000E+00 0. -1.
         -1   -1    0    0    0  501 -0.00000000000E+00 -0.00000000000E+00 -0.40075726601E+03  0.40075726601E+03  0.00000000000E+00 0.  1.
         24    2    1    2    0    0 -0.41945742187E+03 -0.79737798192E+02  0.81858193636E+03  0.92654656961E+03  0.78163379544E+02 0.  0.
        254    2    1    2    0    0  0.41945742187E+03  0.79737798192E+02  0.34291888419E+03  0.10364687830E+04  0.87998382467E+03 0.  0.
         23    2    4    4    0    0 -0.14206900730E+03 -0.19515997696E+03 -0.87067108796E+02  0.27211606265E+03  0.90528728462E+02 0.  0.
         23    2    4    4    0    0  0.56152642917E+03  0.27489777515E+03  0.42998599299E+03  0.76435272030E+03  0.92013093783E+02 0.  0.
          2    1    3    3  502    0 -0.18331950120E+03 -0.41448281593E+02  0.28003612910E+03  0.33725988965E+03  0.00000000000E+00 0. -1.
         -1    1    3    3    0  502 -0.23613792067E+03 -0.38289516599E+02  0.53854580726E+03  0.58928667996E+03  0.00000000000E+00 0.  1.
         11    1    5    5    0    0 -0.68578410717E+02 -0.16339623633E+03 -0.51708275081E+02  0.18459435034E+03  0.00000000000E+00 0.  1.
        -11    1    5    5    0    0 -0.73490596583E+02 -0.31763740624E+02 -0.35358833715E+02  0.87521712313E+02  0.00000000000E+00 0. -1.
          2    1    6    6  503    0  0.47784480916E+03  0.19464685172E+03  0.35386049303E+03  0.62565190566E+03  0.00000000000E+00 0. -1.
         -2    1    6    6    0  503  0.83681620015E+02  0.80250923435E+02  0.76125499952E+02  0.13870081465E+03  0.00000000000E+00 0.  1.
<mgrwt>
<rscale>  0 0.15825123E+04</rscale>
<asrwt>0</asrwt>
<pdfrwt beam="1">  1        2 0.24034740E+00 0.15825123E+04</pdfrwt>
<pdfrwt beam="2">  1       -1 0.61654965E-01 0.15825123E+04</pdfrwt>
<totfact> 0.34178460E+01</totfact>
</mgrwt>
</event>
<event>
12    6  0.9533401E-008  0.1728341E+04  0.7818608E-02  0.8745363E-01
         -1   -1    0    0    0  501 -0.00000000000E+00  0.00000000000E+00  0.61718549083E+03  0.61718549083E+03  0.00000000000E+00 0.  1.
          2   -1    0    0  501    0  0.00000000000E+00 -0.00000000000E+00 -0.12099943848E+04  0.12099943848E+04  0.00000000000E+00 0. -1.
         24    2    1    2    0    0  0.48849513333E+03 -0.71615914966E+02 -0.60981637183E+03  0.78872349409E+03  0.80326883489E+02 0.  0.
        254    2    1    2    0    0 -0.48849513333E+03  0.71615914966E+02  0.17007477840E+02  0.10384563816E+04  0.91342545813E+03 0.  0.
         23    2    4    4    0    0  0.13050450037E+03  0.28860865555E+03 -0.14056736214E+03  0.35791903479E+03  0.89557085104E+02 0.  0.
         23    2    4    4    0    0 -0.61899963370E+03 -0.21699274058E+03  0.15757483998E+03  0.68053734678E+03  0.89748839459E+02 0.  0.
          2    1    3    3  502    0  0.47543495146E+03 -0.69820437108E+02 -0.56351779066E+03  0.74058462507E+03  0.00000000000E+00 0. -1.
         -1    1    3    3    0  502  0.13060181867E+02 -0.17954778585E+01 -0.46298581177E+02  0.48138869016E+02  0.00000000000E+00 0.  1.
         11    1    5    5    0    0  0.14235976269E+03  0.27838348013E+03 -0.13902826476E+03  0.34218784673E+03  0.00000000000E+00 0.  1.
        -11    1    5    5    0    0 -0.11855262327E+02  0.10225175419E+02 -0.15390973764E+01  0.15731188065E+02  0.00000000000E+00 0. -1.
          2    1    6    6  503    0 -0.21487258798E+03 -0.10827496059E+03  0.26873768352E+02  0.24210719854E+03  0.00000000000E+00 0. -1.
         -2    1    6    6    0  503 -0.40412704572E+03 -0.10871777999E+03  0.13070107163E+03  0.43843014824E+03  0.00000000000E+00 0.  1.
<mgrwt>
<rscale>  0 0.17283414E+04</rscale>
<asrwt>0</asrwt>
<pdfrwt beam="1">  1        2 0.18615298E+00 0.17283414E+04</pdfrwt>
<pdfrwt beam="2">  1       -1 0.94951614E-01 0.17283414E+04</pdfrwt>
<totfact> 0.21683432E+01</totfact>
</mgrwt>
</event>
<event>
12    6  0.9533401E-008  0.2778370E+04  0.7818608E-02  0.8310015E-01
         -1   -1    0    0    0  501 -0.00000000000E+00  0.00000000000E+00  0.11636129708E+04  0.11636129708E+04  0.00000000000E+00 0.  1.
          2   -1    0    0  501    0  0.00000000000E+00 -0.00000000000E+00 -0.16584846989E+04  0.16584846989E+04  0.00000000000E+00 0. -1.
         24    2    1    2    0    0  0.28269689881E+03  0.58285664748E+03  0.85027332371E+03  0.10715829143E+04  0.75404304533E+02 0.  0.
        254    2    1    2    0    0 -0.28269689881E+03 -0.58285664748E+03 -0.13451450518E+04  0.17505147554E+04  0.91391864546E+03 0.  0.
         23    2    4    4    0    0 -0.44346258854E+03 -0.30420028498E+03 -0.13038645797E+04  0.14137847220E+04  0.97609000945E+02 0.  0.
         23    2    4    4    0    0  0.16076568973E+03 -0.27865636250E+03 -0.41280472056E+02  0.33673003343E+03  0.90487914576E+02 0.  0.
          2    1    3    3  502    0  0.56360728044E+02  0.12534226949E+03  0.13319495143E+03  0.19138472058E+03  0.00000000000E+00 0. -1.
         -1    1    3    3    0  502  0.22633617076E+03  0.45751437799E+03  0.71707837228E+03  0.88019819374E+03  0.00000000000E+00 0.  1.
         11    1    5    5    0    0 -0.65036364088E+02 -0.91887560045E+02 -0.25978380742E+03  0.28312661292E+03  0.00000000000E+00 0.  1.
        -11    1    5    5    0    0 -0.37842622445E+03 -0.21231272494E+03 -0.10440807723E+04  0.11306581091E+04  0.00000000000E+00 0. -1.
          1    1    6    6  503    0  0.11630101225E+03 -0.21538452670E+03  0.82108165012E+01  0.24491598008E+03  0.00000000000E+00 0. -1.
         -1    1    6    6    0  503  0.44464677486E+02 -0.63271835798E+02 -0.49491288557E+02  0.91814053348E+02  0.00000000000E+00 0.  1.
<mgrwt>
<rscale>  0 0.27783695E+04</rscale>
<asrwt>0</asrwt>
<pdfrwt beam="1">  1        2 0.25515149E+00 0.27783695E+04</pdfrwt>
<pdfrwt beam="2">  1       -1 0.17901738E+00 0.27783695E+04</pdfrwt>
<totfact> 0.21713062E+00</totfact>
</mgrwt>
</event>
<event>
12    6  0.9533401E-008  0.1751579E+04  0.7818608E-02  0.8732481E-01
          2   -1    0    0  501    0  0.00000000000E+00  0.00000000000E+00  0.11887083687E+04  0.11887083687E+04  0.00000000000E+00 0. -1.
         -1   -1    0    0    0  501 -0.00000000000E+00 -0.00000000000E+00 -0.64524453078E+03  0.64524453078E+03  0.00000000000E+00 0.  1.
         24    2    1    2    0    0  0.21802131742E+03  0.59598116016E+03  0.95904289913E+02  0.64680519580E+03  0.80202807796E+02 0.  0.
        254    2    1    2    0    0 -0.21802131742E+03 -0.59598116016E+03  0.44755954803E+03  0.11871477037E+04  0.89793278327E+03 0.  0.
         23    2    4    4    0    0 -0.64480110390E+02 -0.64866108683E+03 -0.46307744993E+02  0.65932603174E+03  0.87450092476E+02 0.  0.
         23    2    4    4    0    0 -0.15354120703E+03  0.52679926676E+02  0.49386729303E+03  0.52782167197E+03  0.91327637388E+02 0.  0.
          4    1    3    3  502    0  0.35056994310E+02  0.19849083966E+03  0.18217180756E+02  0.20238446570E+03  0.00000000000E+00 0. -1.
         -3    1    3    3    0  502  0.18296432311E+03  0.39749032049E+03  0.77687109157E+02  0.44442073010E+03  0.00000000000E+00 0.  1.
         11    1    5    5    0    0 -0.23680661582E+01 -0.38236930580E+03 -0.24037254938E+01  0.38238419378E+03  0.00000000000E+00 0.  1.
        -11    1    5    5    0    0 -0.62112044231E+02 -0.26629178103E+03 -0.43904019499E+02  0.27694183796E+03  0.00000000000E+00 0. -1.
          1    1    6    6  503    0  0.11153204950E+02 -0.19042200589E+01  0.49643965778E+02  0.50917024392E+02  0.00000000000E+00 0. -1.
         -1    1    6    6    0  503 -0.16469441198E+03  0.54584146735E+02  0.44422332725E+03  0.47690464758E+03  0.00000000000E+00 0.  1.
<mgrwt>
<rscale>  0 0.17515794E+04</rscale>
<asrwt>0</asrwt>
<pdfrwt beam="1">  1        2 0.18287821E+00 0.17515794E+04</pdfrwt>
<pdfrwt beam="2">  1       -1 0.99268389E-01 0.17515794E+04</pdfrwt>
<totfact> 0.20153618E+01</totfact>
</mgrwt>
</event>
<event>
12    6  0.9533401E-008  0.1962788E+04  0.7818608E-02  0.8624219E-01
         -1   -1    0    0    0  501 -0.00000000000E+00  0.00000000000E+00  0.34603377310E+03  0.34603377310E+03  0.00000000000E+00 0.  1.
          2   -1    0    0  501    0  0.00000000000E+00 -0.00000000000E+00 -0.27833532182E+04  0.27833532182E+04  0.00000000000E+00 0. -1.
         24    2    1    2    0    0 -0.15565284246E+03 -0.39132526256E+03  0.66830866119E+02  0.43334366095E+03  0.77182221639E+02 0.  0.
        254    2    1    2    0    0  0.15565284246E+03  0.39132526256E+03 -0.25041503112E+04  0.26960433304E+04  0.90582425973E+03 0.  0.
         23    2    4    4    0    0  0.23637812307E+03  0.44025740445E+03 -0.25127164442E+04  0.25635421551E+04  0.91122185766E+02 0.  0.
         23    2    4    4    0    0 -0.80725280611E+02 -0.48932141892E+02  0.85661329662E+01  0.13250117528E+03  0.92586485934E+02 0.  0.
          2    1    3    3  502    0 -0.31803530927E+02 -0.23083257422E+02  0.11256172714E+02  0.40877900837E+02  0.00000000000E+00 0. -1.
         -1    1    3    3    0  502 -0.12384931153E+03 -0.36824200514E+03  0.55574693404E+02  0.39246576011E+03  0.00000000000E+00 0.  1.
         11    1    5    5    0    0  0.66943618672E+02  0.93171150546E+02 -0.77300380497E+03  0.78147117277E+03  0.00000000000E+00 0. -1.
        -11    1    5    5    0    0  0.16943450439E+03  0.34708625390E+03 -0.17397126392E+04  0.17820709823E+04  0.00000000000E+00 0.  1.
          1    1    6    6  503    0 -0.42129919185E+02  0.22368743531E+02 -0.11312657767E+02  0.49023127230E+02  0.00000000000E+00 0. -1.
         -1    1    6    6    0  503 -0.38595361426E+02 -0.71300885423E+02  0.19878790733E+02  0.83478048053E+02  0.00000000000E+00 0.  1.
<mgrwt>
<rscale>  0 0.19627880E+04</rscale>
<asrwt>0</asrwt>
<pdfrwt beam="1">  1        2 0.42820817E+00 0.19627880E+04</pdfrwt>
<pdfrwt beam="2">  1       -1 0.53235967E-01 0.19627880E+04</pdfrwt>
<totfact> 0.89485637E+00</totfact>
</mgrwt>
</event>
<event>
12    6  0.9533401E-008  0.1283114E+04  0.7818608E-02  0.9043064E-01
          2   -1    0    0  501    0  0.00000000000E+00  0.00000000000E+00  0.25203016570E+04  0.25203016570E+04  0.00000000000E+00 0. -1.
         -1   -1    0    0    0  501 -0.00000000000E+00 -0.00000000000E+00 -0.16331206469E+03  0.16331206469E+03  0.00000000000E+00 0.  1.
         24    2    1    2    0    0 -0.13706888205E+03 -0.27812404865E+03  0.71887473283E+03  0.78903475836E+03  0.98255297755E+02 0.  0.
        254    2    1    2    0    0  0.13706888205E+03  0.27812404865E+03  0.16381148595E+04  0.18945789633E+04  0.89992682513E+03 0.  0.
         23    2    4    4    0    0 -0.62613548479E+02  0.46718225273E+03  0.14975029634E+04  0.15727283518E+04  0.93699677631E+02 0.  0.
         23    2    4    4    0    0  0.19968243053E+03 -0.18905820408E+03  0.14061189615E+03  0.32185061155E+03  0.90554034844E+02 0.  0.
          2    1    3    3  502    0 -0.55285521304E+02 -0.18173477026E+03  0.51760269554E+03  0.55135883599E+03  0.00000000000E+00 0. -1.
         -1    1    3    3    0  502 -0.81783360744E+02 -0.96389278381E+02  0.20127203729E+03  0.23767592238E+03  0.00000000000E+00 0.  1.
         11    1    5    5    0    0 -0.64521263758E+02  0.46187899304E+03  0.14958367931E+04  0.15668512722E+04  0.00000000000E+00 0. -1.
        -11    1    5    5    0    0  0.19077152792E+01  0.53032596824E+01  0.16661702366E+01  0.58770795556E+01  0.00000000000E+00 0.  1.
          3    1    6    6  503    0  0.17257156904E+03 -0.14787780985E+03  0.74061812479E+02  0.23902708038E+03  0.00000000000E+00 0. -1.
         -3    1    6    6    0  503  0.27110861484E+02 -0.41180394234E+02  0.66550083666E+02  0.82823531171E+02  0.00000000000E+00 0.  1.
<mgrwt>
<rscale>  0 0.12831144E+04</rscale>
<asrwt>0</asrwt>
<pdfrwt beam="1">  1        2 0.38773869E+00 0.12831144E+04</pdfrwt>
<pdfrwt beam="2">  1       -1 0.25124935E-01 0.12831144E+04</pdfrwt>
<totfact> 0.52861981E+01</totfact>
</mgrwt>
</event>
<event>
12    6  0.9533401E-008  0.1893087E+04  0.7818608E-02  0.8658305E-01
          2   -1    0    0  501    0  0.00000000000E+00  0.00000000000E+00  0.11916057509E+04  0.11916057509E+04  0.00000000000E+00 0. -1.
         -1   -1    0    0    0  501 -0.00000000000E+00 -0.00000000000E+00 -0.75188016111E+03  0.75188016111E+03  0.00000000000E+00 0.  1.
         24    2    1    2    0    0  0.24552157239E+03 -0.14039068757E+03  0.85940785154E+03  0.90832321072E+03  0.80491068948E+02 0.  0.
        254    2    1    2    0    0 -0.24552157239E+03  0.14039068757E+03 -0.41968226179E+03  0.10351627013E+04  0.90301618455E+03 0.  0.
         23    2    4    4    0    0 -0.31492917854E+03 -0.22359848145E+03 -0.50784982969E+03  0.64462285572E+03  0.91926645756E+02 0.  0.
         23    2    4    4    0    0  0.69407606152E+02  0.36398916902E+03  0.88167567901E+02  0.39053984554E+03  0.86268881818E+02 0.  0.
          4    1    3    3  502    0  0.65885294827E+02 -0.55733308332E+02  0.37476936414E+03  0.38457658539E+03  0.00000000000E+00 0. -1.
         -3    1    3    3    0  502  0.17963627756E+03 -0.84657379235E+02  0.48463848739E+03  0.52374662532E+03  0.00000000000E+00 0.  1.
         11    1    5    5    0    0 -0.27131734859E+03 -0.20322649552E+03 -0.48399149952E+03  0.59089921623E+03  0.00000000000E+00 0. -1.
        -11    1    5    5    0    0 -0.43611829949E+02 -0.20371985930E+02 -0.23858330169E+02  0.53723639496E+02  0.00000000000E+00 0.  1.
          4    1    6    6  503    0 -0.20265719372E+02  0.85554260321E+02  0.21925054277E+02  0.90614230923E+02  0.00000000000E+00 0. -1.
         -4    1    6    6    0  503  0.89673325524E+02  0.27843490869E+03  0.66242513624E+02  0.29992561461E+03  0.00000000000E+00 0.  1.
<mgrwt>
<rscale>  0 0.18930871E+04</rscale>
<asrwt>0</asrwt>
<pdfrwt beam="1">  1        2 0.18332396E+00 0.18930871E+04</pdfrwt>
<pdfrwt beam="2">  1       -1 0.11567387E+00 0.18930871E+04</pdfrwt>
<totfact> 0.13858755E+01</totfact>
</mgrwt>
</event>
<event>
12    6  0.9533401E-008  0.2302013E+04  0.7818608E-02  0.8477128E-01
          2   -1    0    0  501    0  0.00000000000E+00  0.00000000000E+00  0.21879845792E+04  0.21879845792E+04  0.00000000000E+00 0. -1.
         -1   -1    0    0    0  501 -0.00000000000E+00 -0.00000000000E+00 -0.60549585984E+03  0.60549585984E+03  0.00000000000E+00 0.  1.
         24    2    1    2    0    0 -0.78843972316E+03  0.42424314029E+02 -0.19436996121E+02  0.79381073580E+03  0.79502628730E+02 0.  0.
        254    2    1    2    0    0  0.78843972316E+03 -0.42424314029E+02  0.16019257155E+04  0.19996697032E+04  0.89948646719E+03 0.  0.
         23    2    4    4    0    0  0.67655096373E+03 -0.36287752485E+03  0.74600549216E+03  0.10743611591E+04  0.91249116586E+02 0.  0.
         23    2    4    4    0    0  0.11188875943E+03  0.32045321083E+03  0.85592022331E+03  0.92530854414E+03  0.91581211816E+02 0.  0.
          2    1    3    3  502    0 -0.82537847159E+02  0.28992225303E+02  0.94877403845E+00  0.87486830517E+02  0.00000000000E+00 0. -1.
         -1    1    3    3    0  502 -0.70590187600E+03  0.13432088726E+02 -0.20385770160E+02  0.70632390529E+03  0.00000000000E+00 0.  1.
         11    1    5    5    0    0  0.22419727878E+03 -0.16385662061E+03  0.29786203516E+03  0.40722868750E+03  0.00000000000E+00 0. -1.
        -11    1    5    5    0    0  0.45235368495E+03 -0.19902090424E+03  0.44814345699E+03  0.66713247160E+03  0.00000000000E+00 0.  1.
          3    1    6    6  503    0  0.12188426159E+03  0.31245470375E+03  0.79144760115E+03  0.85957723358E+03  0.00000000000E+00 0. -1.
         -3    1    6    6    0  503 -0.99955021627E+01  0.79985070753E+01  0.64472622166E+02  0.65731310559E+02  0.00000000000E+00 0.  1.
<mgrwt>
<rscale>  0 0.23020127E+04</rscale>
<asrwt>0</asrwt>
<pdfrwt beam="1">  1        2 0.33661301E+00 0.23020127E+04</pdfrwt>
<pdfrwt beam="2">  1       -1 0.93153210E-01 0.23020127E+04</pdfrwt>
<totfact> 0.60527229E+00</totfact>
</mgrwt>
</event>
<event>
12    6  0.9533401E-008  0.2912338E+04  0.7818608E-02  0.8269216E-01
          2   -1    0    0  501    0  0.00000000000E+00  0.00000000000E+00  0.86896224611E+03  0.86896224611E+03  0.00000000000E+00 0. -1.
         -3   -1    0    0    0  501 -0.00000000000E+00 -0.00000000000E+00 -0.24401846397E+04  0.24401846397E+04  0.00000000000E+00 0.  1.
         24    2    1    2    0    0  0.89231307791E+03  0.89362966724E+03 -0.26150639736E+03  0.12921325263E+04  0.80151471663E+02 0.  0.
        254    2    1    2    0    0 -0.89231307791E+03 -0.89362966724E+03 -0.13097159963E+04  0.20170143596E+04  0.87074354700E+03 0.  0.
         23    2    4    4    0    0 -0.42833360011E+03 -0.87867449188E+03 -0.55874935307E+03  0.11295779225E+04  0.90591985417E+02 0.  0.
         23    2    4    4    0    0 -0.46397947780E+03 -0.14955175359E+02 -0.75096664319E+03  0.88743643704E+03  0.89955086160E+02 0.  0.
          2    1    3    3  502    0  0.42612689806E+03  0.47378732977E+03 -0.15464063954E+03  0.65572272684E+03  0.00000000000E+00 0. -1.
         -1    1    3    3    0  502  0.46618617985E+03  0.41984233747E+03 -0.10686575782E+03  0.63640979943E+03  0.00000000000E+00 0.  1.
         11    1    5    5    0    0 -0.22681410893E+03 -0.55819726045E+03 -0.32358938130E+03  0.68391440200E+03  0.00000000000E+00 0.  1.
        -11    1    5    5    0    0 -0.20151949119E+03 -0.32047723143E+03 -0.23515997178E+03  0.44566352052E+03  0.00000000000E+00 0. -1.
          3    1    6    6  503    0 -0.20082670083E+02 -0.10531131038E+02 -0.78107209992E+02  0.81332371239E+02  0.00000000000E+00 0. -1.
         -3    1    6    6    0  503 -0.44389680772E+03 -0.44240443206E+01 -0.67285943319E+03  0.80610406580E+03  0.00000000000E+00 0.  1.
<mgrwt>
<rscale>  0 0.29123381E+04</rscale>
<asrwt>0</asrwt>
<pdfrwt beam="1">  1        2 0.13368650E+00 0.29123381E+04</pdfrwt>
<pdfrwt beam="2">  1       -3 0.37541302E+00 0.29123381E+04</pdfrwt>
<totfact> 0.23938111E-01</totfact>
</mgrwt>
</event>
<event>
12    6  0.9533401E-008  0.1915203E+04  0.7818608E-02  0.8647326E-01
          2   -1    0    0  501    0  0.00000000000E+00  0.00000000000E+00  0.10670774951E+04  0.10670774951E+04  0.00000000000E+00 0. -1.
         -1   -1    0    0    0  501 -0.00000000000E+00 -0.00000000000E+00 -0.85935699795E+03  0.85935699795E+03  0.00000000000E+00 0.  1.
         24    2    1    2    0    0  0.30936494230E+03 -0.11051303254E+03  0.75675494499E+03  0.82988588128E+03  0.90070701581E+02 0.  0.
        254    2    1    2    0    0 -0.30936494230E+03  0.11051303254E+03 -0.54903444787E+03  0.10965486117E+04  0.89053929451E+03 0.  0.
         23    2    4    4    0    0  0.30564767381E+03  0.61612130587E+02 -0.21235306708E+03  0.38788381060E+03  0.90241178427E+02 0.  0.
         23    2    4    4    0    0 -0.61501261611E+03  0.48900901957E+02 -0.33668138079E+03  0.70866480114E+03  0.90662186202E+02 0.  0.
          4    1    3    3  502    0  0.12939265893E+03 -0.82784195118E+02  0.27709302668E+03  0.31682207717E+03  0.00000000000E+00 0. -1.
         -3    1    3    3    0  502  0.17997228337E+03 -0.27728837426E+02  0.47966191831E+03  0.51306380411E+03  0.00000000000E+00 0.  1.
         11    1    5    5    0    0  0.20399211275E+02  0.25349855725E+02 -0.39886333401E+01  0.32781888320E+02  0.00000000000E+00 0.  1.
        -11    1    5    5    0    0  0.28524846254E+03  0.36262274863E+02 -0.20836443374E+03  0.35510192228E+03  0.00000000000E+00 0. -1.
          3    1    6    6  503    0 -0.35245369130E+03  0.62979846743E+02 -0.22589451750E+03  0.42334194057E+03  0.00000000000E+00 0. -1.
         -3    1    6    6    0  503 -0.26255892481E+03 -0.14078944786E+02 -0.11078686329E+03  0.28532286056E+03  0.00000000000E+00 0.  1.
<mgrwt>
<rscale>  0 0.19152029E+04</rscale>
<asrwt>0</asrwt>
<pdfrwt beam="1">  1        2 0.16416577E+00 0.19152029E+04</pdfrwt>
<pdfrwt beam="2">  1       -1 0.13220877E+00 0.19152029E+04</pdfrwt>
<totfact> 0.11841099E+01</totfact>
</mgrwt>
</event>
<event>
12    6  0.9533401E-008  0.1804336E+04  0.7818608E-02  0.8703997E-01
         -1   -1    0    0    0  501 -0.00000000000E+00  0.00000000000E+00  0.40134237001E+03  0.40134237001E+03  0.00000000000E+00 0.  1.
          2   -1    0    0  501    0  0.00000000000E+00 -0.00000000000E+00 -0.20279612395E+04  0.20279612395E+04  0.00000000000E+00 0. -1.
         24    2    1    2    0    0 -0.22349290627E+02 -0.60170956040E+03 -0.19871607533E+03  0.63918920007E+03  0.80751897916E+02 0.  0.
        254    2    1    2    0    0  0.22349290627E+02  0.60170956040E+03 -0.14279027942E+04  0.17901144094E+04  0.89613019337E+03 0.  0.
         23    2    4    4    0    0  0.45141668993E+02  0.37597664326E+03 -0.14907682303E+04  0.15407671553E+04  0.90428444975E+02 0.  0.
         23    2    4    4    0    0 -0.22792378367E+02  0.22573291714E+03  0.62865436166E+02  0.24934725418E+03  0.82141023296E+02 0.  0.
          4    1    3    3  502    0 -0.34362454464E+02 -0.19550720709E+03 -0.37588126698E+02  0.20203146678E+03  0.00000000000E+00 0. -1.
         -3    1    3    3    0  502  0.12013163837E+02 -0.40620235332E+03 -0.16112794864E+03  0.43715773329E+03  0.00000000000E+00 0.  1.
         11    1    5    5    0    0  0.23590361713E+02  0.35904830046E+03 -0.14199559340E+04  0.14648368652E+04  0.00000000000E+00 0. -1.
        -11    1    5    5    0    0  0.21551307280E+02  0.16928342801E+02 -0.70812296349E+02  0.75930290067E+02  0.00000000000E+00 0.  1.
          4    1    6    6  503    0 -0.97472635041E+01  0.22688323614E+03  0.64685990885E+02  0.23612557973E+03  0.00000000000E+00 0. -1.
         -4    1    6    6    0  503 -0.13045114863E+02 -0.11503189998E+01 -0.18205547198E+01  0.13221674443E+02  0.00000000000E+00 0.  1.
<mgrwt>
<rscale>  0 0.18043356E+04</rscale>
<asrwt>0</asrwt>
<pdfrwt beam="1">  1        2 0.31199404E+00 0.18043356E+04</pdfrwt>
<pdfrwt beam="2">  1       -1 0.61744980E-01 0.18043356E+04</pdfrwt>
<totfact> 0.18431273E+01</totfact>
</mgrwt>
</event>
<event>
12    6  0.9533401E-008  0.1410830E+04  0.7818608E-02  0.8946017E-01
         -1   -1    0    0    0  501 -0.00000000000E+00  0.00000000000E+00  0.10831123983E+04  0.10831123983E+04  0.00000000000E+00 0.  1.
          2   -1    0    0  501    0  0.00000000000E+00 -0.00000000000E+00 -0.45942611857E+03  0.45942611857E+03  0.00000000000E+00 0. -1.
         24    2    1    2    0    0 -0.22778139774E+02  0.20128282153E+02  0.63397576794E+03  0.63951166170E+03  0.78268127054E+02 0.  0.
        254    2    1    2    0    0  0.22778139774E+02 -0.20128282153E+02 -0.10289488199E+02  0.90302685518E+03  0.90245644561E+03 0.  0.
         23    2    4    4    0    0  0.20312187189E+03 -0.35841687357E+03 -0.19764852296E+03  0.46557750241E+03  0.89310257057E+02 0.  0.
         23    2    4    4    0    0 -0.18034373212E+03  0.33828859142E+03  0.18735903476E+03  0.43744935278E+03  0.96413150246E+02 0.  0.
          4    1    3    3  502    0 -0.39189907752E+02 -0.17482679226E+02  0.31797256498E+03  0.32085517765E+03  0.00000000000E+00 0. -1.
         -3    1    3    3    0  502  0.16411767979E+02  0.37610961379E+02  0.31600320296E+03  0.31865648405E+03  0.00000000000E+00 0.  1.
         11    1    5    5    0    0  0.16449097946E+03 -0.31649713806E+03 -0.19921329425E+03  0.40855067902E+03  0.00000000000E+00 0.  1.
        -11    1    5    5    0    0  0.38630892438E+02 -0.41919735515E+02  0.15647712943E+01  0.57026823385E+02  0.00000000000E+00 0. -1.
          4    1    6    6  503    0 -0.68122687883E+02  0.19872271944E+03  0.62646203421E+02  0.21921671156E+03  0.00000000000E+00 0. -1.
         -4    1    6    6    0  503 -0.11222104424E+03  0.13956587198E+03  0.12471283134E+03  0.21823264122E+03  0.00000000000E+00 0.  1.
<mgrwt>
<rscale>  0 0.14108297E+04</rscale>
<asrwt>0</asrwt>
<pdfrwt beam="1">  1        2 0.70680942E-01 0.14108297E+04</pdfrwt>
<pdfrwt beam="2">  1       -1 0.16663268E+00 0.14108297E+04</pdfrwt>
<totfact> 0.19683805E+01</totfact>
</mgrwt>
</event>
<event>
12    6  0.9533401E-008  0.1203442E+04  0.7818608E-02  0.9109849E-01
         -1   -1    0    0    0  501 -0.00000000000E+00  0.00000000000E+00  0.48558527286E+03  0.48558527286E+03  0.00000000000E+00 0.  1.
          2   -1    0    0  501    0  0.00000000000E+00 -0.00000000000E+00 -0.74563203830E+03  0.74563203830E+03  0.00000000000E+00 0. -1.
         24    2    1    2    0    0  0.10643279487E+03  0.10135523244E+03  0.18191077752E+03  0.24765916526E+03  0.81502810935E+02 0.  0.
        254    2    1    2    0    0 -0.10643279487E+03 -0.10135523244E+03 -0.44195754296E+03  0.98355814590E+03  0.86629055958E+03 0.  0.
         23    2    4    4    0    0 -0.41396194718E+03  0.16899813822E+03 -0.26898467955E+03  0.52974976798E+03  0.91417692010E+02 0.  0.
         23    2    4    4    0    0  0.30752915231E+03 -0.27035337066E+03 -0.17297286341E+03  0.45380837792E+03  0.91418312408E+02 0.  0.
          2    1    3    3  502    0  0.13758295846E+02 -0.13264711488E+02  0.32997745017E+02  0.38132590414E+02  0.00000000000E+00 0. -1.
         -1    1    3    3    0  502  0.92674499022E+02  0.11461994393E+03  0.14891303250E+03  0.20952657484E+03  0.00000000000E+00 0.  1.
         11    1    5    5    0    0 -0.16962682044E+01  0.54563418697E+01  0.56908914334E+01  0.80644428032E+01  0.00000000000E+00 0.  1.
        -11    1    5    5    0    0 -0.41226567897E+03  0.16354179635E+03 -0.27467557098E+03  0.52168532518E+03  0.00000000000E+00 0. -1.
          4    1    6    6  503    0  0.18633698165E+03 -0.18865217558E+03 -0.67655541851E+02  0.27365742530E+03  0.00000000000E+00 0. -1.
         -4    1    6    6    0  503  0.12119217066E+03 -0.81701195085E+02 -0.10531732156E+03  0.18015095261E+03  0.00000000000E+00 0.  1.
<mgrwt>
<rscale>  0 0.12034416E+04</rscale>
<asrwt>0</asrwt>
<pdfrwt beam="1">  1        2 0.11471262E+00 0.12034416E+04</pdfrwt>
<pdfrwt beam="2">  1       -1 0.74705426E-01 0.12034416E+04</pdfrwt>
<totfact> 0.76766081E+01</totfact>
</mgrwt>
</event>
<event>
12    6  0.9533401E-008  0.2409183E+04  0.7818608E-02  0.8436073E-01
         -1   -1    0    0    0  501 -0.00000000000E+00  0.00000000000E+00  0.49243396262E+03  0.49243396262E+03  0.00000000000E+00 0.  1.
          2   -1    0    0  501    0  0.00000000000E+00 -0.00000000000E+00 -0.29466712035E+04  0.29466712035E+04  0.00000000000E+00 0. -1.
         24    2    1    2    0    0  0.26069237835E+03  0.11178068008E+03  0.36322689646E+03  0.46646660822E+03  0.72124071600E+02 0.  0.
        254    2    1    2    0    0 -0.26069237835E+03 -0.11178068008E+03 -0.28174641373E+04  0.29726385579E+04  0.90444479887E+03 0.  0.
         23    2    4    4    0    0 -0.51838662194E+02 -0.40601156767E+03 -0.65132912787E+03  0.77472066592E+03  0.91814146056E+02 0.  0.
         23    2    4    4    0    0 -0.20885371615E+03  0.29423088759E+03 -0.21661350094E+04  0.21979178920E+04  0.92252320918E+02 0.  0.
          2    1    3    3  502    0  0.10350901851E+02  0.24563876548E+02  0.23412943043E+02  0.35478036898E+02  0.00000000000E+00 0. -1.
         -1    1    3    3    0  502  0.25034147650E+03  0.87216803529E+02  0.33981395342E+03  0.43098857132E+03  0.00000000000E+00 0.  1.
         11    1    5    5    0    0 -0.50205100835E+02 -0.27989247676E+03 -0.37200295053E+03  0.46823770235E+03  0.00000000000E+00 0.  1.
        -11    1    5    5    0    0 -0.16335613591E+01 -0.12611909091E+03 -0.27932617733E+03  0.30648296357E+03  0.00000000000E+00 0. -1.
          2    1    6    6  503    0 -0.20162097718E+03  0.22389689177E+03 -0.17117371245E+04  0.17380520187E+04  0.00000000000E+00 0. -1.
         -2    1    6    6    0  503 -0.72327389787E+01  0.70333995819E+02 -0.45439788499E+03  0.45986587323E+03  0.00000000000E+00 0.  1.
<mgrwt>
<rscale>  0 0.24091832E+04</rscale>
<asrwt>0</asrwt>
<pdfrwt beam="1">  1        2 0.45333403E+00 0.24091832E+04</pdfrwt>
<pdfrwt beam="2">  1       -1 0.75759072E-01 0.24091832E+04</pdfrwt>
<totfact> 0.33644579E+00</totfact>
</mgrwt>
</event>
<event>
12    6  0.9533401E-008  0.1731564E+04  0.7818608E-02  0.8743564E-01
         -1   -1    0    0    0  501 -0.00000000000E+00  0.00000000000E+00  0.50716600771E+03  0.50716600771E+03  0.00000000000E+00 0.  1.
          2   -1    0    0  501    0  0.00000000000E+00 -0.00000000000E+00 -0.14779752807E+04  0.14779752807E+04  0.00000000000E+00 0. -1.
         24    2    1    2    0    0  0.61479103765E+03  0.31331798407E+02 -0.21922290277E+03  0.65788752257E+03  0.76207674716E+02 0.  0.
        254    2    1    2    0    0 -0.61479103765E+03 -0.31331798407E+02 -0.75158637017E+03  0.13272537658E+04  0.90430679828E+03 0.  0.
         23    2    4    4    0    0  0.12086084654E+03  0.25452869325E+03 -0.15686894091E+03  0.33487527753E+03  0.90229634612E+02 0.  0.
         23    2    4    4    0    0 -0.73565188419E+03 -0.28586049166E+03 -0.59471742927E+03  0.99237848826E+03  0.90699106340E+02 0.  0.
          2    1    3    3  502    0  0.27547923255E+03 -0.15363017328E+02 -0.72494724793E+02  0.28527235230E+03  0.00000000000E+00 0. -1.
         -1    1    3    3    0  502  0.33931180510E+03  0.46694815735E+02 -0.14672817798E+03  0.37261517026E+03  0.00000000000E+00 0.  1.
         11    1    5    5    0    0  0.43068642763E+02  0.21806118474E+02 -0.41791042792E+02  0.63850654264E+02  0.00000000000E+00 0.  1.
        -11    1    5    5    0    0  0.77792203780E+02  0.23272257478E+03 -0.11507789812E+03  0.27102462326E+03  0.00000000000E+00 0. -1.
          3    1    6    6  503    0 -0.22003218229E+03 -0.85164508998E+02 -0.12741483199E+03  0.26814491277E+03  0.00000000000E+00 0.  1.
         -3    1    6    6    0  503 -0.51561970191E+03 -0.20069598266E+03 -0.46730259728E+03  0.72423357549E+03  0.00000000000E+00 0. -1.
<mgrwt>
<rscale>  0 0.17315644E+04</rscale>
<asrwt>0</asrwt>
<pdfrwt beam="1">  1        2 0.22738081E+00 0.17315644E+04</pdfrwt>
<pdfrwt beam="2">  1       -1 0.78025540E-01 0.17315644E+04</pdfrwt>
<totfact> 0.23243954E+01</totfact>
</mgrwt>
</event>
<event>
12    6  0.9533401E-008  0.1746485E+04  0.7818608E-02  0.8735287E-01
          2   -1    0    0  501    0  0.00000000000E+00  0.00000000000E+00  0.83729232605E+03  0.83729232605E+03  0.00000000000E+00 0. -1.
         -1   -1    0    0    0  501 -0.00000000000E+00 -0.00000000000E+00 -0.91073670717E+03  0.91073670717E+03  0.00000000000E+00 0.  1.
         24    2    1    2    0    0  0.47608999451E+03  0.22168566936E+03  0.32430048250E+03  0.62316868058E+03  0.85803162117E+02 0.  0.
        254    2    1    2    0    0 -0.47608999451E+03 -0.22168566936E+03 -0.39774486362E+03  0.11248603526E+04  0.91175853028E+03 0.  0.
         23    2    4    4    0    0  0.15761846264E+03 -0.15751888763E+03 -0.41721730280E+03  0.48111990435E+03  0.88035815899E+02 0.  0.
         23    2    4    4    0    0 -0.63370845715E+03 -0.64166781729E+02  0.19472439179E+02  0.64374044829E+03  0.91207479564E+02 0.  0.
          4    1    3    3  502    0  0.33544541774E+03  0.11270930068E+03  0.22621008016E+03  0.41999763703E+03  0.00000000000E+00 0. -1.
         -3    1    3    3    0  502  0.14064457677E+03  0.10897636868E+03  0.98090402339E+02  0.20317104355E+03  0.00000000000E+00 0.  1.
         11    1    5    5    0    0  0.12982095145E+03 -0.13148518118E+03 -0.39724520350E+03  0.43811594814E+03  0.00000000000E+00 0. -1.
        -11    1    5    5    0    0  0.27797511191E+02 -0.26033706448E+02 -0.19972099301E+02  0.43003956217E+02  0.00000000000E+00 0.  1.
          4    1    6    6  503    0 -0.29843828817E+03 -0.33219878804E+02  0.54644198158E+02  0.30521297578E+03  0.00000000000E+00 0. -1.
         -4    1    6    6    0  503 -0.33527016898E+03 -0.30946902925E+02 -0.35171758980E+02  0.33852747250E+03  0.00000000000E+00 0.  1.
<mgrwt>
<rscale>  0 0.17464854E+04</rscale>
<asrwt>0</asrwt>
<pdfrwt beam="1">  1        2 0.12881420E+00 0.17464854E+04</pdfrwt>
<pdfrwt beam="2">  1       -1 0.14011334E+00 0.17464854E+04</pdfrwt>
<totfact> 0.14665933E+01</totfact>
</mgrwt>
</event>
<event>
12    6  0.9533401E-008  0.2022453E+04  0.7818608E-02  0.8596194E-01
          2   -1    0    0  501    0  0.00000000000E+00  0.00000000000E+00  0.19528120550E+04  0.19528120550E+04  0.00000000000E+00 0. -1.
         -1   -1    0    0    0  501 -0.00000000000E+00 -0.00000000000E+00 -0.52364459755E+03  0.52364459755E+03  0.00000000000E+00 0.  1.
         24    2    1    2    0    0 -0.28936879034E+03 -0.66328977224E+03  0.13317941918E+03  0.74036802359E+03  0.81978252490E+02 0.  0.
        254    2    1    2    0    0  0.28936879034E+03  0.66328977224E+03  0.12959880383E+04  0.17360886290E+04  0.90040608256E+03 0.  0.
         23    2    4    4    0    0 -0.13559482221E+03  0.87022894987E+02 -0.64194861012E+02  0.19633208788E+03  0.92012871332E+02 0.  0.
         23    2    4    4    0    0  0.42496361254E+03  0.57626687725E+03  0.13601828993E+04  0.15397565411E+04  0.89861562899E+02 0.  0.
          4    1    3    3  502    0 -0.79147233562E+02 -0.17801987914E+03 -0.75928588578E+00  0.19482283866E+03  0.00000000000E+00 0. -1.
         -3    1    3    3    0  502 -0.21022155678E+03 -0.48526989310E+03  0.13393870506E+03  0.54554518492E+03  0.00000000000E+00 0.  1.
         11    1    5    5    0    0 -0.43913380530E+01  0.48636989938E+02 -0.17328219284E+02  0.51818026050E+02  0.00000000000E+00 0.  1.
        -11    1    5    5    0    0 -0.13120348415E+03  0.38385905049E+02 -0.46866641728E+02  0.14451406183E+03  0.00000000000E+00 0. -1.
          2    1    6    6  503    0  0.36658564816E+02  0.44488043380E+02  0.65524842170E+02  0.87272798279E+02  0.00000000000E+00 0.  1.
         -2    1    6    6    0  503  0.38830504773E+03  0.53177883387E+03  0.12946580571E+04  0.14524837428E+04  0.00000000000E+00 0. -1.
<mgrwt>
<rscale>  0 0.20224534E+04</rscale>
<asrwt>0</asrwt>
<pdfrwt beam="1">  1        2 0.30043262E+00 0.20224534E+04</pdfrwt>
<pdfrwt beam="2">  1       -1 0.80560708E-01 0.20224534E+04</pdfrwt>
<totfact> 0.11516252E+01</totfact>
</mgrwt>
</event>
<event>
12    6  0.9533401E-008  0.1365842E+04  0.7818608E-02  0.8978922E-01
         -1   -1    0    0    0  501 -0.00000000000E+00  0.00000000000E+00  0.97895120842E+02  0.97895120842E+02  0.00000000000E+00 0.  1.
          2   -1    0    0  501    0  0.00000000000E+00 -0.00000000000E+00 -0.47640888642E+04  0.47640888642E+04  0.00000000000E+00 0. -1.
         24    2    1    2    0    0 -0.28378113390E+02 -0.11832905268E+03 -0.25775991125E+04  0.25816287938E+04  0.77349610085E+02 0.  0.
        254    2    1    2    0    0  0.28378113390E+02  0.11832905268E+03 -0.20885946309E+04  0.22803551913E+04  0.90718530861E+03 0.  0.
         23    2    4    4    0    0  0.16394079970E+03 -0.35217088881E+03 -0.11591167947E+04  0.12257346845E+04  0.89290830325E+02 0.  0.
         23    2    4    4    0    0 -0.13556268631E+03  0.47049994149E+03 -0.92947783620E+03  0.10546205068E+04  0.92455007471E+02 0.  0.
          2    1    3    3  502    0 -0.46468501139E+02 -0.79346651294E+02 -0.12703935820E+04  0.12737170274E+04  0.00000000000E+00 0. -1.
         -1    1    3    3    0  502  0.18090387749E+02 -0.38982401388E+02 -0.13072055305E+04  0.13079117664E+04  0.00000000000E+00 0.  1.
         11    1    5    5    0    0  0.14126784372E+03 -0.20334788655E+03 -0.74867739155E+03  0.78855868725E+03  0.00000000000E+00 0.  1.
        -11    1    5    5    0    0  0.22672955985E+02 -0.14882300226E+03 -0.41043940312E+03  0.43717599725E+03  0.00000000000E+00 0. -1.
          2    1    6    6  503    0 -0.97574062494E+02  0.43658960824E+03 -0.83652345391E+03  0.94863200064E+03  0.00000000000E+00 0. -1.
         -2    1    6    6    0  503 -0.37988623818E+02  0.33910333256E+02 -0.92954382293E+02  0.10598850612E+03  0.00000000000E+00 0.  1.
<mgrwt>
<rscale>  0 0.13658419E+04</rscale>
<asrwt>0</asrwt>
<pdfrwt beam="1">  1        2 0.73293693E+00 0.13658419E+04</pdfrwt>
<pdfrwt beam="2">  1       -1 0.15060784E-01 0.13658419E+04</pdfrwt>
<totfact> 0.25022372E+00</totfact>
</mgrwt>
</event>
<event>
12    6  0.9533401E-008  0.2156004E+04  0.7818608E-02  0.8536967E-01
          2   -1    0    0  501    0  0.00000000000E+00  0.00000000000E+00  0.85758200322E+03  0.85758200322E+03  0.00000000000E+00 0. -1.
         -1   -1    0    0    0  501 -0.00000000000E+00 -0.00000000000E+00 -0.13550752456E+04  0.13550752456E+04  0.00000000000E+00 0.  1.
         24    2    1    2    0    0  0.22687879737E+03 -0.86057471690E+03 -0.23728775239E+03  0.92460241615E+03  0.80754680641E+02 0.  0.
        254    2    1    2    0    0 -0.22687879737E+03  0.86057471690E+03 -0.26020548995E+03  0.12880548326E+04  0.89404447473E+03 0.  0.
         23    2    4    4    0    0 -0.95177828732E+02 -0.22586144384E+02  0.22927266820E+03  0.26538071237E+03  0.91060491498E+02 0.  0.
         23    2    4    4    0    0 -0.13170096864E+03  0.88316086129E+03 -0.48947815815E+03  0.10226741203E+04  0.94632113459E+02 0.  0.
          4    1    3    3  502    0  0.31685304600E+02 -0.60968499932E+02 -0.34586076717E+02  0.76924074348E+02  0.00000000000E+00 0. -1.
         -3    1    3    3    0  502  0.19519349277E+03 -0.79960621697E+03 -0.20270167567E+03  0.84767834180E+03  0.00000000000E+00 0.  1.
         11    1    5    5    0    0 -0.55307422611E+02 -0.11671888813E+02  0.21395623314E+03  0.22129711630E+03  0.00000000000E+00 0. -1.
        -11    1    5    5    0    0 -0.39870406121E+02 -0.10914255571E+02  0.15316435061E+02  0.44083596064E+02  0.00000000000E+00 0.  1.
          2    1    6    6  503    0 -0.44090172489E+02  0.57958491118E+03 -0.33631273194E+03  0.67154215522E+03  0.00000000000E+00 0. -1.
         -2    1    6    6    0  503 -0.87610796148E+02  0.30357595011E+03 -0.15316542621E+03  0.35113196504E+03  0.00000000000E+00 0.  1.
<mgrwt>
<rscale>  0 0.21560038E+04</rscale>
<asrwt>0</asrwt>
<pdfrwt beam="1">  1        2 0.13193569E+00 0.21560038E+04</pdfrwt>
<pdfrwt beam="2">  1       -1 0.20847311E+00 0.21560038E+04</pdfrwt>
<totfact> 0.43203608E+00</totfact>
</mgrwt>
</event>
<event>
12    6  0.9533401E-008  0.1294654E+04  0.7818608E-02  0.9033816E-01
         -1   -1    0    0    0  501 -0.00000000000E+00  0.00000000000E+00  0.27890671135E+03  0.27890671135E+03  0.00000000000E+00 0.  1.
          2   -1    0    0  501    0  0.00000000000E+00 -0.00000000000E+00 -0.15024090044E+04  0.15024090044E+04  0.00000000000E+00 0. -1.
         24    2    1    2    0    0 -0.26136679902E+03  0.19854109578E+03 -0.28046572571E+03  0.43892505446E+03  0.79139179840E+02 0.  0.
        254    2    1    2    0    0  0.26136679902E+03 -0.19854109578E+03 -0.94303656734E+03  0.13423906613E+04  0.89719760915E+03 0.  0.
         23    2    4    4    0    0 -0.15012933519E+03 -0.25546288502E+03 -0.23043737198E+01  0.31011026545E+03  0.91449241065E+02 0.  0.
         23    2    4    4    0    0  0.41149613421E+03  0.56921789238E+02 -0.94073219362E+03  0.10322803959E+04  0.89758548273E+02 0.  0.
          4    1    3    3  502    0 -0.11162448375E+03  0.97597022484E+02 -0.17661814401E+03  0.23060609914E+03  0.00000000000E+00 0. -1.
         -3    1    3    3    0  502 -0.14974231527E+03  0.10094407330E+03 -0.10384758171E+03  0.20831895531E+03  0.00000000000E+00 0.  1.
         11    1    5    5    0    0 -0.82146640804E+02 -0.20382731915E+03  0.23285380262E+02  0.22098836069E+03  0.00000000000E+00 0. -1.
        -11    1    5    5    0    0 -0.67982694389E+02 -0.51635565871E+02 -0.25589753981E+02  0.89121904760E+02  0.00000000000E+00 0.  1.
          4    1    6    6  503    0  0.36556672733E+03  0.20739406661E+02 -0.79560024912E+03  0.87581328577E+03  0.00000000000E+00 0. -1.
         -4    1    6    6    0  503  0.45929406879E+02  0.36182382576E+02 -0.14513194450E+03  0.15646711009E+03  0.00000000000E+00 0.  1.
<mgrwt>
<rscale>  0 0.12946536E+04</rscale>
<asrwt>0</asrwt>
<pdfrwt beam="1">  1        2 0.23113984E+00 0.12946536E+04</pdfrwt>
<pdfrwt beam="2">  1       -1 0.42908726E-01 0.12946536E+04</pdfrwt>
<totfact> 0.75635512E+01</totfact>
</mgrwt>
</event>
<event>
12    6  0.9533401E-008  0.1239557E+04  0.7818608E-02  0.9078920E-01
          2   -1    0    0  501    0  0.00000000000E+00  0.00000000000E+00  0.78325611321E+03  0.78325611321E+03  0.00000000000E+00 0. -1.
         -1   -1    0    0    0  501 -0.00000000000E+00 -0.00000000000E+00 -0.49042084154E+03  0.49042084154E+03  0.00000000000E+00 0.  1.
         24    2    1    2    0    0 -0.10409402519E+03 -0.10664832059E+03 -0.15941315735E+03  0.23265251686E+03  0.80654872760E+02 0.  0.
        254    2    1    2    0    0  0.10409402519E+03  0.10664832059E+03  0.45224842902E+03  0.10410244379E+04  0.92573960073E+03 0.  0.
         23    2    4    4    0    0 -0.10619968829E+03 -0.27532219631E+03  0.50594215341E+03  0.59281125044E+03  0.91471473594E+02 0.  0.
         23    2    4    4    0    0  0.21029371348E+03  0.38197051690E+03 -0.53693724388E+02  0.44821318744E+03  0.88809479502E+02 0.  0.
          2    1    3    3  502    0 -0.50782519684E+02 -0.65963974435E+01 -0.25536524467E+02  0.57223167044E+02  0.00000000000E+00 0. -1.
         -1    1    3    3    0  502 -0.53311505508E+02 -0.10005192315E+03 -0.13387663289E+03  0.17542934982E+03  0.00000000000E+00 0.  1.
         11    1    5    5    0    0 -0.89335052735E+02 -0.20296465200E+03  0.44313585473E+03  0.49552475958E+03  0.00000000000E+00 0.  1.
        -11    1    5    5    0    0 -0.16864635552E+02 -0.72357544311E+02  0.62806298683E+02  0.97286490867E+02  0.00000000000E+00 0. -1.
          3    1    6    6  503    0  0.17126320385E+02  0.10789911775E+03 -0.21721590876E+02  0.11138832062E+03  0.00000000000E+00 0. -1.
         -3    1    6    6    0  503  0.19316739309E+03  0.27407139915E+03 -0.31972133512E+02  0.33682486682E+03  0.00000000000E+00 0.  1.
<mgrwt>
<rscale>  0 0.12395566E+04</rscale>
<asrwt>0</asrwt>
<pdfrwt beam="1">  1        2 0.12050094E+00 0.12395566E+04</pdfrwt>
<pdfrwt beam="2">  1       -1 0.75449360E-01 0.12395566E+04</pdfrwt>
<totfact> 0.70316320E+01</totfact>
</mgrwt>
</event>
<event>
12    6  0.9533401E-008  0.1619828E+04  0.7818608E-02  0.8808459E-01
         -1   -1    0    0    0  501 -0.00000000000E+00  0.00000000000E+00  0.55598386381E+03  0.55598386381E+03  0.00000000000E+00 0.  1.
          2   -1    0    0  501    0  0.00000000000E+00 -0.00000000000E+00 -0.11798198759E+04  0.11798198759E+04  0.00000000000E+00 0. -1.
         24    2    1    2    0    0 -0.54113375672E+03 -0.22577053170E+02 -0.71029327505E+02  0.55214603329E+03  0.80527080649E+02 0.  0.
        254    2    1    2    0    0  0.54113375672E+03  0.22577053170E+02 -0.55280668455E+03  0.11836577064E+04  0.89560865862E+03 0.  0.
         23    2    4    4    0    0 -0.68802172662E+02 -0.30499609479E+03 -0.59035294115E+02  0.32852246664E+03  0.81764835563E+02 0.  0.
         23    2    4    4    0    0  0.60993592939E+03  0.32757314796E+03 -0.49377139043E+03  0.85513523974E+03  0.90111525415E+02 0.  0.
          2    1    3    3  502    0 -0.33333205315E+03 -0.35968545568E+02 -0.76328165381E+02  0.34384587064E+03  0.00000000000E+00 0. -1.
         -1    1    3    3    0  502 -0.20780170358E+03  0.13391492397E+02  0.52988378751E+01  0.20830016265E+03  0.00000000000E+00 0.  1.
         11    1    5    5    0    0  0.17186192009E+02 -0.25806894577E+02 -0.71476659507E+01  0.31819021544E+02  0.00000000000E+00 0. -1.
        -11    1    5    5    0    0 -0.85988364671E+02 -0.27918920021E+03 -0.51887628164E+02  0.29670344510E+03  0.00000000000E+00 0.  1.
          4    1    6    6  503    0  0.97928124799E+02  0.29848199824E+02 -0.43968663774E+02  0.11141847268E+03  0.00000000000E+00 0. -1.
         -4    1    6    6    0  503  0.51200780459E+03  0.29772494814E+03 -0.44980272666E+03  0.74371676706E+03  0.00000000000E+00 0.  1.
<mgrwt>
<rscale>  0 0.16198282E+04</rscale>
<asrwt>0</asrwt>
<pdfrwt beam="1">  1        2 0.18151075E+00 0.16198282E+04</pdfrwt>
<pdfrwt beam="2">  1       -1 0.85535980E-01 0.16198282E+04</pdfrwt>
<totfact> 0.28722997E+01</totfact>
</mgrwt>
</event>
<event>
12    6  0.9533401E-008  0.2790826E+04  0.7818608E-02  0.8306122E-01
          2   -1    0    0  501    0  0.00000000000E+00  0.00000000000E+00  0.15117785108E+04  0.15117785108E+04  0.00000000000E+00 0. -1.
         -1   -1    0    0    0  501 -0.00000000000E+00 -0.00000000000E+00 -0.12880040075E+04  0.12880040075E+04  0.00000000000E+00 0.  1.
         24    2    1    2    0    0  0.11134549624E+04 -0.43808268920E+02 -0.46443430091E+03  0.12095255598E+04  0.74510014207E+02 0.  0.
        254    2    1    2    0    0 -0.11134549624E+04  0.43808268920E+02  0.68820880423E+03  0.15902569584E+04  0.90198931137E+03 0.  0.
         23    2    4    4    0    0 -0.12278313780E+04 -0.50845266505E+02  0.48971724011E+03  0.13259224678E+04  0.89957108349E+02 0.  0.
         23    2    4    4    0    0  0.11437641557E+03  0.94653535424E+02  0.19849156412E+03  0.26433449066E+03  0.91829002593E+02 0.  0.
          4    1    3    3  502    0  0.50928734707E+03 -0.36692069240E+02 -0.24872909285E+03  0.56796661122E+03  0.00000000000E+00 0. -1.
         -3    1    3    3    0  502  0.60416761536E+03 -0.71161996791E+01 -0.21570520806E+03  0.64155894860E+03  0.00000000000E+00 0.  1.
         11    1    5    5    0    0 -0.11367973998E+04 -0.23641190614E+02  0.44704110332E+03  0.12217663370E+04  0.00000000000E+00 0.  1.
        -11    1    5    5    0    0 -0.91033978180E+02 -0.27204075891E+02  0.42676136790E+02  0.10415613078E+03  0.00000000000E+00 0. -1.
          2    1    6    6  503    0  0.42942575720E+02  0.54693158836E+02  0.27528851571E+02  0.74787994369E+02  0.00000000000E+00 0. -1.
         -2    1    6    6    0  503  0.71433839854E+02  0.39960376588E+02  0.17096271255E+03  0.18954649629E+03  0.00000000000E+00 0.  1.
<mgrwt>
<rscale>  0 0.27908255E+04</rscale>
<asrwt>0</asrwt>
<pdfrwt beam="1">  1        2 0.23258131E+00 0.27908255E+04</pdfrwt>
<pdfrwt beam="2">  1       -1 0.19815446E+00 0.27908255E+04</pdfrwt>
<totfact> 0.19214061E+00</totfact>
</mgrwt>
</event>
<event>
12    6  0.9533401E-008  0.2173849E+04  0.7818608E-02  0.8529392E-01
          2   -1    0    0  501    0  0.00000000000E+00  0.00000000000E+00  0.88992938577E+03  0.88992938577E+03  0.00000000000E+00 0. -1.
         -1   -1    0    0    0  501 -0.00000000000E+00 -0.00000000000E+00 -0.13275263711E+04  0.13275263711E+04  0.00000000000E+00 0.  1.
         24    2    1    2    0    0 -0.10603991879E+03 -0.36107949851E+03 -0.97322947961E+03  0.10466106109E+04  0.81211343167E+02 0.  0.
        254    2    1    2    0    0  0.10603991879E+03  0.36107949851E+03  0.53563249429E+03  0.11708451459E+04  0.97074884406E+03 0.  0.
         23    2    4    4    0    0  0.30086871082E+03  0.55587641807E+03  0.96720378639E+02  0.64449365484E+03  0.80601899271E+02 0.  0.
         23    2    4    4    0    0 -0.19482879203E+03 -0.19479691956E+03  0.43891211565E+03  0.52635149111E+03  0.92184320038E+02 0.  0.
          2    1    3    3  502    0 -0.91137267602E+02 -0.21137365542E+03 -0.50942025286E+03  0.55901146480E+03  0.00000000000E+00 0. -1.
         -1    1    3    3    0  502 -0.14902651191E+02 -0.14970584309E+03 -0.46380922675E+03  0.48759914611E+03  0.00000000000E+00 0.  1.
         11    1    5    5    0    0  0.20267784123E+03  0.29245335280E+03  0.62941920324E+02  0.36134326647E+03  0.00000000000E+00 0. -1.
        -11    1    5    5    0    0  0.98190869597E+02  0.26342306527E+03  0.33778458315E+02  0.28315038837E+03  0.00000000000E+00 0.  1.
          3    1    6    6  503    0 -0.15484337981E+03 -0.94109307585E+02  0.29526769670E+03  0.34643332224E+03  0.00000000000E+00 0. -1.
         -3    1    6    6    0  503 -0.39985412223E+02 -0.10068761197E+03  0.14364441895E+03  0.17991816887E+03  0.00000000000E+00 0.  1.
<mgrwt>
<rscale>  0 0.21738489E+04</rscale>
<asrwt>0</asrwt>
<pdfrwt beam="1">  1        2 0.13691221E+00 0.21738489E+04</pdfrwt>
<pdfrwt beam="2">  1       -1 0.20423483E+00 0.21738489E+04</pdfrwt>
<totfact> 0.43804299E+00</totfact>
</mgrwt>
</event>
<event>
12    6  0.9533401E-008  0.1824445E+04  0.7818608E-02  0.8693407E-01
         -1   -1    0    0    0  501 -0.00000000000E+00  0.00000000000E+00  0.56409322103E+03  0.56409322103E+03  0.00000000000E+00 0.  1.
          2   -1    0    0  501    0  0.00000000000E+00 -0.00000000000E+00 -0.14751992689E+04  0.14751992689E+04  0.00000000000E+00 0. -1.
         24    2    1    2    0    0 -0.48860385020E+03 -0.11089562380E+03  0.18131208480E+03  0.53846488304E+03  0.77709692895E+02 0.  0.
        254    2    1    2    0    0  0.48860385020E+03  0.11089562380E+03 -0.10924181327E+04  0.15008276069E+04  0.89892967867E+03 0.  0.
         23    2    4    4    0    0  0.37417459386E+03  0.47870338510E+03 -0.79941231084E+03  0.10083010222E+04  0.91909472220E+02 0.  0.
         23    2    4    4    0    0  0.11442925633E+03 -0.36780776129E+03 -0.29300582185E+03  0.49252658468E+03  0.91397051428E+02 0.  0.
          4    1    3    3  502    0 -0.13205790842E+02  0.22977984476E+01 -0.65405499695E+01  0.14914810873E+02  0.00000000000E+00 0. -1.
         -3    1    3    3    0  502 -0.47539805935E+03 -0.11319342225E+03  0.18785263477E+03  0.52355007217E+03  0.00000000000E+00 0.  1.
         11    1    5    5    0    0  0.38201893841E+02  0.78487065461E+02 -0.74962977113E+02  0.11506107976E+03  0.00000000000E+00 0.  1.
        -11    1    5    5    0    0  0.33597270002E+03  0.40021631964E+03 -0.72444933373E+03  0.89323994246E+03  0.00000000000E+00 0. -1.
          1    1    6    6  503    0  0.85593342068E+02 -0.28471266625E+03 -0.17377035082E+03  0.34435977894E+03  0.00000000000E+00 0. -1.
         -1    1    6    6    0  503  0.28835914266E+02 -0.83095095046E+02 -0.11923547103E+03  0.14816680574E+03  0.00000000000E+00 0.  1.
<mgrwt>
<rscale>  0 0.18244450E+04</rscale>
<asrwt>0</asrwt>
<pdfrwt beam="1">  1        2 0.22695373E+00 0.18244450E+04</pdfrwt>
<pdfrwt beam="2">  1       -1 0.86783573E-01 0.18244450E+04</pdfrwt>
<totfact> 0.18420225E+01</totfact>
</mgrwt>
</event>
<event>
12    6  0.9533401E-008  0.1561232E+04  0.7818608E-02  0.8844725E-01
         -1   -1    0    0    0  501 -0.00000000000E+00  0.00000000000E+00  0.44315539462E+03  0.44315539462E+03  0.00000000000E+00 0.  1.
          2   -1    0    0  501    0  0.00000000000E+00 -0.00000000000E+00 -0.13750512071E+04  0.13750512071E+04  0.00000000000E+00 0. -1.
         24    2    1    2    0    0 -0.33904924202E+02  0.22334827962E+03  0.23376623339E+03  0.33458876913E+03  0.79176983108E+02 0.  0.
        254    2    1    2    0    0  0.33904924202E+02 -0.22334827962E+03 -0.11656620459E+04  0.14836178326E+04  0.88956161682E+03 0.  0.
         23    2    4    4    0    0  0.19588067141E+03 -0.50965907262E+03 -0.55476777650E+03  0.78374991611E+03  0.91515230568E+02 0.  0.
         23    2    4    4    0    0 -0.16197574721E+03  0.28631079300E+03 -0.61089426942E+03  0.69986791652E+03  0.91723929780E+02 0.  0.
          4    1    3    3  502    0  0.10304314342E+02  0.31735826824E+02  0.63899387465E+01  0.33973120485E+02  0.00000000000E+00 0. -1.
         -3    1    3    3    0  502 -0.44209238544E+02  0.19161245280E+03  0.22737629465E+03  0.30061564864E+03  0.00000000000E+00 0.  1.
         11    1    5    5    0    0  0.21525862667E+02 -0.20287991410E+02 -0.57246480775E+02  0.64436984102E+02  0.00000000000E+00 0.  1.
        -11    1    5    5    0    0  0.17435480874E+03 -0.48937108121E+03 -0.49752129572E+03  0.71931293201E+03  0.00000000000E+00 0. -1.
          4    1    6    6  503    0 -0.15412984648E+03  0.26803941062E+03 -0.60449117473E+03  0.67897769886E+03  0.00000000000E+00 0. -1.
         -4    1    6    6    0  503 -0.78459007310E+01  0.18271382379E+02 -0.64030946868E+01  0.20890217660E+02  0.00000000000E+00 0.  1.
<mgrwt>
<rscale>  0 0.15612320E+04</rscale>
<asrwt>0</asrwt>
<pdfrwt beam="1">  1        2 0.21154633E+00 0.15612320E+04</pdfrwt>
<pdfrwt beam="2">  1       -1 0.68177755E-01 0.15612320E+04</pdfrwt>
<totfact> 0.35706134E+01</totfact>
</mgrwt>
</event>
<event>
12    6  0.9533401E-008  0.1797802E+04  0.7818608E-02  0.8707469E-01
          2   -1    0    0  501    0  0.00000000000E+00  0.00000000000E+00  0.15671981592E+04  0.15671981592E+04  0.00000000000E+00 0. -1.
         -1   -1    0    0    0  501 -0.00000000000E+00 -0.00000000000E+00 -0.51558417263E+03  0.51558417263E+03  0.00000000000E+00 0.  1.
         24    2    1    2    0    0  0.49385391126E+03  0.32361568099E+03  0.77353039702E+03  0.97635209545E+03  0.79343207228E+02 0.  0.
        254    2    1    2    0    0 -0.49385391126E+03 -0.32361568099E+03  0.27808358956E+03  0.11064302364E+04  0.89344199060E+03 0.  0.
         23    2    4    4    0    0 -0.49409800799E+03 -0.59445611455E+03  0.14545184662E+03  0.79184056849E+03  0.91347318533E+02 0.  0.
         23    2    4    4    0    0  0.24409673251E+00  0.27084043356E+03  0.13263174294E+03  0.31458966789E+03  0.89559365089E+02 0.  0.
          4    1    3    3  502    0  0.45168540201E+03  0.26649177614E+03  0.67087467263E+03  0.85153414230E+03  0.00000000000E+00 0. -1.
         -3    1    3    3    0  502  0.42168509251E+02  0.57123904848E+02  0.10265572439E+03  0.12481795314E+03  0.00000000000E+00 0.  1.
         11    1    5    5    0    0 -0.49171612589E+03 -0.56788396596E+03  0.13516497914E+03  0.76324735102E+03  0.00000000000E+00 0.  1.
        -11    1    5    5    0    0 -0.23818821019E+01 -0.26572148586E+02  0.10286867481E+02  0.28593217472E+02  0.00000000000E+00 0. -1.
          4    1    6    6  503    0 -0.25972541853E+02  0.18048181571E+03  0.12314095334E+03  0.22002716451E+03  0.00000000000E+00 0. -1.
         -4    1    6    6    0  503  0.26216638585E+02  0.90358617848E+02  0.94907895934E+01  0.94562503378E+02  0.00000000000E+00 0.  1.
<mgrwt>
<rscale>  0 0.17978015E+04</rscale>
<asrwt>0</asrwt>
<pdfrwt beam="1">  1        2 0.24110741E+00 0.17978015E+04</pdfrwt>
<pdfrwt beam="2">  1       -1 0.79320643E-01 0.17978015E+04</pdfrwt>
<totfact> 0.19881431E+01</totfact>
</mgrwt>
</event>
<event>
12    6  0.1209539E-007  0.1350008E+04  0.7818608E-02  0.8990822E-01
          2   -1    0    0  501    0  0.00000000000E+00  0.00000000000E+00  0.13273041257E+04  0.13273041257E+04  0.00000000000E+00 0. -1.
         -1   -1    0    0    0  501 -0.00000000000E+00 -0.00000000000E+00 -0.34327525350E+03  0.34327525350E+03  0.00000000000E+00 0.  1.
         24    2    1    2    0    0  0.22253871145E+02 -0.92771680642E+02  0.72633238400E+03  0.73742303784E+03  0.84452265677E+02 0.  0.
        254    2    1    2    0    0 -0.22253871145E+02  0.92771680642E+02  0.25769648825E+03  0.93315634140E+03  0.89177993807E+03 0.  0.
         23    2    4    4    0    0  0.14993929193E+03 -0.23618056351E+03 -0.18516850119E+03  0.34811162415E+03  0.92904677986E+02 0.  0.
         23    2    4    4    0    0 -0.17219316307E+03  0.32895224415E+03  0.44286498943E+03  0.58504471725E+03  0.91037673382E+02 0.  0.
          2    1    3    3  502    0  0.27997660277E+02 -0.98776143972E+02  0.71914482961E+03  0.72643642637E+03  0.00000000000E+00 0. -1.
         -1    1    3    3    0  502 -0.57437891325E+01  0.60044633305E+01  0.71875543873E+01  0.10986611468E+02  0.00000000000E+00 0.  1.
         11    1    5    5    0    0  0.85682645181E+02 -0.15750129685E+03 -0.64901732336E+02  0.19068405559E+03  0.00000000000E+00 0. -1.
        -11    1    5    5    0    0  0.64256646748E+02 -0.78679266661E+02 -0.12026676885E+03  0.15742756856E+03  0.00000000000E+00 0.  1.
          2    1    6    6  503    0 -0.12669806842E+03  0.27859019114E+03  0.30872991091E+03  0.43471721042E+03  0.00000000000E+00 0. -1.
         -2    1    6    6    0  503 -0.45495094649E+02  0.50362053016E+02  0.13413507852E+03  0.15032750684E+03  0.00000000000E+00 0.  1.
<mgrwt>
<rscale>  0 0.13500084E+04</rscale>
<asrwt>0</asrwt>
<pdfrwt beam="1">  1        2 0.20420063E+00 0.13500084E+04</pdfrwt>
<pdfrwt beam="2">  1       -1 0.52811578E-01 0.13500084E+04</pdfrwt>
<totfact> 0.64119732E+01</totfact>
</mgrwt>
</event>
<event>
12    6  0.9533401E-008  0.1209365E+04  0.7818608E-02  0.9104698E-01
         -1   -1    0    0    0  501 -0.00000000000E+00  0.00000000000E+00  0.62789171556E+03  0.62789171556E+03  0.00000000000E+00 0.  1.
          2   -1    0    0  501    0  0.00000000000E+00 -0.00000000000E+00 -0.58233135773E+03  0.58233135773E+03  0.00000000000E+00 0. -1.
         24    2    1    2    0    0  0.75273428485E+02  0.24245795755E+03 -0.55716145033E+02  0.27143807633E+03  0.78245704340E+02 0.  0.
        254    2    1    2    0    0 -0.75273428485E+02 -0.24245795755E+03  0.10127650286E+03  0.93878499696E+03  0.89811379584E+03 0.  0.
         23    2    4    4    0    0  0.54277881384E+02 -0.11778345923E+03 -0.38216454314E+03  0.41473334930E+03  0.95577096164E+02 0.  0.
         23    2    4    4    0    0 -0.12955130987E+03 -0.12467449832E+03  0.48344104600E+03  0.52405164766E+03  0.92669369482E+02 0.  0.
          2    1    3    3  502    0  0.76597752114E+02  0.20775985002E+03 -0.72330803765E+02  0.23294444849E+03  0.00000000000E+00 0. -1.
         -1    1    3    3    0  502 -0.13243236289E+01  0.34698107529E+02  0.16614658732E+02  0.38493627836E+02  0.00000000000E+00 0.  1.
         11    1    5    5    0    0  0.21438766587E+02 -0.61168331597E+01 -0.93571226427E+01  0.24178339580E+02  0.00000000000E+00 0. -1.
        -11    1    5    5    0    0  0.32839114797E+02 -0.11166662607E+03 -0.37280742050E+03  0.39055500972E+03  0.00000000000E+00 0.  1.
          4    1    6    6  503    0 -0.43705937162E+02 -0.35018191913E+02  0.28146034140E+03  0.28697805925E+03  0.00000000000E+00 0.  1.
         -4    1    6    6    0  503 -0.85845372707E+02 -0.89656306407E+02  0.20198070460E+03  0.23707358842E+03  0.00000000000E+00 0. -1.
<mgrwt>
<rscale>  0 0.12093652E+04</rscale>
<asrwt>0</asrwt>
<pdfrwt beam="1">  1        2 0.89589439E-01 0.12093652E+04</pdfrwt>
<pdfrwt beam="2">  1       -1 0.96598726E-01 0.12093652E+04</pdfrwt>
<totfact> 0.59797719E+01</totfact>
</mgrwt>
</event>
<event>
12    6  0.9533401E-008  0.1568733E+04  0.7818608E-02  0.8839990E-01
          2   -1    0    0  501    0  0.00000000000E+00  0.00000000000E+00  0.17414971493E+04  0.17414971493E+04  0.00000000000E+00 0. -1.
         -1   -1    0    0    0  501 -0.00000000000E+00 -0.00000000000E+00 -0.35327701919E+03  0.35327701919E+03  0.00000000000E+00 0.  1.
         24    2    1    2    0    0  0.60000216251E+01  0.51521002111E+03  0.39479892917E+03  0.65481067002E+03  0.86217474974E+02 0.  0.
        254    2    1    2    0    0 -0.60000216251E+01 -0.51521002111E+03  0.99342120095E+03  0.14399634985E+04  0.90616324597E+03 0.  0.
         23    2    4    4    0    0  0.13023371220E+03  0.65326220630E+02 -0.96198491744E+02  0.19450421659E+03  0.85728674096E+02 0.  0.
         23    2    4    4    0    0 -0.13623373382E+03 -0.58053624174E+03  0.10896196927E+04  0.12454592819E+04  0.91190953173E+02 0.  0.
          2    1    3    3  502    0 -0.37415714886E+02  0.21643997822E+03  0.14792643034E+03  0.26481772729E+03  0.00000000000E+00 0. -1.
         -1    1    3    3    0  502  0.43415736511E+02  0.29877004288E+03  0.24687249883E+03  0.38999294273E+03  0.00000000000E+00 0.  1.
         11    1    5    5    0    0  0.71039829675E+02  0.16658392479E+02 -0.18964655417E+01  0.72991479104E+02  0.00000000000E+00 0. -1.
        -11    1    5    5    0    0  0.59193882522E+02  0.48667828152E+02 -0.94302026202E+02  0.12151273748E+03  0.00000000000E+00 0.  1.
          4    1    6    6  503    0 -0.28982631394E+02 -0.32012609310E+03  0.59561102043E+03  0.67681104901E+03  0.00000000000E+00 0.  1.
         -4    1    6    6    0  503 -0.10725110243E+03 -0.26041014863E+03  0.49400867226E+03  0.56864823288E+03  0.00000000000E+00 0. -1.
<mgrwt>
<rscale>  0 0.15687331E+04</rscale>
<asrwt>0</asrwt>
<pdfrwt beam="1">  1        2 0.26792263E+00 0.15687331E+04</pdfrwt>
<pdfrwt beam="2">  1       -1 0.54350312E-01 0.15687331E+04</pdfrwt>
<totfact> 0.34814324E+01</totfact>
</mgrwt>
</event>
<event>
12    6  0.9533401E-008  0.5003402E+04  0.7818608E-02  0.7827983E-01
         -1   -1    0    0    0  501 -0.00000000000E+00  0.00000000000E+00  0.24111490527E+04  0.24111490527E+04  0.00000000000E+00 0.  1.
          2   -1    0    0  501    0  0.00000000000E+00 -0.00000000000E+00 -0.25956533806E+04  0.25956533806E+04  0.00000000000E+00 0. -1.
         24    2    1    2    0    0  0.41990407296E+03  0.98947631319E+03 -0.22613240653E+04  0.25050844810E+04  0.80491762582E+02 0.  0.
        254    2    1    2    0    0 -0.41990407296E+03 -0.98947631319E+03  0.20768197374E+04  0.25017179523E+04  0.88883614146E+03 0.  0.
         23    2    4    4    0    0 -0.68455127688E+02 -0.68162131355E+03  0.49711255881E+03  0.85150573930E+03  0.92991442332E+02 0.  0.
         23    2    4    4    0    0 -0.35144894527E+03 -0.30785499964E+03  0.15797071786E+04  0.16502122130E+04  0.97131436148E+02 0.  0.
          4    1    3    3  502    0  0.40036838981E+03  0.95261256379E+03 -0.22037413830E+04  0.24339765051E+04  0.00000000000E+00 0. -1.
         -3    1    3    3    0  502  0.19535683146E+02  0.36863749399E+02 -0.57582682235E+02  0.71107975848E+02  0.00000000000E+00 0.  1.
         11    1    5    5    0    0 -0.80530260670E+01 -0.23209418077E+03  0.22053994262E+03  0.32026618034E+03  0.00000000000E+00 0. -1.
        -11    1    5    5    0    0 -0.60402101621E+02 -0.44952713278E+03  0.27657261619E+03  0.53123955897E+03  0.00000000000E+00 0.  1.
          4    1    6    6  503    0 -0.66297418417E+02 -0.11218980017E+03  0.48308473327E+03  0.50035263412E+03  0.00000000000E+00 0. -1.
         -4    1    6    6    0  503 -0.28515152685E+03 -0.19566519947E+03  0.10966224454E+04  0.11498595789E+04  0.00000000000E+00 0.  1.
<mgrwt>
<rscale>  0 0.50034017E+04</rscale>
<asrwt>0</asrwt>
<pdfrwt beam="1">  1        2 0.39933129E+00 0.50034017E+04</pdfrwt>
<pdfrwt beam="2">  1       -1 0.37094601E+00 0.50034017E+04</pdfrwt>
<totfact> 0.28541947E-02</totfact>
</mgrwt>
</event>
<event>
12    6  0.9533401E-008  0.2283076E+04  0.7818608E-02  0.8484624E-01
         -1   -1    0    0    0  501 -0.00000000000E+00  0.00000000000E+00  0.10333563904E+04  0.10333563904E+04  0.00000000000E+00 0.  1.
          2   -1    0    0  501    0  0.00000000000E+00 -0.00000000000E+00 -0.12610450012E+04  0.12610450012E+04  0.00000000000E+00 0. -1.
         24    2    1    2    0    0  0.88292402642E+03  0.37792767535E+03 -0.13121778742E+03  0.97262642069E+03  0.79999264138E+02 0.  0.
        254    2    1    2    0    0 -0.88292402642E+03 -0.37792767535E+03 -0.96470823403E+02  0.13217749709E+04  0.90299406955E+03 0.  0.
         23    2    4    4    0    0 -0.85153049064E+03  0.55413667845E+02  0.33652749581E+02  0.85898162009E+03  0.92423292620E+02 0.  0.
         23    2    4    4    0    0 -0.31393535777E+02 -0.43334134319E+03 -0.13012357298E+03  0.46279335079E+03  0.92061215932E+02 0.  0.
          4    1    3    3  502    0  0.13419235126E+03  0.53012300332E+02  0.86231482395E+01  0.14454151587E+03  0.00000000000E+00 0. -1.
         -3    1    3    3    0  502  0.74873167515E+03  0.32491537502E+03 -0.13984093566E+03  0.82808490482E+03  0.00000000000E+00 0.  1.
         11    1    5    5    0    0 -0.63488093468E+03  0.57584817118E+02  0.61910023888E+02  0.64048627108E+03  0.00000000000E+00 0.  1.
        -11    1    5    5    0    0 -0.21664955596E+03 -0.21711492732E+01 -0.28257274307E+02  0.21849534901E+03  0.00000000000E+00 0. -1.
          1    1    6    6  503    0 -0.57211323312E+02 -0.16908215743E+03 -0.57295792980E+02  0.18746924913E+03  0.00000000000E+00 0. -1.
         -1    1    6    6    0  503  0.25817787535E+02 -0.26425918576E+03 -0.72827780004E+02  0.27532410166E+03  0.00000000000E+00 0.  1.
<mgrwt>
<rscale>  0 0.22830759E+04</rscale>
<asrwt>0</asrwt>
<pdfrwt beam="1">  1        2 0.19400692E+00 0.22830759E+04</pdfrwt>
<pdfrwt beam="2">  1       -1 0.15897791E+00 0.22830759E+04</pdfrwt>
<totfact> 0.53643486E+00</totfact>
</mgrwt>
</event>
<event>
12    6  0.9533401E-008  0.1379138E+04  0.7818608E-02  0.8969060E-01
          2   -1    0    0  501    0  0.00000000000E+00  0.00000000000E+00  0.77057705286E+03  0.77057705286E+03  0.00000000000E+00 0. -1.
         -1   -1    0    0    0  501 -0.00000000000E+00 -0.00000000000E+00 -0.61707666716E+03  0.61707666716E+03  0.00000000000E+00 0.  1.
         24    2    1    2    0    0  0.16001588498E+03 -0.36810014372E+03  0.28768842011E+02  0.41001054968E+03  0.78601560599E+02 0.  0.
        254    2    1    2    0    0 -0.16001588498E+03  0.36810014372E+03  0.12473154369E+03  0.97764317035E+03  0.88268080940E+03 0.  0.
         23    2    4    4    0    0 -0.15958091314E+03 -0.69389059637E+02  0.40459444019E+03  0.45031798331E+03  0.93854758123E+02 0.  0.
         23    2    4    4    0    0 -0.43497184330E+00  0.43748920335E+03 -0.27986289650E+03  0.52732518703E+03  0.91387197083E+02 0.  0.
          2    1    3    3  502    0  0.56929714261E+02 -0.57328779696E+02 -0.43932696017E+01  0.80912805940E+02  0.00000000000E+00 0. -1.
         -1    1    3    3    0  502  0.10308617072E+03 -0.31077136402E+03  0.33162111613E+02  0.32909774374E+03  0.00000000000E+00 0.  1.
         11    1    5    5    0    0 -0.13833392006E+03 -0.22768777370E+02  0.24014484334E+03  0.27807235829E+03  0.00000000000E+00 0.  1.
        -11    1    5    5    0    0 -0.21246993079E+02 -0.46620282267E+02  0.16444959685E+03  0.17224562502E+03  0.00000000000E+00 0. -1.
          1    1    6    6  503    0 -0.42969832484E+02  0.17922373808E+03 -0.99400362883E+02  0.20939910921E+03  0.00000000000E+00 0. -1.
         -1    1    6    6    0  503  0.42534860641E+02  0.25826546527E+03 -0.18046253362E+03  0.31792607782E+03  0.00000000000E+00 0.  1.
<mgrwt>
<rscale>  0 0.13791376E+04</rscale>
<asrwt>0</asrwt>
<pdfrwt beam="1">  1        2 0.11855032E+00 0.13791376E+04</pdfrwt>
<pdfrwt beam="2">  1       -1 0.94934872E-01 0.13791376E+04</pdfrwt>
<totfact> 0.43225402E+01</totfact>
</mgrwt>
</event>
<event>
12    6  0.9533401E-008  0.1742387E+04  0.7818608E-02  0.8737552E-01
         -1   -1    0    0    0  501 -0.00000000000E+00  0.00000000000E+00  0.69986439669E+03  0.69986439669E+03  0.00000000000E+00 0.  1.
          2   -1    0    0  501    0  0.00000000000E+00 -0.00000000000E+00 -0.10844646208E+04  0.10844646208E+04  0.00000000000E+00 0. -1.
         24    2    1    2    0    0  0.31943293171E+03 -0.19945749570E+03 -0.66566456789E+03  0.76908880842E+03  0.81040655525E+02 0.  0.
        254    2    1    2    0    0 -0.31943293171E+03  0.19945749570E+03  0.28106434379E+03  0.10152402091E+04  0.89994156826E+03 0.  0.
         23    2    4    4    0    0  0.18697631349E+03  0.17226562921E+03  0.40364881522E+03  0.48537839825E+03  0.89578092456E+02 0.  0.
         23    2    4    4    0    0 -0.50640924519E+03  0.27191866491E+02 -0.12258447142E+03  0.52986181081E+03  0.92395155188E+02 0.  0.
          2    1    3    3  502    0  0.25451486284E+03 -0.17758777362E+03 -0.48416581785E+03  0.57509283765E+03  0.00000000000E+00 0. -1.
         -1    1    3    3    0  502  0.64918068870E+02 -0.21869722084E+02 -0.18149875004E+03  0.19399597077E+03  0.00000000000E+00 0.  1.
         11    1    5    5    0    0  0.11013141474E+03  0.15513148134E+03  0.29955274532E+03  0.35486131410E+03  0.00000000000E+00 0. -1.
        -11    1    5    5    0    0  0.76844898750E+02  0.17134147870E+02  0.10409606990E+03  0.13051708415E+03  0.00000000000E+00 0.  1.
          1    1    6    6  503    0 -0.15741125164E+03 -0.32626399745E+02 -0.26075248854E+02  0.16285792184E+03  0.00000000000E+00 0. -1.
         -1    1    6    6    0  503 -0.34899799355E+03  0.59818266235E+02 -0.96509222571E+02  0.36700388897E+03  0.00000000000E+00 0.  1.
<mgrwt>
<rscale>  0 0.17423871E+04</rscale>
<asrwt>0</asrwt>
<pdfrwt beam="1">  1        2 0.16684071E+00 0.17423871E+04</pdfrwt>
<pdfrwt beam="2">  1       -1 0.10767145E+00 0.17423871E+04</pdfrwt>
<totfact> 0.19344559E+01</totfact>
</mgrwt>
</event>
<event>
12    6  0.9533401E-008  0.1554056E+04  0.7818608E-02  0.8849281E-01
          2   -1    0    0  501    0  0.00000000000E+00  0.00000000000E+00  0.21858439968E+04  0.21858439968E+04  0.00000000000E+00 0. -1.
         -1   -1    0    0    0  501 -0.00000000000E+00 -0.00000000000E+00 -0.27621943537E+03  0.27621943537E+03  0.00000000000E+00 0.  1.
         24    2    1    2    0    0  0.43058813395E+03  0.19012747390E+03  0.33298182950E+03  0.58185907430E+03  0.78284648168E+02 0.  0.
        254    2    1    2    0    0 -0.43058813395E+03 -0.19012747390E+03  0.15766427319E+04  0.18802043579E+04  0.90984148386E+03 0.  0.
         23    2    4    4    0    0  0.18266212298E+03 -0.32956527574E+03  0.56759057232E+03  0.68758288243E+03  0.92910926563E+02 0.  0.
         23    2    4    4    0    0 -0.61325025693E+03  0.13943780184E+03  0.10090521596E+04  0.11926214754E+04  0.92956681576E+02 0.  0.
          4    1    3    3  502    0  0.17951907687E+03  0.92983354058E+02  0.98673499539E+02  0.22496546980E+03  0.00000000000E+00 0. -1.
         -3    1    3    3    0  502  0.25106905708E+03  0.97144119847E+02  0.23430832996E+03  0.35689360450E+03  0.00000000000E+00 0.  1.
         11    1    5    5    0    0  0.16387093907E+03 -0.21545767478E+03  0.42654018454E+03  0.50518533562E+03  0.00000000000E+00 0. -1.
        -11    1    5    5    0    0  0.18791183910E+02 -0.11410760097E+03  0.14105038778E+03  0.18239754682E+03  0.00000000000E+00 0.  1.
          4    1    6    6  503    0 -0.17387876553E+03  0.31294613462E+02  0.21081262511E+03  0.27505479607E+03  0.00000000000E+00 0. -1.
         -4    1    6    6    0  503 -0.43937149140E+03  0.10814318838E+03  0.79823953449E+03  0.91756667936E+03  0.00000000000E+00 0.  1.
<mgrwt>
<rscale>  0 0.15540561E+04</rscale>
<asrwt>0</asrwt>
<pdfrwt beam="1">  1        2 0.33628368E+00 0.15540561E+04</pdfrwt>
<pdfrwt beam="2">  1       -1 0.42495299E-01 0.15540561E+04</pdfrwt>
<totfact> 0.31431571E+01</totfact>
</mgrwt>
</event>
<event>
12    6  0.9533401E-008  0.1430483E+04  0.7818608E-02  0.8932044E-01
          2   -1    0    0  501    0  0.00000000000E+00  0.00000000000E+00  0.27497724111E+04  0.27497724111E+04  0.00000000000E+00 0. -1.
         -1   -1    0    0    0  501 -0.00000000000E+00 -0.00000000000E+00 -0.18604095507E+03  0.18604095507E+03  0.00000000000E+00 0.  1.
         24    2    1    2    0    0 -0.42689716668E+03 -0.41256832201E+02  0.77399702639E+03  0.88843957612E+03  0.79436556095E+02 0.  0.
        254    2    1    2    0    0  0.42689716668E+03  0.41256832201E+02  0.17897344296E+04  0.20473737901E+04  0.89702106465E+03 0.  0.
         23    2    4    4    0    0  0.66160191141E+03  0.21925827047E+02  0.89731437032E+03  0.11198204170E+04  0.10308664325E+03 0.  0.
         23    2    4    4    0    0 -0.23470474473E+03  0.19331005153E+02  0.89242005932E+03  0.92755337308E+03  0.92096105635E+02 0.  0.
          4    1    3    3  502    0 -0.77231444519E+02 -0.13997990066E+02  0.21108780322E+03  0.22520812689E+03  0.00000000000E+00 0. -1.
         -3    1    3    3    0  502 -0.34966572216E+03 -0.27258842134E+02  0.56290922317E+03  0.66323144924E+03  0.00000000000E+00 0.  1.
         11    1    5    5    0    0  0.37190876736E+03  0.11134674435E+02  0.41755686701E+03  0.55927975951E+03  0.00000000000E+00 0. -1.
        -11    1    5    5    0    0  0.28969314405E+03  0.10791152612E+02  0.47975750332E+03  0.56054065747E+03  0.00000000000E+00 0.  1.
          3    1    6    6  503    0 -0.23479086927E+03  0.13451370281E+02  0.77286868653E+03  0.80785747399E+03  0.00000000000E+00 0. -1.
         -3    1    6    6    0  503  0.86124540933E-01  0.58796348728E+01  0.11955137279E+03  0.11969589909E+03  0.00000000000E+00 0.  1.
<mgrwt>
<rscale>  0 0.14304828E+04</rscale>
<asrwt>0</asrwt>
<pdfrwt beam="1">  1        2 0.42304188E+00 0.14304828E+04</pdfrwt>
<pdfrwt beam="2">  1       -1 0.28621687E-01 0.14304828E+04</pdfrwt>
<totfact> 0.30559565E+01</totfact>
</mgrwt>
</event>
<event>
12    6  0.1151747E-007  0.1752626E+04  0.7818608E-02  0.8731906E-01
         -1   -1    0    0    0  501 -0.00000000000E+00  0.00000000000E+00  0.61205859249E+03  0.61205859249E+03  0.00000000000E+00 0.  1.
          2   -1    0    0  501    0  0.00000000000E+00 -0.00000000000E+00 -0.12546580117E+04  0.12546580117E+04  0.00000000000E+00 0. -1.
         24    2    1    2    0    0 -0.21089430537E+03  0.52824164623E+03  0.75460825662E+02  0.57930154220E+03  0.79876753407E+02 0.  0.
        254    2    1    2    0    0  0.21089430537E+03 -0.52824164623E+03 -0.71806024486E+03  0.12874150620E+04  0.90460564983E+03 0.  0.
         23    2    4    4    0    0 -0.11842367406E+03  0.17293230081E+03 -0.21899932934E+01  0.22871370423E+03  0.91517294482E+02 0.  0.
         23    2    4    4    0    0  0.32931797943E+03 -0.70117394704E+03 -0.71587025157E+03  0.10587013578E+04  0.91011604975E+02 0.  0.
          2    1    3    3  502    0 -0.31335742195E+01 -0.25424228134E+01  0.22563749276E+01  0.46232487458E+01  0.00000000000E+00 0. -1.
         -1    1    3    3    0  502 -0.20776073115E+03  0.53078406905E+03  0.73204450735E+02  0.57467829346E+03  0.00000000000E+00 0.  1.
         11    1    5    5    0    0 -0.12663822802E+03  0.15546802605E+03 -0.21185212310E+02  0.20163422611E+03  0.00000000000E+00 0. -1.
        -11    1    5    5    0    0  0.82145539538E+01  0.17464274755E+02  0.18995219017E+02  0.27079478113E+02  0.00000000000E+00 0.  1.
          1    1    6    6  503    0  0.28654343502E+03 -0.53584269136E+03 -0.53025248519E+03  0.80647518752E+03  0.00000000000E+00 0. -1.
         -1    1    6    6    0  503  0.42774544416E+02 -0.16533125568E+03 -0.18561776638E+03  0.25222617023E+03  0.00000000000E+00 0.  1.
<mgrwt>
<rscale>  0 0.17526257E+04</rscale>
<asrwt>0</asrwt>
<pdfrwt beam="1">  1        2 0.19302431E+00 0.17526257E+04</pdfrwt>
<pdfrwt beam="2">  1       -1 0.94162860E-01 0.17526257E+04</pdfrwt>
<totfact> 0.20742902E+01</totfact>
</mgrwt>
</event>
<event>
12    6  0.9533401E-008  0.1839009E+04  0.7818608E-02  0.8685826E-01
         -1   -1    0    0    0  501 -0.00000000000E+00  0.00000000000E+00  0.26412267682E+03  0.26412267682E+03  0.00000000000E+00 0.  1.
          2   -1    0    0  501    0  0.00000000000E+00 -0.00000000000E+00 -0.32011204634E+04  0.32011204634E+04  0.00000000000E+00 0. -1.
         24    2    1    2    0    0  0.45415421503E+02  0.69618830207E+03 -0.11380521552E+04  0.13372585108E+04  0.79730196406E+02 0.  0.
        254    2    1    2    0    0 -0.45415421503E+02 -0.69618830207E+03 -0.17989456314E+04  0.21279846294E+04  0.89742547662E+03 0.  0.
         23    2    4    4    0    0 -0.13205363708E+02 -0.18197139150E+03 -0.15222666970E+04  0.15359803701E+04  0.93015222159E+02 0.  0.
         23    2    4    4    0    0 -0.32210057795E+02 -0.51421691057E+03 -0.27667893433E+03  0.59200425932E+03  0.91985278245E+02 0.  0.
          2    1    3    3  502    0 -0.15203881475E+02  0.86107815502E+02 -0.17478929835E+03  0.19544056058E+03  0.00000000000E+00 0. -1.
         -1    1    3    3    0  502  0.60619302978E+02  0.61008048657E+03 -0.96326285686E+03  0.11418179502E+04  0.00000000000E+00 0.  1.
         11    1    5    5    0    0 -0.55550684037E+01 -0.17340918067E+03 -0.11034656682E+04  0.11170219710E+04  0.00000000000E+00 0.  1.
        -11    1    5    5    0    0 -0.76502953046E+01 -0.85622108314E+01 -0.41880102883E+03  0.41895839916E+03  0.00000000000E+00 0. -1.
          1    1    6    6  503    0 -0.39633144185E+02 -0.48913132994E+03 -0.23824002511E+03  0.54550761096E+03  0.00000000000E+00 0. -1.
         -1    1    6    6    0  503  0.74230863902E+01 -0.25085580624E+02 -0.38438909218E+02  0.46496648359E+02  0.00000000000E+00 0.  1.
<mgrwt>
<rscale>  0 0.18390090E+04</rscale>
<asrwt>0</asrwt>
<pdfrwt beam="1">  1        2 0.49248009E+00 0.18390090E+04</pdfrwt>
<pdfrwt beam="2">  1       -1 0.40634256E-01 0.18390090E+04</pdfrwt>
<totfact> 0.82484603E+00</totfact>
</mgrwt>
</event>
<event>
12    6  0.9533401E-008  0.1681708E+04  0.7818608E-02  0.8771866E-01
         -1   -1    0    0    0  501 -0.00000000000E+00  0.00000000000E+00  0.12991487434E+04  0.12991487434E+04  0.00000000000E+00 0.  1.
          2   -1    0    0  501    0  0.00000000000E+00 -0.00000000000E+00 -0.54422961638E+03  0.54422961638E+03  0.00000000000E+00 0. -1.
         24    2    1    2    0    0  0.16814047946E+03 -0.36396754269E+03 -0.22071878505E+03  0.46381046949E+03  0.75231486549E+02 0.  0.
        254    2    1    2    0    0 -0.16814047946E+03  0.36396754269E+03  0.97563791205E+03  0.13795678903E+04  0.88915388739E+03 0.  0.
         23    2    4    4    0    0 -0.43647501014E+03  0.27846021091E+03  0.22427376820E+03  0.57191641851E+03  0.93483384210E+02 0.  0.
         23    2    4    4    0    0  0.26833453067E+03  0.85507331775E+02  0.75136414386E+03  0.80765147176E+03  0.91858037366E+02 0.  0.
          2    1    3    3  502    0  0.11972399236E+03 -0.18008558696E+03 -0.97401225916E+02  0.23717430676E+03  0.00000000000E+00 0. -1.
         -1    1    3    3    0  502  0.48416487108E+02 -0.18388195573E+03 -0.12331755913E+03  0.22663616273E+03  0.00000000000E+00 0.  1.
         11    1    5    5    0    0 -0.18256014611E+03  0.12801486823E+03  0.14619433610E+03  0.26662482507E+03  0.00000000000E+00 0.  1.
        -11    1    5    5    0    0 -0.25391486402E+03  0.15044534268E+03  0.78079432097E+02  0.30529159344E+03  0.00000000000E+00 0. -1.
          4    1    6    6  503    0  0.21052673146E+03  0.10158970365E+03  0.63635965893E+03  0.67793479632E+03  0.00000000000E+00 0. -1.
         -4    1    6    6    0  503  0.57807799208E+02 -0.16082371877E+02  0.11500448493E+03  0.12971667544E+03  0.00000000000E+00 0.  1.
<mgrwt>
<rscale>  0 0.16817077E+04</rscale>
<asrwt>0</asrwt>
<pdfrwt beam="1">  1        2 0.83727633E-01 0.16817077E+04</pdfrwt>
<pdfrwt beam="2">  1       -1 0.19986904E+00 0.16817077E+04</pdfrwt>
<totfact> 0.91532021E+00</totfact>
</mgrwt>
</event>
<event>
12    6  0.9533401E-008  0.1555245E+04  0.7818608E-02  0.8848524E-01
         -1   -1    0    0    0  501 -0.00000000000E+00  0.00000000000E+00  0.16328553689E+04  0.16328553689E+04  0.00000000000E+00 0.  1.
          2   -1    0    0  501    0  0.00000000000E+00 -0.00000000000E+00 -0.37033102050E+03  0.37033102050E+03  0.00000000000E+00 0. -1.
         24    2    1    2    0    0 -0.46466867035E+03 -0.14529906916E+03  0.27362512100E+03  0.56415440257E+03  0.79816604744E+02 0.  0.
        254    2    1    2    0    0  0.46466867035E+03  0.14529906916E+03  0.98889922742E+03  0.14390319868E+04  0.92512841512E+03 0.  0.
         23    2    4    4    0    0  0.63891186783E+03 -0.16062988624E+03  0.75373505291E+03  0.10056582421E+04  0.96029342455E+02 0.  0.
         23    2    4    4    0    0 -0.17424319748E+03  0.30592895540E+03  0.23516417452E+03  0.43337374480E+03  0.92506194830E+02 0.  0.
          4    1    3    3  502    0 -0.38593617539E+03 -0.13301719845E+03  0.25811646360E+03  0.48297454937E+03  0.00000000000E+00 0. -1.
         -3    1    3    3    0  502 -0.78732494959E+02 -0.12281870710E+02  0.15508657393E+02  0.81179853195E+02  0.00000000000E+00 0.  1.
         11    1    5    5    0    0  0.70895961455E+01  0.86278921677E+01  0.18189224725E+02  0.21343635887E+02  0.00000000000E+00 0. -1.
        -11    1    5    5    0    0  0.63182227169E+03 -0.16925777840E+03  0.73554582818E+03  0.98431460616E+03  0.00000000000E+00 0.  1.
          4    1    6    6  503    0 -0.14130006885E+03  0.19293915580E+03  0.19640667781E+03  0.30946213078E+03  0.00000000000E+00 0. -1.
         -4    1    6    6    0  503 -0.32943128632E+02  0.11298979960E+03  0.38757496706E+02  0.12391161401E+03  0.00000000000E+00 0.  1.
<mgrwt>
<rscale>  0 0.15552453E+04</rscale>
<asrwt>0</asrwt>
<pdfrwt beam="1">  1        2 0.56974004E-01 0.15552453E+04</pdfrwt>
<pdfrwt beam="2">  1       -1 0.25120851E+00 0.15552453E+04</pdfrwt>
<totfact> 0.65406772E+00</totfact>
</mgrwt>
</event>
<event>
12    6  0.9533401E-008  0.1769957E+04  0.7818608E-02  0.8722441E-01
          2   -1    0    0  501    0  0.00000000000E+00  0.00000000000E+00  0.60796610929E+03  0.60796610929E+03  0.00000000000E+00 0. -1.
         -1   -1    0    0    0  501 -0.00000000000E+00 -0.00000000000E+00 -0.12882076432E+04  0.12882076432E+04  0.00000000000E+00 0.  1.
         24    2    1    2    0    0 -0.16438160620E+03 -0.21945550373E+03  0.37814488507E+03  0.47000670061E+03  0.52256233519E+02 0.  0.
        254    2    1    2    0    0  0.16438160620E+03  0.21945550373E+03 -0.10583864190E+04  0.14261670519E+04  0.91574484297E+03 0.  0.
         23    2    4    4    0    0  0.94334040545E+02  0.21159348194E+02 -0.11656310696E+04  0.11736813124E+04  0.97393036035E+02 0.  0.
         23    2    4    4    0    0  0.70047565659E+02  0.19829615553E+03  0.10724465058E+03  0.25248573950E+03  0.89552257467E+02 0.  0.
          4    1    3    3  502    0 -0.11372773288E+03 -0.13001660300E+03  0.27228398157E+03  0.32245446330E+03  0.00000000000E+00 0. -1.
         -1    1    3    3    0  502 -0.50653873319E+02 -0.89438900734E+02  0.10586090350E+03  0.14755223731E+03  0.00000000000E+00 0.  1.
         11    1    5    5    0    0  0.22868238575E+02 -0.19980979196E+02 -0.70994529494E+03  0.71059448188E+03  0.00000000000E+00 0.  1.
        -11    1    5    5    0    0  0.71465801970E+02  0.41140327390E+02 -0.45568577466E+03  0.46308683054E+03  0.00000000000E+00 0. -1.
          3    1    6    6  503    0  0.14632879409E+02  0.68464048399E+02  0.84117159676E+02  0.10944013722E+03  0.00000000000E+00 0. -1.
         -3    1    6    6    0  503  0.55414686250E+02  0.12983210714E+03  0.23127490906E+02  0.14304560228E+03  0.00000000000E+00 0.  1.
<mgrwt>
<rscale>  0 0.17699566E+04</rscale>
<asrwt>0</asrwt>
<pdfrwt beam="1">  1        2 0.93533248E-01 0.17699566E+04</pdfrwt>
<pdfrwt beam="2">  1       -1 0.19818579E+00 0.17699566E+04</pdfrwt>
<totfact> 0.81719630E+00</totfact>
</mgrwt>
</event>
<event>
12    6  0.9533401E-008  0.1059516E+04  0.7818608E-02  0.9245574E-01
         -1   -1    0    0    0  501 -0.00000000000E+00  0.00000000000E+00  0.17256325549E+03  0.17256325549E+03  0.00000000000E+00 0.  1.
          2   -1    0    0  501    0  0.00000000000E+00 -0.00000000000E+00 -0.16263238038E+04  0.16263238038E+04  0.00000000000E+00 0. -1.
         24    2    1    2    0    0  0.68136624075E+00  0.61135120036E+02 -0.13562680071E+02  0.10120190877E+03  0.79497879760E+02 0.  0.
        254    2    1    2    0    0 -0.68136624075E+00 -0.61135120036E+02 -0.14401978682E+04  0.16976851505E+04  0.89678704466E+03 0.  0.
         23    2    4    4    0    0 -0.34131802781E+03  0.14783621225E+03 -0.30143687633E+03  0.48736507455E+03  0.91142655869E+02 0.  0.
         23    2    4    4    0    0  0.34063666157E+03 -0.20897133228E+03 -0.11387609919E+04  0.12103200759E+04  0.91628252697E+02 0.  0.
          4    1    3    3  502    0 -0.20053547543E+02 -0.20649891792E+00 -0.28405167332E+02  0.34771266040E+02  0.00000000000E+00 0. -1.
         -3    1    3    3    0  502  0.20734913784E+02  0.61341618954E+02  0.14842487261E+02  0.66430642730E+02  0.00000000000E+00 0.  1.
         11    1    5    5    0    0 -0.31434180125E+03  0.10465537842E+03 -0.27118495235E+03  0.42814109196E+03  0.00000000000E+00 0. -1.
        -11    1    5    5    0    0 -0.26976226566E+02  0.43180833824E+02 -0.30251923985E+02  0.59223982593E+02  0.00000000000E+00 0.  1.
          4    1    6    6  503    0  0.27740074075E+03 -0.12470161860E+03 -0.87122052535E+03  0.92278213487E+03  0.00000000000E+00 0. -1.
         -4    1    6    6    0  503  0.63235920824E+02 -0.84269713684E+02 -0.26754046652E+03  0.28753794107E+03  0.00000000000E+00 0.  1.
<mgrwt>
<rscale>  0 0.10595164E+04</rscale>
<asrwt>0</asrwt>
<pdfrwt beam="1">  1        2 0.25020368E+00 0.10595164E+04</pdfrwt>
<pdfrwt beam="2">  1       -1 0.26548192E-01 0.10595164E+04</pdfrwt>
<totfact> 0.15431004E+02</totfact>
</mgrwt>
</event>
<event>
12    6  0.9533401E-008  0.3088021E+04  0.7818608E-02  0.8219033E-01
          2   -1    0    0  501    0  0.00000000000E+00  0.00000000000E+00  0.46814640645E+04  0.46814640645E+04  0.00000000000E+00 0. -1.
         -1   -1    0    0    0  501 -0.00000000000E+00 -0.00000000000E+00 -0.50923560328E+03  0.50923560328E+03  0.00000000000E+00 0.  1.
         24    2    1    2    0    0 -0.12067740228E+04 -0.28694996850E+03  0.77360532414E+03  0.14644771515E+04  0.87087905645E+02 0.  0.
        254    2    1    2    0    0  0.12067740228E+04  0.28694996850E+03  0.33986231371E+04  0.37262225162E+04  0.89188070168E+03 0.  0.
         23    2    4    4    0    0  0.10293569061E+04  0.38729023936E+03  0.17954633642E+04  0.21073821095E+04  0.88324933649E+02 0.  0.
         23    2    4    4    0    0  0.17741711674E+03 -0.10034027085E+03  0.16031597729E+04  0.16188404067E+04  0.94752317278E+02 0.  0.
          4    1    3    3  502    0 -0.27345813882E+03 -0.57832917179E+02  0.13321193075E+03  0.30962787099E+03  0.00000000000E+00 0. -1.
         -3    1    3    3    0  502 -0.93331588398E+03 -0.22911705132E+03  0.64039339339E+03  0.11548492806E+04  0.00000000000E+00 0.  1.
         11    1    5    5    0    0  0.67725879888E+03  0.21078391224E+03  0.11360649614E+04  0.13393106193E+04  0.00000000000E+00 0. -1.
        -11    1    5    5    0    0  0.35209810719E+03  0.17650632712E+03  0.65939840272E+03  0.76807149023E+03  0.00000000000E+00 0.  1.
          4    1    6    6  503    0  0.65517810027E+02 -0.67678423537E+02  0.10066488651E+04  0.10110464331E+04  0.00000000000E+00 0. -1.
         -4    1    6    6    0  503  0.11189930671E+03 -0.32661847318E+02  0.59651090789E+03  0.60779397360E+03  0.00000000000E+00 0.  1.
<mgrwt>
<rscale>  0 0.30880208E+04</rscale>
<asrwt>0</asrwt>
<pdfrwt beam="1">  1        2 0.72022521E+00 0.30880208E+04</pdfrwt>
<pdfrwt beam="2">  1       -1 0.78343942E-01 0.30880208E+04</pdfrwt>
<totfact> 0.12623603E-01</totfact>
</mgrwt>
</event>
<event>
12    6  0.9533401E-008  0.2107642E+04  0.7818608E-02  0.8557884E-01
          2   -1    0    0  501    0  0.00000000000E+00  0.00000000000E+00  0.20679056129E+04  0.20679056129E+04  0.00000000000E+00 0. -1.
         -1   -1    0    0    0  501 -0.00000000000E+00 -0.00000000000E+00 -0.53703573537E+03  0.53703573537E+03  0.00000000000E+00 0.  1.
         24    2    1    2    0    0 -0.49459487263E+03  0.57213764861E+03  0.11450036815E+04  0.13745095055E+04  0.79229874313E+02 0.  0.
        254    2    1    2    0    0  0.49459487263E+03 -0.57213764861E+03  0.38586619609E+03  0.12304318429E+04  0.89056399077E+03 0.  0.
         23    2    4    4    0    0  0.14686224307E+03 -0.57222853808E+03  0.57060240965E+03  0.82673819833E+03  0.94312885860E+02 0.  0.
         23    2    4    4    0    0  0.34773262956E+03  0.90889468291E-01 -0.18473621355E+03  0.40369364454E+03  0.89011797677E+02 0.  0.
          4    1    3    3  502    0 -0.23026210700E+03  0.32448194954E+03  0.57943843384E+03  0.70289264622E+03  0.00000000000E+00 0. -1.
         -3    1    3    3    0  502 -0.26433276563E+03  0.24765569907E+03  0.56556524764E+03  0.67161685924E+03  0.00000000000E+00 0.  1.
         11    1    5    5    0    0  0.15175895275E+03 -0.55573088661E+03  0.53064115363E+03  0.78322897801E+03  0.00000000000E+00 0. -1.
        -11    1    5    5    0    0 -0.48967096755E+01 -0.16497651472E+02  0.39961256022E+02  0.43509220317E+02  0.00000000000E+00 0.  1.
          1    1    6    6  503    0  0.28784893346E+03  0.31838547541E+02 -0.16398709776E+03  0.33280996054E+03  0.00000000000E+00 0. -1.
         -1    1    6    6    0  503  0.59883696101E+02 -0.31747658073E+02 -0.20749115796E+02  0.70883684005E+02  0.00000000000E+00 0.  1.
<mgrwt>
<rscale>  0 0.21076425E+04</rscale>
<asrwt>0</asrwt>
<pdfrwt beam="1">  1        2 0.31813932E+00 0.21076425E+04</pdfrwt>
<pdfrwt beam="2">  1       -1 0.82620883E-01 0.21076425E+04</pdfrwt>
<totfact> 0.93451973E+00</totfact>
</mgrwt>
</event>
<event>
12    6  0.9533401E-008  0.1616281E+04  0.7818608E-02  0.8810608E-01
          2   -1    0    0  501    0  0.00000000000E+00  0.00000000000E+00  0.29565131916E+04  0.29565131916E+04  0.00000000000E+00 0. -1.
         -1   -1    0    0    0  501 -0.00000000000E+00 -0.00000000000E+00 -0.22089911546E+03  0.22089911546E+03  0.00000000000E+00 0.  1.
         24    2    1    2    0    0  0.53015701272E+03 -0.57878863117E+02  0.64684304695E+03  0.84155219167E+03  0.73401246423E+02 0.  0.
        254    2    1    2    0    0 -0.53015701272E+03  0.57878863117E+02  0.20887710291E+04  0.23358601153E+04  0.89936735838E+03 0.  0.
         23    2    4    4    0    0 -0.69546913712E+02 -0.36639371712E+03  0.54310529126E+03  0.66558210513E+03  0.94631137198E+02 0.  0.
         23    2    4    4    0    0 -0.46061009901E+03  0.42427258024E+03  0.15456657379E+04  0.16702780102E+04  0.92613025370E+02 0.  0.
          2    1    3    3  502    0  0.37092300346E+02 -0.14724672957E+02  0.26294563092E+02  0.47791827616E+02  0.00000000000E+00 0. -1.
         -1    1    3    3    0  502  0.49306471237E+03 -0.43154190160E+02  0.62054848386E+03  0.79376036405E+03  0.00000000000E+00 0.  1.
         11    1    5    5    0    0 -0.84320208512E+01 -0.18074964510E+03  0.33050357992E+03  0.37679457204E+03  0.00000000000E+00 0.  1.
        -11    1    5    5    0    0 -0.61114892861E+02 -0.18564407202E+03  0.21260171134E+03  0.28878753309E+03  0.00000000000E+00 0. -1.
          2    1    6    6  503    0 -0.11150898514E+03  0.69244197144E+02  0.40315103340E+03  0.42398085846E+03  0.00000000000E+00 0. -1.
         -2    1    6    6    0  503 -0.34910111386E+03  0.35502838309E+03  0.11425147045E+04  0.12462971518E+04  0.00000000000E+00 0.  1.
<mgrwt>
<rscale>  0 0.16162811E+04</rscale>
<asrwt>0</asrwt>
<pdfrwt beam="1">  1        2 0.45484815E+00 0.16162811E+04</pdfrwt>
<pdfrwt beam="2">  1       -1 0.33984481E-01 0.16162811E+04</pdfrwt>
<totfact> 0.16624479E+01</totfact>
</mgrwt>
</event>
<event>
12    6  0.9533401E-008  0.1388454E+04  0.7818608E-02  0.8962219E-01
         -1   -1    0    0    0  501 -0.00000000000E+00  0.00000000000E+00  0.24187366553E+03  0.24187366553E+03  0.00000000000E+00 0.  1.
          2   -1    0    0  501    0  0.00000000000E+00 -0.00000000000E+00 -0.19925736519E+04  0.19925736519E+04  0.00000000000E+00 0. -1.
         24    2    1    2    0    0 -0.11475959396E+03 -0.19840735608E+03 -0.10273732246E+04  0.10556751321E+04  0.80118652703E+02 0.  0.
        254    2    1    2    0    0  0.11475959396E+03  0.19840735608E+03 -0.72332676179E+03  0.11787721854E+04  0.90209035984E+03 0.  0.
         23    2    4    4    0    0  0.30892348717E+03 -0.26606546878E+03 -0.29202712478E+03  0.50962023871E+03  0.90600173806E+02 0.  0.
         23    2    4    4    0    0 -0.19416389322E+03  0.46447282486E+03 -0.43129963700E+03  0.66915194665E+03  0.91161002415E+02 0.  0.
          4    1    3    3  502    0 -0.15322470459E+02 -0.10584617665E+03 -0.44913693446E+03  0.46169489612E+03  0.00000000000E+00 0. -1.
         -3    1    3    3    0  502 -0.99437123499E+02 -0.92561179428E+02 -0.57823629013E+03  0.59398023594E+03  0.00000000000E+00 0.  1.
         11    1    5    5    0    0 -0.40427656205E+01 -0.15543672353E+02 -0.17457309956E+02  0.23721453897E+02  0.00000000000E+00 0.  1.
        -11    1    5    5    0    0  0.31296625279E+03 -0.25052179643E+03 -0.27456981483E+03  0.48589878482E+03  0.00000000000E+00 0. -1.
          3    1    6    6  503    0 -0.49015703448E+02  0.81940533877E+02 -0.12876770082E+03  0.16030568003E+03  0.00000000000E+00 0. -1.
         -3    1    6    6    0  503 -0.14514818977E+03  0.38253229098E+03 -0.30253193619E+03  0.50884626662E+03  0.00000000000E+00 0.  1.
<mgrwt>
<rscale>  0 0.13884540E+04</rscale>
<asrwt>0</asrwt>
<pdfrwt beam="1">  1        2 0.30654978E+00 0.13884540E+04</pdfrwt>
<pdfrwt beam="2">  1       -1 0.37211335E-01 0.13884540E+04</pdfrwt>
<totfact> 0.52035903E+01</totfact>
</mgrwt>
</event>
<event>
12    6  0.9533401E-008  0.1281684E+04  0.7818608E-02  0.9044217E-01
         -1   -1    0    0    0  501 -0.00000000000E+00  0.00000000000E+00  0.34403821390E+03  0.34403821390E+03  0.00000000000E+00 0.  1.
          2   -1    0    0  501    0  0.00000000000E+00 -0.00000000000E+00 -0.11937007783E+04  0.11937007783E+04  0.00000000000E+00 0. -1.
         24    2    1    2    0    0  0.16767801903E+03 -0.24854642722E+03 -0.95249211953E+02  0.32440033848E+03  0.79195471340E+02 0.  0.
        254    2    1    2    0    0 -0.16767801903E+03  0.24854642722E+03 -0.75441335245E+03  0.12133386537E+04  0.90175381212E+03 0.  0.
         23    2    4    4    0    0 -0.22645022552E+03  0.55462183575E+03 -0.36910108529E+03  0.70966251576E+03  0.92196473868E+02 0.  0.
         23    2    4    4    0    0  0.58772206484E+02 -0.30607540853E+03 -0.38531226717E+03  0.50367613795E+03  0.89932089638E+02 0.  0.
          4    1    3    3  502    0  0.35159012260E+02 -0.16292267779E+02 -0.30390168589E+02  0.49245877791E+02  0.00000000000E+00 0. -1.
         -3    1    3    3    0  502  0.13251900677E+03 -0.23225415944E+03 -0.64859043364E+02  0.27515446069E+03  0.00000000000E+00 0.  1.
         11    1    5    5    0    0 -0.78072627720E+02  0.10134170037E+03 -0.97108738968E+02  0.16061003274E+03  0.00000000000E+00 0. -1.
        -11    1    5    5    0    0 -0.14837759780E+03  0.45328013538E+03 -0.27199234632E+03  0.54905248302E+03  0.00000000000E+00 0.  1.
          4    1    6    6  503    0  0.57404845316E+02 -0.27938245488E+03 -0.38201655586E+03  0.47674576171E+03  0.00000000000E+00 0.  1.
         -4    1    6    6    0  503  0.13673611688E+01 -0.26692953654E+02 -0.32957113102E+01  0.26930376239E+02  0.00000000000E+00 0. -1.
<mgrwt>
<rscale>  0 0.12816843E+04</rscale>
<asrwt>0</asrwt>
<pdfrwt beam="1">  1        2 0.18364627E+00 0.12816843E+04</pdfrwt>
<pdfrwt beam="2">  1       -1 0.52928957E-01 0.12816843E+04</pdfrwt>
<totfact> 0.76921274E+01</totfact>
</mgrwt>
</event>
<event>
12    6  0.9533401E-008  0.1355260E+04  0.7818608E-02  0.8986856E-01
         -1   -1    0    0    0  501 -0.00000000000E+00  0.00000000000E+00  0.34260740461E+03  0.34260740461E+03  0.00000000000E+00 0.  1.
          2   -1    0    0  501    0  0.00000000000E+00 -0.00000000000E+00 -0.13402579444E+04  0.13402579444E+04  0.00000000000E+00 0. -1.
         24    2    1    2    0    0 -0.23173261963E+03 -0.93680018826E+02 -0.61425330359E+03  0.66800081102E+03  0.80262130733E+02 0.  0.
        254    2    1    2    0    0  0.23173261963E+03  0.93680018826E+02 -0.38339723621E+03  0.10148645380E+04  0.90580386222E+03 0.  0.
         23    2    4    4    0    0 -0.14325000421E+03 -0.27065235759E+03 -0.36381492382E+03  0.48426180724E+03  0.91514680708E+02 0.  0.
         23    2    4    4    0    0  0.37498262385E+03  0.36433237641E+03 -0.19582312394E+02  0.53060273075E+03  0.88350111665E+02 0.  0.
          2    1    3    3  502    0 -0.23824875162E+03 -0.88550709262E+02 -0.59715891604E+03  0.64900113002E+03  0.00000000000E+00 0. -1.
         -1    1    3    3    0  502  0.65161319855E+01 -0.51293095642E+01 -0.17094387546E+02  0.18999681004E+02  0.00000000000E+00 0.  1.
         11    1    5    5    0    0 -0.14647266743E+03 -0.27597266580E+03 -0.35032470006E+03  0.46940659352E+03  0.00000000000E+00 0. -1.
        -11    1    5    5    0    0  0.32226632120E+01  0.53203082083E+01 -0.13490223762E+02  0.14855213723E+02  0.00000000000E+00 0.  1.
          3    1    6    6  503    0  0.18076176197E+03  0.14865387958E+03  0.30696819158E+02  0.23604043130E+03  0.00000000000E+00 0. -1.
         -3    1    6    6    0  503  0.19422086188E+03  0.21567849684E+03 -0.50279131552E+02  0.29456229945E+03  0.00000000000E+00 0.  1.
<mgrwt>
<rscale>  0 0.13552598E+04</rscale>
<asrwt>0</asrwt>
<pdfrwt beam="1">  1        2 0.20619353E+00 0.13552598E+04</pdfrwt>
<pdfrwt beam="2">  1       -1 0.52708832E-01 0.13552598E+04</pdfrwt>
<totfact> 0.63232333E+01</totfact>
</mgrwt>
</event>
<event>
12    6  0.9533401E-008  0.2375954E+04  0.7818608E-02  0.8448561E-01
         -1   -1    0    0    0  501 -0.00000000000E+00  0.00000000000E+00  0.96328918364E+03  0.96328918364E+03  0.00000000000E+00 0.  1.
          2   -1    0    0  501    0  0.00000000000E+00 -0.00000000000E+00 -0.14650733327E+04  0.14650733327E+04  0.00000000000E+00 0. -1.
         24    2    1    2    0    0  0.54097256440E+01 -0.94609883623E+03 -0.57810105282E+03  0.11117659759E+04  0.81795384358E+02 0.  0.
        254    2    1    2    0    0 -0.54097256440E+01  0.94609883623E+03  0.76316903794E+02  0.13165965404E+04  0.91239788870E+03 0.  0.
         23    2    4    4    0    0 -0.31028162747E+03  0.12620106718E+03 -0.19248059606E+03  0.39691055447E+03  0.91037413679E+02 0.  0.
         23    2    4    4    0    0  0.30487190183E+03  0.81989776905E+03  0.26879749986E+03  0.91968598591E+03  0.91602339133E+02 0.  0.
          4    1    3    3  502    0  0.26350223127E+02 -0.87714068567E+03 -0.53151974977E+03  0.10259548534E+04  0.00000000000E+00 0. -1.
         -3    1    3    3    0  502 -0.20940497483E+02 -0.68958150556E+02 -0.46581303053E+02  0.85811122572E+02  0.00000000000E+00 0.  1.
         11    1    5    5    0    0 -0.23294478530E+03  0.79023181809E+02 -0.18141584580E+03  0.30564627491E+03  0.00000000000E+00 0. -1.
        -11    1    5    5    0    0 -0.77336842173E+02  0.47177885371E+02 -0.11064750261E+02  0.91264279560E+02  0.00000000000E+00 0.  1.
          2    1    6    6  503    0  0.28531754577E+03  0.70562837904E+03  0.25611267341E+03  0.80306364175E+03  0.00000000000E+00 0. -1.
         -2    1    6    6    0  503  0.19554356057E+02  0.11426939001E+03  0.12684826451E+02  0.11662234416E+03  0.00000000000E+00 0.  1.
<mgrwt>
<rscale>  0 0.23759540E+04</rscale>
<asrwt>0</asrwt>
<pdfrwt beam="1">  1        2 0.22539590E+00 0.23759540E+04</pdfrwt>
<pdfrwt beam="2">  1       -1 0.14819834E+00 0.23759540E+04</pdfrwt>
<totfact> 0.49152612E+00</totfact>
</mgrwt>
</event>
<event>
12    6  0.9533401E-008  0.1985453E+04  0.7818608E-02  0.8613452E-01
         -1   -1    0    0    0  501 -0.00000000000E+00  0.00000000000E+00  0.50560897670E+03  0.50560897670E+03  0.00000000000E+00 0.  1.
          2   -1    0    0  501    0  0.00000000000E+00 -0.00000000000E+00 -0.19491456937E+04  0.19491456937E+04  0.00000000000E+00 0. -1.
         24    2    1    2    0    0  0.65802704172E+03 -0.10162695960E+02 -0.10991492276E+04  0.12837642645E+04  0.82575991583E+02 0.  0.
        254    2    1    2    0    0 -0.65802704172E+03  0.10162695960E+02 -0.34438748946E+03  0.11709904059E+04  0.90526952881E+03 0.  0.
         23    2    4    4    0    0  0.16756650803E+03 -0.15308224696E+03 -0.19278321436E+03  0.31081037621E+03  0.89022543608E+02 0.  0.
         23    2    4    4    0    0 -0.82559354975E+03  0.16324494292E+03 -0.15160427509E+03  0.86018002969E+03  0.93124682404E+02 0.  0.
          4    1    3    3  502    0  0.58559661530E+03  0.16068080735E+02 -0.98544763535E+03  0.11464242762E+04  0.00000000000E+00 0. -1.
         -3    1    3    3    0  502  0.72430426417E+02 -0.26230776695E+02 -0.11370159222E+03  0.13733998832E+03  0.00000000000E+00 0.  1.
         11    1    5    5    0    0  0.84150296529E+02 -0.55668137209E+02 -0.33498722863E+02  0.10631264431E+03  0.00000000000E+00 0. -1.
        -11    1    5    5    0    0  0.83416211503E+02 -0.97414109755E+02 -0.15928449150E+03  0.20449773190E+03  0.00000000000E+00 0.  1.
          3    1    6    6  503    0 -0.32741629291E+03  0.11137711491E+03 -0.60759302621E+02  0.35113812588E+03  0.00000000000E+00 0. -1.
         -3    1    6    6    0  503 -0.49817725684E+03  0.51867828012E+02 -0.90844972470E+02  0.50904190381E+03  0.00000000000E+00 0.  1.
<mgrwt>
<rscale>  0 0.19854527E+04</rscale>
<asrwt>0</asrwt>
<pdfrwt beam="1">  1        2 0.29986857E+00 0.19854527E+04</pdfrwt>
<pdfrwt beam="2">  1       -1 0.77785997E-01 0.19854527E+04</pdfrwt>
<totfact> 0.12503822E+01</totfact>
</mgrwt>
</event>
<event>
12    6  0.9533401E-008  0.2119576E+04  0.7818608E-02  0.8552669E-01
         -1   -1    0    0    0  501 -0.00000000000E+00  0.00000000000E+00  0.48982411544E+03  0.48982411544E+03  0.00000000000E+00 0.  1.
          2   -1    0    0  501    0  0.00000000000E+00 -0.00000000000E+00 -0.22929670916E+04  0.22929670916E+04  0.00000000000E+00 0. -1.
         24    2    1    2    0    0  0.77454570947E+03  0.36920315499E+03 -0.65781874442E+03  0.10843202105E+04  0.82418400027E+02 0.  0.
        254    2    1    2    0    0 -0.77454570947E+03 -0.36920315499E+03 -0.11453242318E+04  0.16984709966E+04  0.91476997358E+03 0.  0.
         23    2    4    4    0    0 -0.89254693426E+03 -0.20761524639E+03 -0.57127531552E+03  0.10837966163E+04  0.92279461815E+02 0.  0.
         23    2    4    4    0    0  0.11800122478E+03 -0.16158790860E+03 -0.57404891624E+03  0.61467438022E+03  0.90870755503E+02 0.  0.
          2    1    3    3  502    0  0.57668088904E+03  0.26896906481E+03 -0.44141792600E+03  0.77443850047E+03  0.00000000000E+00 0. -1.
         -1    1    3    3    0  502  0.19786482043E+03  0.10023409018E+03 -0.21640081842E+03  0.30988171003E+03  0.00000000000E+00 0.  1.
         11    1    5    5    0    0 -0.36211309979E+03 -0.10020319102E+03 -0.18436980490E+03  0.41851977431E+03  0.00000000000E+00 0.  1.
        -11    1    5    5    0    0 -0.53043383447E+03 -0.10741205537E+03 -0.38690551062E+03  0.66527684203E+03  0.00000000000E+00 0. -1.
          1    1    6    6  503    0  0.66191405585E+02 -0.92183698242E+02 -0.19288127563E+03  0.22379080160E+03  0.00000000000E+00 0. -1.
         -1    1    6    6    0  503  0.51809819200E+02 -0.69404210355E+02 -0.38116764062E+03  0.39088357862E+03  0.00000000000E+00 0.  1.
<mgrwt>
<rscale>  0 0.21195760E+04</rscale>
<asrwt>0</asrwt>
<pdfrwt beam="1">  1        2 0.35276417E+00 0.21195760E+04</pdfrwt>
<pdfrwt beam="2">  1       -1 0.75357557E-01 0.21195760E+04</pdfrwt>
<totfact> 0.84819009E+00</totfact>
</mgrwt>
</event>
<event>
12    6  0.9533401E-008  0.2369634E+04  0.7818608E-02  0.8450960E-01
          2   -1    0    0  501    0  0.00000000000E+00  0.00000000000E+00  0.19800210967E+04  0.19800210967E+04  0.00000000000E+00 0. -1.
         -1   -1    0    0    0  501 -0.00000000000E+00 -0.00000000000E+00 -0.70897811840E+03  0.70897811840E+03  0.00000000000E+00 0.  1.
         24    2    1    2    0    0 -0.79416256971E+03  0.16347462801E+02 -0.16878058793E+03  0.81609517691E+03  0.81012494368E+02 0.  0.
        254    2    1    2    0    0  0.79416256971E+03 -0.16347462801E+02  0.14398235663E+04  0.18729040382E+04  0.89650220732E+03 0.  0.
         23    2    4    4    0    0 -0.41051630687E+02 -0.12261863564E+03 -0.44043929599E+02  0.16447265831E+03  0.91601426882E+02 0.  0.
         23    2    4    4    0    0  0.83521420040E+03  0.10627117284E+03  0.14838674959E+04  0.17084313799E+04  0.89435517937E+02 0.  0.
          2    1    3    3  502    0 -0.13094452235E+03  0.32941512036E+02 -0.28014507059E+02  0.13790004987E+03  0.00000000000E+00 0. -1.
         -1    1    3    3    0  502 -0.66321804736E+03 -0.16594049236E+02 -0.14076608088E+03  0.67819512704E+03  0.00000000000E+00 0.  1.
         11    1    5    5    0    0 -0.24313166093E+02 -0.74535537707E+02 -0.71951114960E+02  0.10641259028E+03  0.00000000000E+00 0.  1.
        -11    1    5    5    0    0 -0.16738464594E+02 -0.48083097937E+02  0.27907185361E+02  0.58060068024E+02  0.00000000000E+00 0. -1.
          1    1    6    6  503    0  0.45658835450E+01  0.43308717169E+01  0.20421001349E+01  0.66161858601E+01  0.00000000000E+00 0. -1.
         -1    1    6    6    0  503  0.83064831685E+03  0.10194030113E+03  0.14818253957E+04  0.17018151940E+04  0.00000000000E+00 0.  1.
<mgrwt>
<rscale>  0 0.23696343E+04</rscale>
<asrwt>0</asrwt>
<pdfrwt beam="1">  1        2 0.30461863E+00 0.23696343E+04</pdfrwt>
<pdfrwt beam="2">  1       -1 0.10907356E+00 0.23696343E+04</pdfrwt>
<totfact> 0.54748753E+00</totfact>
</mgrwt>
</event>
<event>
12    6  0.9533401E-008  0.2146289E+04  0.7818608E-02  0.8541123E-01
         -1   -1    0    0    0  501 -0.00000000000E+00  0.00000000000E+00  0.65240571599E+03  0.65240571599E+03  0.00000000000E+00 0.  1.
          2   -1    0    0  501    0  0.00000000000E+00 -0.00000000000E+00 -0.17652185113E+04  0.17652185113E+04  0.00000000000E+00 0. -1.
         24    2    1    2    0    0  0.38552614656E+03  0.19802399311E+03 -0.13281541564E+04  0.13992992094E+04  0.78745810034E+02 0.  0.
        254    2    1    2    0    0 -0.38552614656E+03 -0.19802399311E+03  0.21534136108E+03  0.10183250179E+04  0.89597434609E+03 0.  0.
         23    2    4    4    0    0 -0.37224697797E+03 -0.49783628893E+03  0.29440448718E+03  0.69498171165E+03  0.99583102368E+02 0.  0.
         23    2    4    4    0    0 -0.13279168580E+02  0.29981229581E+03 -0.79063126094E+02  0.32334330629E+03  0.90753329280E+02 0.  0.
          2    1    3    3  502    0  0.18912657179E+03  0.13112620383E+03 -0.77788729301E+03  0.81121611307E+03  0.00000000000E+00 0. -1.
         -1    1    3    3    0  502  0.19639957476E+03  0.66897789289E+02 -0.55026686344E+03  0.58808309632E+03  0.00000000000E+00 0.  1.
         11    1    5    5    0    0 -0.35317700520E+03 -0.45351060128E+03  0.29631443101E+03  0.64669011474E+03  0.00000000000E+00 0. -1.
        -11    1    5    5    0    0 -0.19069972772E+02 -0.44325687649E+02 -0.19099438323E+01  0.48291596914E+02  0.00000000000E+00 0.  1.
          4    1    6    6  503    0  0.31799540571E+02  0.16391188697E+03 -0.18896801099E+02  0.16803394467E+03  0.00000000000E+00 0. -1.
         -4    1    6    6    0  503 -0.45078709151E+02  0.13590040885E+03 -0.60166324995E+02  0.15530936162E+03  0.00000000000E+00 0.  1.
<mgrwt>
<rscale>  0 0.21462886E+04</rscale>
<asrwt>0</asrwt>
<pdfrwt beam="1">  1        2 0.27157208E+00 0.21462886E+04</pdfrwt>
<pdfrwt beam="2">  1       -1 0.10037011E+00 0.21462886E+04</pdfrwt>
<totfact> 0.89124950E+00</totfact>
</mgrwt>
</event>
<event>
12    6  0.9533401E-008  0.1147995E+04  0.7818608E-02  0.9159636E-01
          2   -1    0    0  501    0  0.00000000000E+00  0.00000000000E+00  0.92976100229E+03  0.92976100229E+03  0.00000000000E+00 0. -1.
         -3   -1    0    0    0  501 -0.00000000000E+00 -0.00000000000E+00 -0.35436297261E+03  0.35436297261E+03  0.00000000000E+00 0.  1.
         24    2    1    2    0    0 -0.10187650510E+03  0.61438889086E+02  0.30938730286E+03  0.34097049067E+03  0.79917538438E+02 0.  0.
        254    2    1    2    0    0  0.10187650510E+03 -0.61438889086E+02  0.26601072682E+03  0.94315348423E+03  0.89700793120E+03 0.  0.
         23    2    4    4    0    0  0.28815308565E+03  0.33437269364E+03  0.19114145401E+03  0.48936555732E+03  0.90034961130E+02 0.  0.
         23    2    4    4    0    0 -0.18627658055E+03 -0.39581158273E+03  0.74869272813E+02  0.45378792691E+03  0.94616600629E+02 0.  0.
          2    1    3    3  502    0 -0.11225427897E+03  0.67104004272E+02  0.29193106626E+03  0.31988703941E+03  0.00000000000E+00 0. -1.
         -1    1    3    3    0  502  0.10377773868E+02 -0.56651151860E+01  0.17456236608E+02  0.21083451260E+02  0.00000000000E+00 0.  1.
         11    1    5    5    0    0  0.13678765780E+03  0.15509183387E+03  0.13852405116E+03  0.24890410404E+03  0.00000000000E+00 0. -1.
        -11    1    5    5    0    0  0.15136542785E+03  0.17928085977E+03  0.52617402849E+02  0.24046145328E+03  0.00000000000E+00 0.  1.
          1    1    6    6  503    0 -0.35534202908E+02 -0.10780514037E+03 -0.19773818579E+02  0.11521992782E+03  0.00000000000E+00 0. -1.
         -1    1    6    6    0  503 -0.15074237764E+03 -0.28800644236E+03  0.94643091393E+02  0.33856799908E+03  0.00000000000E+00 0.  1.
<mgrwt>
<rscale>  0 0.11479946E+04</rscale>
<asrwt>0</asrwt>
<pdfrwt beam="1">  1        2 0.14304015E+00 0.11479946E+04</pdfrwt>
<pdfrwt beam="2">  1       -3 0.54517381E-01 0.11479946E+04</pdfrwt>
<totfact> 0.58562745E+01</totfact>
</mgrwt>
</event>
<event>
12    6  0.9533401E-008  0.1420628E+04  0.7818608E-02  0.8939021E-01
         -3   -1    0    0    0  501 -0.00000000000E+00  0.00000000000E+00  0.11666517149E+04  0.11666517149E+04  0.00000000000E+00 0.  1.
          2   -1    0    0  501    0  0.00000000000E+00 -0.00000000000E+00 -0.43247340306E+03  0.43247340306E+03  0.00000000000E+00 0. -1.
         24    2    1    2    0    0  0.11823203507E+03  0.23837182993E+03 -0.14416816982E+03  0.31345638016E+03  0.81673114622E+02 0.  0.
        254    2    1    2    0    0 -0.11823203507E+03 -0.23837182993E+03  0.87834648170E+03  0.12856687378E+04  0.90036193728E+03 0.  0.
         23    2    4    4    0    0  0.25356264392E+03  0.18728245213E+03  0.15440719104E+03  0.36272996235E+03  0.91447874111E+02 0.  0.
         23    2    4    4    0    0 -0.37179467899E+03 -0.42565428205E+03  0.72393929066E+03  0.92293877548E+03  0.91186816806E+02 0.  0.
          2    1    3    3  502    0  0.97874765786E+02  0.23177078534E+03 -0.11336992371E+03  0.27595272479E+03  0.00000000000E+00 0. -1.
         -1    1    3    3    0  502  0.20357269283E+02  0.66010445835E+01 -0.30798246117E+02  0.37503655370E+02  0.00000000000E+00 0.  1.
         11    1    5    5    0    0  0.34919297824E+02  0.46040679857E+01  0.45891617341E+02  0.57849765295E+02  0.00000000000E+00 0. -1.
        -11    1    5    5    0    0  0.21864334610E+03  0.18267838414E+03  0.10851557370E+03  0.30488019706E+03  0.00000000000E+00 0.  1.
          2    1    6    6  503    0 -0.66601146956E+01 -0.69966651516E+01  0.43372444996E+02  0.44435114897E+02  0.00000000000E+00 0. -1.
         -2    1    6    6    0  503 -0.36513456429E+03 -0.41865761690E+03  0.68056684567E+03  0.87850366058E+03  0.00000000000E+00 0.  1.
<mgrwt>
<rscale>  0 0.14206278E+04</rscale>
<asrwt>0</asrwt>
<pdfrwt beam="1">  1        2 0.66534370E-01 0.14206278E+04</pdfrwt>
<pdfrwt beam="2">  1       -3 0.17948488E+00 0.14206278E+04</pdfrwt>
<totfact> 0.88157113E+00</totfact>
</mgrwt>
</event>
<event>
12    6  0.9533401E-008  0.1812931E+04  0.7818608E-02  0.8699453E-01
         -1   -1    0    0    0  501 -0.00000000000E+00  0.00000000000E+00  0.30528538352E+03  0.30528538352E+03  0.00000000000E+00 0.  1.
          2   -1    0    0  501    0  0.00000000000E+00 -0.00000000000E+00 -0.26915137165E+04  0.26915137165E+04  0.00000000000E+00 0. -1.
         24    2    1    2    0    0 -0.60088145626E+03  0.64118395042E+02 -0.14083813828E+04  0.15356329211E+04  0.97265904032E+02 0.  0.
        254    2    1    2    0    0  0.60088145626E+03 -0.64118395042E+02 -0.97784695018E+03  0.14611661789E+04  0.90202674638E+03 0.  0.
         23    2    4    4    0    0  0.20261611658E+03 -0.43744760081E+03 -0.66237136358E+03  0.82417478762E+03  0.90080869792E+02 0.  0.
         23    2    4    4    0    0  0.39826533968E+03  0.37332920577E+03 -0.31547558660E+03  0.63699139123E+03  0.90792125737E+02 0.  0.
          2    1    3    3  502    0 -0.52801287627E+03  0.37652134220E+02 -0.12869262891E+04  0.13915439462E+04  0.00000000000E+00 0. -1.
         -1    1    3    3    0  502 -0.72868579989E+02  0.26466260821E+02 -0.12145509370E+03  0.14408897493E+03  0.00000000000E+00 0.  1.
         11    1    5    5    0    0  0.38117774033E+02 -0.52683978578E+02 -0.14385817858E+03  0.15787254935E+03  0.00000000000E+00 0.  1.
        -11    1    5    5    0    0  0.16449834254E+03 -0.38476362223E+03 -0.51851318500E+03  0.66630223826E+03  0.00000000000E+00 0. -1.
          3    1    6    6  503    0  0.36499831167E+03  0.36422181104E+03 -0.31111910460E+03  0.60222619705E+03  0.00000000000E+00 0. -1.
         -3    1    6    6    0  503  0.33267028012E+02  0.91073947239E+01 -0.43564819945E+01  0.34765194186E+02  0.00000000000E+00 0.  1.
<mgrwt>
<rscale>  0 0.18129311E+04</rscale>
<asrwt>0</asrwt>
<pdfrwt beam="1">  1        2 0.41407903E+00 0.18129311E+04</pdfrwt>
<pdfrwt beam="2">  1       -1 0.46966982E-01 0.18129311E+04</pdfrwt>
<totfact> 0.13062728E+01</totfact>
</mgrwt>
</event>
<event>
12    6  0.9533401E-008  0.1530524E+04  0.7818608E-02  0.8864405E-01
         -1   -1    0    0    0  501 -0.00000000000E+00  0.00000000000E+00  0.13156191629E+04  0.13156191629E+04  0.00000000000E+00 0.  1.
          2   -1    0    0  501    0  0.00000000000E+00 -0.00000000000E+00 -0.44513328622E+03  0.44513328622E+03  0.00000000000E+00 0. -1.
         24    2    1    2    0    0  0.25109842111E+03  0.12679416587E+03 -0.18371815369E+03  0.34679241855E+03  0.85938605913E+02 0.  0.
        254    2    1    2    0    0 -0.25109842111E+03 -0.12679416587E+03  0.10542040304E+04  0.14139600306E+04  0.89933845287E+03 0.  0.
         23    2    4    4    0    0 -0.42490637277E+03  0.24674369097E+03  0.71898349068E+03  0.87521380631E+03  0.87373177914E+02 0.  0.
         23    2    4    4    0    0  0.17380795166E+03 -0.37353785684E+03  0.33522053968E+03  0.53874622425E+03  0.90193954189E+02 0.  0.
          4    1    3    3  502    0  0.21784437043E+03  0.89696758641E+02 -0.18065111907E+03  0.29687792956E+03  0.00000000000E+00 0. -1.
         -3    1    3    3    0  502  0.33254050680E+02  0.37097407229E+02 -0.30670346182E+01  0.49914488990E+02  0.00000000000E+00 0.  1.
         11    1    5    5    0    0 -0.32418188668E+03  0.15736940189E+03  0.47118137719E+03  0.59318708222E+03  0.00000000000E+00 0. -1.
        -11    1    5    5    0    0 -0.10072448609E+03  0.89374289085E+02  0.24780211349E+03  0.28202672409E+03  0.00000000000E+00 0.  1.
          3    1    6    6  503    0  0.74038905279E+02 -0.13536126105E+03  0.18154441990E+03  0.23824946356E+03  0.00000000000E+00 0. -1.
         -3    1    6    6    0  503  0.99769046384E+02 -0.23817659580E+03  0.15367611977E+03  0.30049676070E+03  0.00000000000E+00 0.  1.
<mgrwt>
<rscale>  0 0.15305239E+04</rscale>
<asrwt>0</asrwt>
<pdfrwt beam="1">  1        2 0.68482045E-01 0.15305239E+04</pdfrwt>
<pdfrwt beam="2">  1       -1 0.20240295E+00 0.15305239E+04</pdfrwt>
<totfact> 0.11245192E+01</totfact>
</mgrwt>
</event>
<event>
12    6  0.9533401E-008  0.2814187E+04  0.7818608E-02  0.8298877E-01
          2   -1    0    0  501    0  0.00000000000E+00  0.00000000000E+00  0.20096746230E+04  0.20096746230E+04  0.00000000000E+00 0. -1.
         -1   -1    0    0    0  501 -0.00000000000E+00 -0.00000000000E+00 -0.98519052744E+03  0.98519052744E+03  0.00000000000E+00 0.  1.
         24    2    1    2    0    0  0.97553612369E+03 -0.23180509725E+03 -0.35824460109E+03  0.10675498205E+04  0.76935643569E+02 0.  0.
        254    2    1    2    0    0 -0.97553612369E+03  0.23180509725E+03  0.13827286967E+04  0.19273153300E+04  0.89286135590E+03 0.  0.
         23    2    4    4    0    0 -0.11067544582E+04  0.19365281019E+03  0.98516323463E+03  0.14971168392E+04  0.91680911916E+02 0.  0.
         23    2    4    4    0    0  0.13121833456E+03  0.38152287062E+02  0.39756546206E+03  0.43019849079E+03  0.91315916066E+02 0.  0.
          2    1    3    3  502    0  0.10782670942E+03 -0.38021971649E+01 -0.49923148650E+02  0.11888387922E+03  0.00000000000E+00 0. -1.
         -1    1    3    3    0  502  0.86770941427E+03 -0.22800290009E+03 -0.30832145244E+03  0.94866594125E+03  0.00000000000E+00 0.  1.
         11    1    5    5    0    0 -0.58718041898E+03  0.64661113150E+02  0.55162135732E+03  0.80823760481E+03  0.00000000000E+00 0.  1.
        -11    1    5    5    0    0 -0.51957403927E+03  0.12899169704E+03  0.43354187731E+03  0.68887923439E+03  0.00000000000E+00 0. -1.
          1    1    6    6  503    0  0.54030500380E+02  0.29467149482E+02  0.29602833294E+03  0.30235803573E+03  0.00000000000E+00 0. -1.
         -1    1    6    6    0  503  0.77187834181E+02  0.86851375795E+01  0.10153712912E+03  0.12784045506E+03  0.00000000000E+00 0.  1.
<mgrwt>
<rscale>  0 0.28141872E+04</rscale>
<asrwt>0</asrwt>
<pdfrwt beam="1">  1        2 0.30918071E+00 0.28141872E+04</pdfrwt>
<pdfrwt beam="2">  1       -1 0.15156777E+00 0.28141872E+04</pdfrwt>
<totfact> 0.22132381E+00</totfact>
</mgrwt>
</event>
<event>
12    6  0.9533401E-008  0.1355010E+04  0.7818608E-02  0.8987044E-01
          2   -1    0    0  501    0  0.00000000000E+00  0.00000000000E+00  0.27743589633E+04  0.27743589633E+04  0.00000000000E+00 0. -1.
         -1   -1    0    0    0  501 -0.00000000000E+00 -0.00000000000E+00 -0.16544831092E+03  0.16544831092E+03  0.00000000000E+00 0.  1.
         24    2    1    2    0    0  0.21136508266E+03  0.23485888237E+03  0.13509879743E+04  0.13903182469E+04  0.89344436287E+02 0.  0.
        254    2    1    2    0    0 -0.21136508266E+03 -0.23485888237E+03  0.12579226782E+04  0.15494890274E+04  0.84776936065E+03 0.  0.
         23    2    4    4    0    0 -0.36151934567E+02 -0.45828467599E+03  0.32680512630E+03  0.57172882569E+03  0.93490389548E+02 0.  0.
         23    2    4    4    0    0 -0.17521314809E+03  0.22342579361E+03  0.93111755187E+03  0.97776020166E+03  0.91740852649E+02 0.  0.
          2    1    3    3  502    0  0.10632684361E+03  0.95392803182E+02  0.78923119472E+03  0.80205427702E+03  0.00000000000E+00 0. -1.
         -1    1    3    3    0  502  0.10503823905E+03  0.13946607919E+03  0.56175677955E+03  0.58826396989E+03  0.00000000000E+00 0.  1.
         11    1    5    5    0    0 -0.23324951300E+02 -0.79488545015E+02  0.10070254619E+03  0.13039741159E+03  0.00000000000E+00 0. -1.
        -11    1    5    5    0    0 -0.12826983267E+02 -0.37879613097E+03  0.22610258011E+03  0.44133141410E+03  0.00000000000E+00 0.  1.
          3    1    6    6  503    0 -0.23136611150E+01  0.12428721917E+02  0.74971316894E+01  0.14698065853E+02  0.00000000000E+00 0. -1.
         -3    1    6    6    0  503 -0.17289948698E+03  0.21099707170E+03  0.92362042018E+03  0.96306213581E+03  0.00000000000E+00 0.  1.
<mgrwt>
<rscale>  0 0.13550100E+04</rscale>
<asrwt>0</asrwt>
<pdfrwt beam="1">  1        2 0.42682442E+00 0.13550100E+04</pdfrwt>
<pdfrwt beam="2">  1       -1 0.25453588E-01 0.13550100E+04</pdfrwt>
<totfact> 0.36448985E+01</totfact>
</mgrwt>
</event>
<event>
12    6  0.9533401E-008  0.1390332E+04  0.7818608E-02  0.8960846E-01
         -1   -1    0    0    0  501 -0.00000000000E+00  0.00000000000E+00  0.55447482390E+03  0.55447482390E+03  0.00000000000E+00 0.  1.
          2   -1    0    0  501    0  0.00000000000E+00 -0.00000000000E+00 -0.87155643141E+03  0.87155643141E+03  0.00000000000E+00 0. -1.
         24    2    1    2    0    0  0.31342899114E+03 -0.16294362638E+03  0.93572393742E+02  0.37378254076E+03  0.78544490868E+02 0.  0.
        254    2    1    2    0    0 -0.31342899114E+03  0.16294362638E+03 -0.41065400125E+03  0.10522487145E+04  0.90210991052E+03 0.  0.
         23    2    4    4    0    0  0.30998464449E+03  0.69065469936E+02 -0.17840452014E+03  0.37423605673E+03  0.85813369564E+02 0.  0.
         23    2    4    4    0    0 -0.62341363563E+03  0.93878156440E+02 -0.23224948111E+03  0.67801265782E+03  0.91124493632E+02 0.  0.
          2    1    3    3  502    0  0.15855012960E+03 -0.67952992219E+02  0.73032009237E+01  0.17265309001E+03  0.00000000000E+00 0. -1.
         -1    1    3    3    0  502  0.15487886154E+03 -0.94990634158E+02  0.86269192818E+02  0.20112945075E+03  0.00000000000E+00 0.  1.
         11    1    5    5    0    0  0.19710067459E+03  0.15722554767E+02 -0.14438171341E+03  0.24483045934E+03  0.00000000000E+00 0. -1.
        -11    1    5    5    0    0  0.11288396989E+03  0.53342915169E+02 -0.34022806722E+02  0.12940559739E+03  0.00000000000E+00 0.  1.
          3    1    6    6  503    0 -0.55495116970E+03  0.11191260150E+03 -0.20318462204E+03  0.60148085735E+03  0.00000000000E+00 0. -1.
         -3    1    6    6    0  503 -0.68462465932E+02 -0.18034445062E+02 -0.29064859078E+02  0.76531800472E+02  0.00000000000E+00 0.  1.
<mgrwt>
<rscale>  0 0.13903325E+04</rscale>
<asrwt>0</asrwt>
<pdfrwt beam="1">  1        2 0.13408560E+00 0.13903325E+04</pdfrwt>
<pdfrwt beam="2">  1       -1 0.85303819E-01 0.13903325E+04</pdfrwt>
<totfact> 0.46327461E+01</totfact>
</mgrwt>
</event>
<event>
12    6  0.9533401E-008  0.1390829E+04  0.7818608E-02  0.8960484E-01
          2   -1    0    0  501    0  0.00000000000E+00  0.00000000000E+00  0.30687166101E+04  0.30687166101E+04  0.00000000000E+00 0. -1.
         -1   -1    0    0    0  501 -0.00000000000E+00 -0.00000000000E+00 -0.15759084094E+03  0.15759084094E+03  0.00000000000E+00 0.  1.
         24    2    1    2    0    0 -0.56225644801E+02 -0.47071962104E+02 -0.55616561031E+02  0.12163768042E+03  0.79532576261E+02 0.  0.
        254    2    1    2    0    0  0.56225644801E+02  0.47071962104E+02  0.29667423302E+04  0.31046697706E+04  0.91216075232E+03 0.  0.
         23    2    4    4    0    0  0.30850465194E+02  0.38393307829E+03  0.64797395360E+03  0.75964359651E+03  0.93977600352E+02 0.  0.
         23    2    4    4    0    0  0.25375179608E+02 -0.33686111619E+03  0.23187683766E+04  0.23450261741E+04  0.91332697415E+02 0.  0.
          2    1    3    3  502    0  0.10859681336E+02  0.12894321284E+02 -0.22113434831E+01  0.17002536284E+02  0.00000000000E+00 0. -1.
         -1    1    3    3    0  502 -0.67085326137E+02 -0.59966283388E+02 -0.53405217548E+02  0.10463514413E+03  0.00000000000E+00 0.  1.
         11    1    5    5    0    0  0.15366160651E+02  0.36688818421E+03  0.56752967500E+03  0.67596818758E+03  0.00000000000E+00 0. -1.
        -11    1    5    5    0    0  0.15484304543E+02  0.17044894079E+02  0.80444278594E+02  0.83675408931E+02  0.00000000000E+00 0.  1.
          4    1    6    6  503    0  0.16705419634E+02 -0.34023129809E+03  0.22581556802E+04  0.22837038957E+04  0.00000000000E+00 0. -1.
         -4    1    6    6    0  503  0.86697599732E+01  0.33701819060E+01  0.60612696431E+02  0.61322278437E+02  0.00000000000E+00 0.  1.
<mgrwt>
<rscale>  0 0.13908294E+04</rscale>
<asrwt>0</asrwt>
<pdfrwt beam="1">  1        2 0.47211020E+00 0.13908294E+04</pdfrwt>
<pdfrwt beam="2">  1       -1 0.24244747E-01 0.13908294E+04</pdfrwt>
<totfact> 0.26068470E+01</totfact>
</mgrwt>
</event>
<event>
12    6  0.9533401E-008  0.1631007E+04  0.7818608E-02  0.8801722E-01
          2   -1    0    0  501    0  0.00000000000E+00  0.00000000000E+00  0.25976789058E+04  0.25976789058E+04  0.00000000000E+00 0. -1.
         -1   -1    0    0    0  501 -0.00000000000E+00 -0.00000000000E+00 -0.25601545594E+03  0.25601545594E+03  0.00000000000E+00 0.  1.
         24    2    1    2    0    0 -0.29980141744E+03  0.24716397292E+03  0.15449237734E+04  0.15949642099E+04  0.78424778101E+02 0.  0.
        254    2    1    2    0    0  0.29980141744E+03 -0.24716397292E+03  0.79673967653E+03  0.12587301519E+04  0.89366468196E+03 0.  0.
         23    2    4    4    0    0  0.56430123203E+03 -0.31257206360E+03  0.38998659762E+03  0.76053973283E+03  0.10096515970E+03 0.  0.
         23    2    4    4    0    0 -0.26449981459E+03  0.65408090677E+02  0.40675307890E+03  0.49819041908E+03  0.92234788584E+02 0.  0.
          2    1    3    3  502    0 -0.18679305408E+03  0.10564139222E+03  0.88421662466E+03  0.90988504116E+03  0.00000000000E+00 0. -1.
         -1    1    3    3    0  502 -0.11300836336E+03  0.14152258070E+03  0.66070714872E+03  0.68507916871E+03  0.00000000000E+00 0.  1.
         11    1    5    5    0    0  0.60071126698E+02 -0.61275656456E+02  0.80944559756E+02  0.11796299458E+03  0.00000000000E+00 0. -1.
        -11    1    5    5    0    0  0.50423010533E+03 -0.25129640714E+03  0.30904203787E+03  0.64257673825E+03  0.00000000000E+00 0.  1.
          3    1    6    6  503    0 -0.15070971771E+03  0.52974088110E+02  0.15958504178E+03  0.22580314122E+03  0.00000000000E+00 0. -1.
         -3    1    6    6    0  503 -0.11379009688E+03  0.12434002566E+02  0.24716803712E+03  0.27238727786E+03  0.00000000000E+00 0.  1.
<mgrwt>
<rscale>  0 0.16310070E+04</rscale>
<asrwt>0</asrwt>
<pdfrwt beam="1">  1        2 0.39964289E+00 0.16310070E+04</pdfrwt>
<pdfrwt beam="2">  1       -1 0.39386995E-01 0.16310070E+04</pdfrwt>
<totfact> 0.20890557E+01</totfact>
</mgrwt>
</event>
<event>
12    6  0.9533401E-008  0.1480560E+04  0.7818608E-02  0.8897484E-01
          2   -1    0    0  501    0  0.00000000000E+00  0.00000000000E+00  0.83384948777E+03  0.83384948777E+03  0.00000000000E+00 0. -1.
         -1   -1    0    0    0  501 -0.00000000000E+00 -0.00000000000E+00 -0.65721009556E+03  0.65721009556E+03  0.00000000000E+00 0.  1.
         24    2    1    2    0    0 -0.11994482569E+01 -0.18522558640E+03  0.48527330273E+03  0.52556409486E+03  0.80109193801E+02 0.  0.
        254    2    1    2    0    0  0.11994482569E+01  0.18522558640E+03 -0.30863391052E+03  0.96549548847E+03  0.89588877155E+03 0.  0.
         23    2    4    4    0    0  0.14862434107E+03  0.51156604190E+03 -0.13386358233E+03  0.55676684721E+03  0.90999195024E+02 0.  0.
         23    2    4    4    0    0 -0.14742489281E+03 -0.32634045549E+03 -0.17477032819E+03  0.40872864126E+03  0.91006827528E+02 0.  0.
          4    1    3    3  502    0 -0.38098296908E+01 -0.16465071265E+03  0.32899768872E+03  0.36791826696E+03  0.00000000000E+00 0. -1.
         -3    1    3    3    0  502  0.26103814339E+01 -0.20574873751E+02  0.15627561401E+03  0.15764582790E+03  0.00000000000E+00 0.  1.
         11    1    5    5    0    0  0.20874931644E+02  0.12579438810E+03 -0.69817573054E+02  0.14537704205E+03  0.00000000000E+00 0.  1.
        -11    1    5    5    0    0  0.12774940942E+03  0.38577165380E+03 -0.64046009274E+02  0.41138980516E+03  0.00000000000E+00 0. -1.
          1    1    6    6  503    0 -0.97661722152E+02 -0.22808652505E+03 -0.72650252322E+02  0.25853304247E+03  0.00000000000E+00 0.  1.
         -1    1    6    6    0  503 -0.49763170659E+02 -0.98253930443E+02 -0.10212007587E+03  0.15019559879E+03  0.00000000000E+00 0. -1.
<mgrwt>
<rscale>  0 0.14805598E+04</rscale>
<asrwt>0</asrwt>
<pdfrwt beam="1">  1        2 0.12828454E+00 0.14805598E+04</pdfrwt>
<pdfrwt beam="2">  1       -1 0.10110924E+00 0.14805598E+04</pdfrwt>
<totfact> 0.33451866E+01</totfact>
</mgrwt>
</event>
<event>
12    6  0.9533401E-008  0.1970182E+04  0.7818608E-02  0.8620690E-01
          2   -1    0    0  501    0  0.00000000000E+00  0.00000000000E+00  0.81836422399E+03  0.81836422399E+03  0.00000000000E+00 0. -1.
         -1   -1    0    0    0  501 -0.00000000000E+00 -0.00000000000E+00 -0.11857850276E+04  0.11857850276E+04  0.00000000000E+00 0.  1.
         24    2    1    2    0    0  0.15523789853E+03  0.63380576584E+03 -0.57769445273E+03  0.87516080290E+03  0.79793460099E+02 0.  0.
        254    2    1    2    0    0 -0.15523789853E+03 -0.63380576584E+03  0.21027364911E+03  0.11289884487E+04  0.89699016484E+03 0.  0.
         23    2    4    4    0    0  0.23327926519E+03 -0.38505340216E+03  0.41267879104E+03  0.61723218448E+03  0.89366922843E+02 0.  0.
         23    2    4    4    0    0 -0.38851716372E+03 -0.24875236368E+03 -0.20240514193E+03  0.51175626421E+03  0.90018373355E+02 0.  0.
          2    1    3    3  502    0  0.87707340709E+02  0.28360020389E+03 -0.21538749433E+03  0.36676072032E+03  0.00000000000E+00 0. -1.
         -1    1    3    3    0  502  0.67530557819E+02  0.35020556195E+03 -0.36230695840E+03  0.50840008258E+03  0.00000000000E+00 0.  1.
         11    1    5    5    0    0  0.98683254886E+02 -0.89251658918E+02  0.10222415535E+03  0.16779160096E+03  0.00000000000E+00 0. -1.
        -11    1    5    5    0    0  0.13459601031E+03 -0.29580174324E+03  0.31045463569E+03  0.44944058352E+03  0.00000000000E+00 0.  1.
          1    1    6    6  503    0 -0.71233049895E+02 -0.82288300774E+02 -0.23807035923E+02  0.11141044296E+03  0.00000000000E+00 0. -1.
         -1    1    6    6    0  503 -0.31728411382E+03 -0.16646406291E+03 -0.17859810601E+03  0.40034582125E+03  0.00000000000E+00 0.  1.
<mgrwt>
<rscale>  0 0.19701818E+04</rscale>
<asrwt>0</asrwt>
<pdfrwt beam="1">  1        2 0.12590219E+00 0.19701818E+04</pdfrwt>
<pdfrwt beam="2">  1       -1 0.18242846E+00 0.19701818E+04</pdfrwt>
<totfact> 0.71000805E+00</totfact>
</mgrwt>
</event>
<event>
12    6  0.9533401E-008  0.1025886E+04  0.7818608E-02  0.9280601E-01
          2   -1    0    0  501    0  0.00000000000E+00  0.00000000000E+00  0.71872823896E+03  0.71872823896E+03  0.00000000000E+00 0. -1.
         -1   -1    0    0    0  501 -0.00000000000E+00 -0.00000000000E+00 -0.36607782917E+03  0.36607782917E+03  0.00000000000E+00 0.  1.
         24    2    1    2    0    0 -0.31247891417E+02 -0.26500314495E+02 -0.41730590648E+02  0.99114449074E+02  0.80022087158E+02 0.  0.
        254    2    1    2    0    0  0.31247891417E+02  0.26500314495E+02  0.39438100043E+03  0.98569161906E+03  0.90242611719E+03 0.  0.
         23    2    4    4    0    0  0.55718884490E+02  0.38316742533E+03 -0.57453902880E+02  0.40209720950E+03  0.91974697681E+02 0.  0.
         23    2    4    4    0    0 -0.24470993073E+02 -0.35666711083E+03  0.45183490331E+03  0.58359440956E+03  0.92829938943E+02 0.  0.
          4    1    3    3  502    0 -0.28852142890E+02  0.41520544042E+01  0.16332696604E+02  0.33413211211E+02  0.00000000000E+00 0. -1.
         -3    1    3    3    0  502 -0.23957485273E+01 -0.30652368900E+02 -0.58063287252E+02  0.65701237863E+02  0.00000000000E+00 0.  1.
         11    1    5    5    0    0  0.39050246117E+02  0.67352441697E+02  0.10689237612E+02  0.78584559075E+02  0.00000000000E+00 0.  1.
        -11    1    5    5    0    0  0.16668638373E+02  0.31581498363E+03 -0.68143140492E+02  0.32351265043E+03  0.00000000000E+00 0. -1.
          1    1    6    6  503    0 -0.38296629651E+02 -0.23025545382E+03  0.34992345344E+03  0.42063122699E+03  0.00000000000E+00 0. -1.
         -1    1    6    6    0  503  0.13825636578E+02 -0.12641165701E+03  0.10191144987E+03  0.16296318256E+03  0.00000000000E+00 0.  1.
<mgrwt>
<rscale>  0 0.10258859E+04</rscale>
<asrwt>0</asrwt>
<pdfrwt beam="1">  1        2 0.11057358E+00 0.10258859E+04</pdfrwt>
<pdfrwt beam="2">  1       -1 0.56319666E-01 0.10258859E+04</pdfrwt>
<totfact> 0.14388132E+02</totfact>
</mgrwt>
</event>
<event>
12    6  0.9533401E-008  0.2636301E+04  0.7818608E-02  0.8355974E-01
         -3   -1    0    0    0  501 -0.00000000000E+00  0.00000000000E+00  0.12077054754E+04  0.12077054754E+04  0.00000000000E+00 0.  1.
          2   -1    0    0  501    0  0.00000000000E+00 -0.00000000000E+00 -0.14386953726E+04  0.14386953726E+04  0.00000000000E+00 0. -1.
         24    2    1    2    0    0  0.56600903714E+03  0.10482594634E+04 -0.73761325903E+02  0.11966284982E+04  0.85234362802E+02 0.  0.
        254    2    1    2    0    0 -0.56600903714E+03 -0.10482594634E+04 -0.15722857139E+03  0.14497723498E+04  0.81111337668E+03 0.  0.
         23    2    4    4    0    0 -0.80719445095E+02 -0.47687305187E+03  0.29008084875E+03  0.57206159031E+03  0.95833333860E+02 0.  0.
         23    2    4    4    0    0 -0.48528959204E+03 -0.57138641158E+03 -0.44730942014E+03  0.87771075952E+03  0.91115534067E+02 0.  0.
          2    1    3    3  502    0  0.42432916615E+03  0.85638516092E+03 -0.64989337241E+02  0.95795323427E+03  0.00000000000E+00 0. -1.
         -1    1    3    3    0  502  0.14167987098E+03  0.19187430253E+03 -0.87719886618E+01  0.23867526390E+03  0.00000000000E+00 0.  1.
         11    1    5    5    0    0 -0.93299263725E+02 -0.46435454216E+03  0.26971048675E+03  0.54504462212E+03  0.00000000000E+00 0. -1.
        -11    1    5    5    0    0  0.12579818631E+02 -0.12518509709E+02  0.20370362005E+02  0.27016968192E+02  0.00000000000E+00 0.  1.
          3    1    6    6  503    0 -0.47793067051E+03 -0.53958801503E+03 -0.41480113350E+03  0.83164471509E+03  0.00000000000E+00 0. -1.
         -3    1    6    6    0  503 -0.73589215277E+01 -0.31798396542E+02 -0.32508286644E+02  0.46066044428E+02  0.00000000000E+00 0.  1.
<mgrwt>
<rscale>  0 0.26363006E+04</rscale>
<asrwt>0</asrwt>
<pdfrwt beam="1">  1        2 0.22133775E+00 0.26363006E+04</pdfrwt>
<pdfrwt beam="2">  1       -3 0.18580084E+00 0.26363006E+04</pdfrwt>
<totfact> 0.13859144E+00</totfact>
</mgrwt>
</event>
<event>
12    6  0.9533401E-008  0.1761085E+04  0.7818608E-02  0.8727272E-01
         -1   -1    0    0    0  501 -0.00000000000E+00  0.00000000000E+00  0.25666194568E+03  0.25666194568E+03  0.00000000000E+00 0.  1.
          2   -1    0    0  501    0  0.00000000000E+00 -0.00000000000E+00 -0.30209195182E+04  0.30209195182E+04  0.00000000000E+00 0. -1.
         24    2    1    2    0    0  0.25448682192E+03 -0.52489996474E+03 -0.15489036859E+04  0.16570391020E+04  0.79952748136E+02 0.  0.
        254    2    1    2    0    0 -0.25448682192E+03  0.52489996474E+03 -0.12153538866E+04  0.16205423618E+04  0.89932694908E+03 0.  0.
         23    2    4    4    0    0 -0.75969998566E+02 -0.96610736942E+02 -0.86799544668E+03  0.88134631120E+03  0.90830334359E+02 0.  0.
         23    2    4    4    0    0 -0.17851682335E+03  0.62151070168E+03 -0.34735843992E+03  0.73919605064E+03  0.87230195296E+02 0.  0.
          2    1    3    3  502    0  0.27808996373E+02 -0.83457565688E+02 -0.16728145855E+03  0.18900156593E+03  0.00000000000E+00 0. -1.
         -1    1    3    3    0  502  0.22667782555E+03 -0.44144239905E+03 -0.13816222274E+04  0.14680375361E+04  0.00000000000E+00 0.  1.
         11    1    5    5    0    0 -0.63520525639E+02 -0.11020272880E+02 -0.44011575715E+03  0.44481252600E+03  0.00000000000E+00 0.  1.
        -11    1    5    5    0    0 -0.12449472927E+02 -0.85590464062E+02 -0.42787968953E+03  0.43653378521E+03  0.00000000000E+00 0. -1.
          2    1    6    6  503    0 -0.23155290146E+02  0.19378542996E+03 -0.76508362220E+02  0.20962464029E+03  0.00000000000E+00 0.  1.
         -2    1    6    6    0  503 -0.15536153321E+03  0.42772527172E+03 -0.27085007770E+03  0.52957141035E+03  0.00000000000E+00 0. -1.
<mgrwt>
<rscale>  0 0.17610850E+04</rscale>
<asrwt>0</asrwt>
<pdfrwt beam="1">  1        2 0.46475684E+00 0.17610850E+04</pdfrwt>
<pdfrwt beam="2">  1       -1 0.39486454E-01 0.17610850E+04</pdfrwt>
<totfact> 0.11408921E+01</totfact>
</mgrwt>
</event>
<event>
12    6  0.9533401E-008  0.2028292E+04  0.7818608E-02  0.8593506E-01
         -1   -1    0    0    0  501 -0.00000000000E+00  0.00000000000E+00  0.54615423571E+03  0.54615423571E+03  0.00000000000E+00 0.  1.
          2   -1    0    0  501    0  0.00000000000E+00 -0.00000000000E+00 -0.18831526607E+04  0.18831526607E+04  0.00000000000E+00 0. -1.
         24    2    1    2    0    0  0.21638367296E+03  0.74302300526E+03 -0.83770717432E+03  0.11433055187E+04  0.80555067272E+02 0.  0.
        254    2    1    2    0    0 -0.21638367296E+03 -0.74302300526E+03 -0.49929125066E+03  0.12860013777E+04  0.89755373667E+03 0.  0.
         23    2    4    4    0    0  0.98920479389E+02  0.16249656801E+03 -0.14453010312E+03  0.25955615577E+03  0.10143989074E+03 0.  0.
         23    2    4    4    0    0 -0.31530415235E+03 -0.90551957328E+03 -0.35476114754E+03  0.10264452219E+04  0.91388816403E+02 0.  0.
          4    1    3    3  502    0  0.19312274602E+03  0.66923151195E+03 -0.71463141364E+03  0.99793049306E+03  0.00000000000E+00 0. -1.
         -3    1    3    3    0  502  0.23260926944E+02  0.73791493318E+02 -0.12307576068E+03  0.14537502562E+03  0.00000000000E+00 0.  1.
         11    1    5    5    0    0  0.34334225182E+02  0.12651457871E+03 -0.12918463700E+03  0.18404740715E+03  0.00000000000E+00 0.  1.
        -11    1    5    5    0    0  0.64586254207E+02  0.35981989309E+02 -0.15345466116E+02  0.75508748615E+02  0.00000000000E+00 0. -1.
          2    1    6    6  503    0 -0.23293459445E+03 -0.65876124389E+03 -0.30099485630E+03  0.76080405181E+03  0.00000000000E+00 0. -1.
         -2    1    6    6    0  503 -0.82369557901E+02 -0.24675832939E+03 -0.53766291242E+02  0.26564117013E+03  0.00000000000E+00 0.  1.
<mgrwt>
<rscale>  0 0.20282917E+04</rscale>
<asrwt>0</asrwt>
<pdfrwt beam="1">  1        2 0.28971580E+00 0.20282917E+04</pdfrwt>
<pdfrwt beam="2">  1       -1 0.84023728E-01 0.20282917E+04</pdfrwt>
<totfact> 0.11495123E+01</totfact>
</mgrwt>
</event>
<event>
12    6  0.9533401E-008  0.1571116E+04  0.7818608E-02  0.8838491E-01
         -1   -1    0    0    0  501 -0.00000000000E+00  0.00000000000E+00  0.32618907349E+04  0.32618907349E+04  0.00000000000E+00 0.  1.
          2   -1    0    0  501    0  0.00000000000E+00 -0.00000000000E+00 -0.18918529325E+03  0.18918529325E+03  0.00000000000E+00 0. -1.
         24    2    1    2    0    0  0.97679227155E+02  0.41649739597E+03  0.16994920584E+04  0.17543339678E+04  0.80019382086E+02 0.  0.
        254    2    1    2    0    0 -0.97679227155E+02 -0.41649739597E+03  0.13732133832E+04  0.16967420604E+04  0.90011516560E+03 0.  0.
         23    2    4    4    0    0 -0.12259571218E+03 -0.21733220986E+03 -0.38392682087E+02  0.26840907632E+03  0.91139651794E+02 0.  0.
         23    2    4    4    0    0  0.24916485021E+02 -0.19916518611E+03  0.14116060653E+04  0.14283329840E+04  0.84946024955E+02 0.  0.
          2    1    3    3  502    0  0.66928604177E+02  0.25745149387E+03  0.12039424479E+04  0.12329793703E+04  0.00000000000E+00 0. -1.
         -1    1    3    3    0  502  0.30750622977E+02  0.15904590210E+03  0.49554961053E+03  0.52135459745E+03  0.00000000000E+00 0.  1.
         11    1    5    5    0    0 -0.59039553204E+02 -0.90607076624E+02  0.28225189801E+02  0.11176749311E+03  0.00000000000E+00 0. -1.
        -11    1    5    5    0    0 -0.63556158972E+02 -0.12672513323E+03 -0.66617871889E+02  0.15664158321E+03  0.00000000000E+00 0.  1.
          4    1    6    6  503    0  0.39954210056E+02 -0.49327826184E+02  0.55176948133E+03  0.55540897892E+03  0.00000000000E+00 0. -1.
         -4    1    6    6    0  503 -0.15037725035E+02 -0.14983735992E+03  0.85983658395E+03  0.87292400512E+03  0.00000000000E+00 0.  1.
<mgrwt>
<rscale>  0 0.15711165E+04</rscale>
<asrwt>0</asrwt>
<pdfrwt beam="1">  1        2 0.29105432E-01 0.15711165E+04</pdfrwt>
<pdfrwt beam="2">  1       -1 0.50182930E+00 0.15711165E+04</pdfrwt>
<totfact> 0.29407937E-01</totfact>
</mgrwt>
</event>
<event>
12    6  0.9533401E-008  0.1718571E+04  0.7818608E-02  0.8750843E-01
          2   -1    0    0  501    0  0.00000000000E+00  0.00000000000E+00  0.27298386606E+04  0.27298386606E+04  0.00000000000E+00 0. -1.
         -1   -1    0    0    0  501 -0.00000000000E+00 -0.00000000000E+00 -0.27048178963E+03  0.27048178963E+03  0.00000000000E+00 0.  1.
         24    2    1    2    0    0  0.16248184426E+03  0.55005777309E+03  0.13138028266E+04  0.14358029414E+04  0.80550082092E+02 0.  0.
        254    2    1    2    0    0 -0.16248184426E+03 -0.55005777309E+03  0.11455540443E+04  0.15645175089E+04  0.89802954493E+03 0.  0.
         23    2    4    4    0    0 -0.21422649656E+03  0.12283074682E+02  0.92109309875E+03  0.95023188881E+03  0.92110152457E+02 0.  0.
         23    2    4    4    0    0  0.51744652310E+02 -0.56234084777E+03  0.22446094560E+03  0.61428562006E+03  0.89773987286E+02 0.  0.
          4    1    3    3  502    0  0.99522826093E+02  0.28998428734E+03  0.60674984982E+03  0.67980957633E+03  0.00000000000E+00 0. -1.
         -3    1    3    3    0  502  0.62959018162E+02  0.26007348576E+03  0.70705297682E+03  0.75599336505E+03  0.00000000000E+00 0.  1.
         11    1    5    5    0    0 -0.20091371199E+03  0.12762639798E+02  0.69036715582E+03  0.71912169656E+03  0.00000000000E+00 0.  1.
        -11    1    5    5    0    0 -0.13312784579E+02 -0.47956511644E+00  0.23072594293E+03  0.23111019224E+03  0.00000000000E+00 0. -1.
          2    1    6    6  503    0  0.12759125901E+02 -0.48372164286E+03  0.18466454563E+03  0.51792896953E+03  0.00000000000E+00 0. -1.
         -2    1    6    6    0  503  0.38985526408E+02 -0.78619204913E+02  0.39796399969E+02  0.96356650528E+02  0.00000000000E+00 0.  1.
<mgrwt>
<rscale>  0 0.17185711E+04</rscale>
<asrwt>0</asrwt>
<pdfrwt beam="1">  1        2 0.41997516E+00 0.17185711E+04</pdfrwt>
<pdfrwt beam="2">  1       -1 0.41612585E-01 0.17185711E+04</pdfrwt>
<totfact> 0.15660614E+01</totfact>
</mgrwt>
</event>
<event>
12    6  0.9533401E-008  0.2443238E+04  0.7818608E-02  0.8423491E-01
         -3   -1    0    0    0  501 -0.00000000000E+00  0.00000000000E+00  0.67659577484E+03  0.67659577484E+03  0.00000000000E+00 0.  1.
          2   -1    0    0  501    0  0.00000000000E+00 -0.00000000000E+00 -0.22056785241E+04  0.22056785241E+04  0.00000000000E+00 0. -1.
         24    2    1    2    0    0 -0.60545292247E+03 -0.33018211302E+03 -0.15828268083E+04  0.17283430950E+04  0.78966321416E+02 0.  0.
        254    2    1    2    0    0  0.60545292247E+03  0.33018211302E+03  0.53744059044E+02  0.11539312039E+04  0.92362077197E+03 0.  0.
         23    2    4    4    0    0  0.18836472795E+03  0.13995894908E+03 -0.41853709374E+03  0.48944169224E+03  0.96488823728E+02 0.  0.
         23    2    4    4    0    0  0.41708819451E+03  0.19022316393E+03  0.47228115278E+03  0.66448951168E+03  0.91375104722E+02 0.  0.
          2    1    3    3  502    0 -0.55063136283E+03 -0.29816012406E+03 -0.14861892507E+04  0.16127159844E+04  0.00000000000E+00 0. -1.
         -1    1    3    3    0  502 -0.54821559636E+02 -0.32021988952E+02 -0.96637557545E+02  0.11562711060E+03  0.00000000000E+00 0.  1.
         11    1    5    5    0    0  0.53253609131E+02  0.50306361684E+02 -0.22677288814E+03  0.23831202174E+03  0.00000000000E+00 0. -1.
        -11    1    5    5    0    0  0.13511111882E+03  0.89652587400E+02 -0.19176420560E+03  0.25112967050E+03  0.00000000000E+00 0.  1.
          4    1    6    6  503    0  0.39034904564E+03  0.16830138503E+03  0.46330226894E+03  0.62876603442E+03  0.00000000000E+00 0. -1.
         -4    1    6    6    0  503  0.26739148874E+02  0.21921778901E+02  0.89788838431E+01  0.35723477262E+02  0.00000000000E+00 0.  1.
<mgrwt>
<rscale>  0 0.24432378E+04</rscale>
<asrwt>0</asrwt>
<pdfrwt beam="1">  1        2 0.33933515E+00 0.24432378E+04</pdfrwt>
<pdfrwt beam="2">  1       -3 0.10409166E+00 0.24432378E+04</pdfrwt>
<totfact> 0.23299605E+00</totfact>
</mgrwt>
</event>
<event>
12    6  0.9533401E-008  0.1574726E+04  0.7818608E-02  0.8836227E-01
          2   -1    0    0  501    0  0.00000000000E+00  0.00000000000E+00  0.13410568349E+04  0.13410568349E+04  0.00000000000E+00 0. -1.
         -1   -1    0    0    0  501 -0.00000000000E+00 -0.00000000000E+00 -0.46227776510E+03  0.46227776510E+03  0.00000000000E+00 0.  1.
         24    2    1    2    0    0 -0.19575446570E+03  0.27997520759E+03  0.75138160768E+03  0.82892334736E+03  0.76378450634E+02 0.  0.
        254    2    1    2    0    0  0.19575446570E+03 -0.27997520759E+03  0.12739746213E+03  0.97441125265E+03  0.90362671952E+03 0.  0.
         23    2    4    4    0    0  0.39258264833E+03  0.62625407936E+02  0.32677793219E+03  0.52252933467E+03  0.90609111772E+02 0.  0.
         23    2    4    4    0    0 -0.19682818263E+03 -0.34260061552E+03 -0.19938047007E+03  0.45188191798E+03  0.91258866525E+02 0.  0.
          2    1    3    3  502    0 -0.14608014512E+03  0.17034289082E+03  0.41709931726E+03  0.47363271605E+03  0.00000000000E+00 0. -1.
         -1    1    3    3    0  502 -0.49674320577E+02  0.10963231677E+03  0.33428229042E+03  0.35529063131E+03  0.00000000000E+00 0.  1.
         11    1    5    5    0    0  0.59664906082E+02  0.28987882209E+02  0.93444575304E+02  0.11459531834E+03  0.00000000000E+00 0. -1.
        -11    1    5    5    0    0  0.33291774225E+03  0.33637525727E+02  0.23333335689E+03  0.40793401633E+03  0.00000000000E+00 0.  1.
          2    1    6    6  503    0 -0.22588461571E+02 -0.11227584528E+03 -0.35922015875E+02  0.12002706051E+03  0.00000000000E+00 0. -1.
         -2    1    6    6    0  503 -0.17423972106E+03 -0.23032477025E+03 -0.16345845419E+03  0.33185485748E+03  0.00000000000E+00 0.  1.
<mgrwt>
<rscale>  0 0.15747263E+04</rscale>
<asrwt>0</asrwt>
<pdfrwt beam="1">  1        2 0.20631643E+00 0.15747263E+04</pdfrwt>
<pdfrwt beam="2">  1       -1 0.71119657E-01 0.15747263E+04</pdfrwt>
<totfact> 0.34219098E+01</totfact>
</mgrwt>
</event>
<event>
12    6  0.9533401E-008  0.2246368E+04  0.7818608E-02  0.8499373E-01
         -1   -1    0    0    0  501 -0.00000000000E+00  0.00000000000E+00  0.10467212806E+04  0.10467212806E+04  0.00000000000E+00 0.  1.
          2   -1    0    0  501    0  0.00000000000E+00 -0.00000000000E+00 -0.12052322890E+04  0.12052322890E+04  0.00000000000E+00 0. -1.
         24    2    1    2    0    0 -0.73377712091E+03 -0.57608203422E+03 -0.37784280090E+02  0.93749400565E+03  0.84663956230E+02 0.  0.
        254    2    1    2    0    0  0.73377712091E+03  0.57608203422E+03 -0.12072672832E+03  0.13144595640E+04  0.91811199156E+03 0.  0.
         23    2    4    4    0    0 -0.64199312133E+01  0.48469737173E+03 -0.24966673015E+03  0.55254217913E+03  0.89423855308E+02 0.  0.
         23    2    4    4    0    0  0.74019705212E+03  0.91384662495E+02  0.12894000183E+03  0.76191738484E+03  0.87462819185E+02 0.  0.
          4    1    3    3  502    0 -0.45647896644E+03 -0.37524599849E+03  0.14741949217E+02  0.59110061009E+03  0.00000000000E+00 0. -1.
         -3    1    3    3    0  502 -0.27729815447E+03 -0.20083603573E+03 -0.52526229307E+02  0.34639339556E+03  0.00000000000E+00 0.  1.
         11    1    5    5    0    0  0.19007138214E+02  0.67236194343E+02 -0.10222774128E+02  0.70615028455E+02  0.00000000000E+00 0.  1.
        -11    1    5    5    0    0 -0.25427069428E+02  0.41746117738E+03 -0.23944395602E+03  0.48192715067E+03  0.00000000000E+00 0. -1.
          2    1    6    6  503    0  0.72589461813E+03  0.99874532666E+02  0.11842914622E+03  0.74224213137E+03  0.00000000000E+00 0. -1.
         -2    1    6    6    0  503  0.14302433995E+02 -0.84898701714E+01  0.10510855602E+02  0.19675253472E+02  0.00000000000E+00 0.  1.
<mgrwt>
<rscale>  0 0.22463680E+04</rscale>
<asrwt>0</asrwt>
<pdfrwt beam="1">  1        2 0.18542035E+00 0.22463680E+04</pdfrwt>
<pdfrwt beam="2">  1       -1 0.16103404E+00 0.22463680E+04</pdfrwt>
<totfact> 0.56027141E+00</totfact>
</mgrwt>
</event>
<event>
12    6  0.9533401E-008  0.1525931E+04  0.7818608E-02  0.8867390E-01
         -1   -1    0    0    0  501 -0.00000000000E+00  0.00000000000E+00  0.24720510171E+03  0.24720510171E+03  0.00000000000E+00 0.  1.
          2   -1    0    0  501    0  0.00000000000E+00 -0.00000000000E+00 -0.23547923588E+04  0.23547923588E+04  0.00000000000E+00 0. -1.
         24    2    1    2    0    0 -0.46706769278E+03 -0.37999753676E+02 -0.41940292074E+03  0.63396600811E+03  0.80111663328E+02 0.  0.
        254    2    1    2    0    0  0.46706769278E+03  0.37999753676E+02 -0.16881843364E+04  0.19680314524E+04  0.89642915682E+03 0.  0.
         23    2    4    4    0    0 -0.25616919711E+03  0.65642863055E+02 -0.41957805417E+03  0.50439328092E+03  0.91843319154E+02 0.  0.
         23    2    4    4    0    0  0.72323688989E+03 -0.27643109380E+02 -0.12686062822E+04  0.14636381715E+04  0.95073957665E+02 0.  0.
          4    1    3    3  502    0 -0.32659488074E+02 -0.21691930422E+02 -0.21884147552E+02  0.44900979063E+02  0.00000000000E+00 0. -1.
         -3    1    3    3    0  502 -0.43440820471E+03 -0.16307823253E+02 -0.39751877319E+03  0.58906502905E+03  0.00000000000E+00 0.  1.
         11    1    5    5    0    0 -0.25926040638E+03  0.72228038833E+02 -0.38942981788E+03  0.47337979569E+03  0.00000000000E+00 0. -1.
        -11    1    5    5    0    0  0.30912092674E+01 -0.65851757774E+01 -0.30148236287E+02  0.31013485227E+02  0.00000000000E+00 0.  1.
          1    1    6    6  503    0  0.51820468679E+03 -0.44941588377E+02 -0.97562746135E+03  0.11056241618E+04  0.00000000000E+00 0. -1.
         -1    1    6    6    0  503  0.20503220310E+03  0.17298478997E+02 -0.29297882085E+03  0.35801400972E+03  0.00000000000E+00 0.  1.
<mgrwt>
<rscale>  0 0.15259314E+04</rscale>
<asrwt>0</asrwt>
<pdfrwt beam="1">  1        2 0.36227576E+00 0.15259314E+04</pdfrwt>
<pdfrwt beam="2">  1       -1 0.38031553E-01 0.15259314E+04</pdfrwt>
<totfact> 0.31001854E+01</totfact>
</mgrwt>
</event>
<event>
12    6  0.9533401E-008  0.1765391E+04  0.7818608E-02  0.8724924E-01
         -1   -1    0    0    0  501 -0.00000000000E+00  0.00000000000E+00  0.13488843193E+04  0.13488843193E+04  0.00000000000E+00 0.  1.
          2   -1    0    0  501    0  0.00000000000E+00 -0.00000000000E+00 -0.57762668368E+03  0.57762668368E+03  0.00000000000E+00 0. -1.
         24    2    1    2    0    0  0.16879303998E+03 -0.39462212860E+03  0.72226288912E+03  0.84365237631E+03  0.76602456394E+02 0.  0.
        254    2    1    2    0    0 -0.16879303998E+03  0.39462212860E+03  0.48994746543E+02  0.10828586267E+04  0.99295750440E+03 0.  0.
         23    2    4    4    0    0 -0.20654495992E+03  0.46000230937E+03 -0.37923620121E+03  0.63816208263E+03  0.95748641256E+02 0.  0.
         23    2    4    4    0    0  0.37751919939E+02 -0.65380180771E+02  0.42823094775E+03  0.44469654409E+03  0.93131606961E+02 0.  0.
          2    1    3    3  502    0  0.41120157921E+02 -0.33853680963E+02  0.84944559146E+02  0.10026224230E+03  0.00000000000E+00 0. -1.
         -1    1    3    3    0  502  0.12767288206E+03 -0.36076844764E+03  0.63731832998E+03  0.74339013401E+03  0.00000000000E+00 0.  1.
         11    1    5    5    0    0 -0.18896906544E+03  0.31704800164E+03 -0.27926077720E+03  0.46283401422E+03  0.00000000000E+00 0. -1.
        -11    1    5    5    0    0 -0.17575894476E+02  0.14295430773E+03 -0.99975424011E+02  0.17532806841E+03  0.00000000000E+00 0.  1.
          1    1    6    6  503    0  0.28145387431E+02  0.19158306072E+02  0.14614828988E+03  0.15006174116E+03  0.00000000000E+00 0. -1.
         -1    1    6    6    0  503  0.96065325075E+01 -0.84538486843E+02  0.28208265787E+03  0.29463480293E+03  0.00000000000E+00 0.  1.
<mgrwt>
<rscale>  0 0.17653913E+04</rscale>
<asrwt>0</asrwt>
<pdfrwt beam="1">  1        2 0.88865644E-01 0.17653913E+04</pdfrwt>
<pdfrwt beam="2">  1       -1 0.20752066E+00 0.17653913E+04</pdfrwt>
<totfact> 0.75036974E+00</totfact>
</mgrwt>
</event>
<event>
12    6  0.9533401E-008  0.1788581E+04  0.7818608E-02  0.8712396E-01
         -1   -1    0    0    0  501 -0.00000000000E+00  0.00000000000E+00  0.66903215771E+03  0.66903215771E+03  0.00000000000E+00 0.  1.
          2   -1    0    0  501    0  0.00000000000E+00 -0.00000000000E+00 -0.11953920263E+04  0.11953920263E+04  0.00000000000E+00 0. -1.
         24    2    1    2    0    0  0.62462797030E+03 -0.21514619128E+03 -0.24924179630E+03  0.71062647124E+03  0.80128170381E+02 0.  0.
        254    2    1    2    0    0 -0.62462797030E+03  0.21514619128E+03 -0.27711807233E+03  0.11537977128E+04  0.90443725664E+03 0.  0.
         23    2    4    4    0    0 -0.16582888252E+03  0.22462743323E+03 -0.54176935079E+03  0.61598066260E+03  0.89226930880E+02 0.  0.
         23    2    4    4    0    0 -0.45879908778E+03 -0.94812419538E+01  0.26465127846E+03  0.53781705023E+03  0.92846019998E+02 0.  0.
          4    1    3    3  502    0  0.60983385381E+03 -0.21327387162E+03 -0.25511660314E+03  0.69459884449E+03  0.00000000000E+00 0. -1.
         -3    1    3    3    0  502  0.14794116491E+02 -0.18723196600E+01  0.58748068373E+01  0.16027626744E+02  0.00000000000E+00 0.  1.
         11    1    5    5    0    0 -0.43566998648E+02  0.21020654893E+02 -0.48419085038E+02  0.68442377949E+02  0.00000000000E+00 0. -1.
        -11    1    5    5    0    0 -0.12226188388E+03  0.20360677834E+03 -0.49335026576E+03  0.54753828465E+03  0.00000000000E+00 0.  1.
          3    1    6    6  503    0 -0.22547642898E+03 -0.44080803901E+02  0.10243405962E+03  0.25154616648E+03  0.00000000000E+00 0. -1.
         -3    1    6    6    0  503 -0.23332265879E+03  0.34599561947E+02  0.16221721884E+03  0.28627088375E+03  0.00000000000E+00 0.  1.
<mgrwt>
<rscale>  0 0.17885812E+04</rscale>
<asrwt>0</asrwt>
<pdfrwt beam="1">  1        2 0.18390647E+00 0.17885812E+04</pdfrwt>
<pdfrwt beam="2">  1       -1 0.10292802E+00 0.17885812E+04</pdfrwt>
<totfact> 0.18317026E+01</totfact>
</mgrwt>
</event>
<event>
12    6  0.9533401E-008  0.1982598E+04  0.7818608E-02  0.8614800E-01
          2   -1    0    0  501    0  0.00000000000E+00  0.00000000000E+00  0.12632263200E+04  0.12632263200E+04  0.00000000000E+00 0. -1.
         -1   -1    0    0    0  501 -0.00000000000E+00 -0.00000000000E+00 -0.77790811736E+03  0.77790811736E+03  0.00000000000E+00 0.  1.
         24    2    1    2    0    0 -0.17428355181E+03 -0.15687695552E+03  0.94657692482E+03  0.97832822240E+03  0.78314114539E+02 0.  0.
        254    2    1    2    0    0  0.17428355181E+03  0.15687695552E+03 -0.46125872222E+03  0.10628062149E+04  0.92833846525E+03 0.  0.
         23    2    4    4    0    0 -0.11454262084E+03  0.45529017061E+03 -0.68271224147E+02  0.48408736069E+03  0.96283234737E+02 0.  0.
         23    2    4    4    0    0  0.28882617265E+03 -0.29841321509E+03 -0.39298749807E+03  0.57871885424E+03  0.89472530202E+02 0.  0.
          2    1    3    3  502    0 -0.11969338323E+03 -0.11753011601E+03  0.51757269277E+03  0.54407841941E+03  0.00000000000E+00 0. -1.
         -1    1    3    3    0  502 -0.54590168581E+02 -0.39346839502E+02  0.42900423205E+03  0.43424980300E+03  0.00000000000E+00 0.  1.
         11    1    5    5    0    0 -0.10692236742E+03  0.24347056715E+03 -0.19740859044E+02  0.26664585360E+03  0.00000000000E+00 0. -1.
        -11    1    5    5    0    0 -0.76202534217E+01  0.21181960345E+03 -0.48530365102E+02  0.21744150709E+03  0.00000000000E+00 0.  1.
          2    1    6    6  503    0  0.47942692741E+02 -0.51157667248E+02 -0.25695671115E+02  0.74671789985E+02  0.00000000000E+00 0.  1.
         -2    1    6    6    0  503  0.24088347991E+03 -0.24725554784E+03 -0.36729182696E+03  0.50404706425E+03  0.00000000000E+00 0. -1.
<mgrwt>
<rscale>  0 0.19825983E+04</rscale>
<asrwt>0</asrwt>
<pdfrwt beam="1">  1        2 0.19434251E+00 0.19825983E+04</pdfrwt>
<pdfrwt beam="2">  1       -1 0.11967817E+00 0.19825983E+04</pdfrwt>
<totfact> 0.11483484E+01</totfact>
</mgrwt>
</event>
<event>
12    6  0.9533401E-008  0.1898633E+04  0.7818608E-02  0.8655537E-01
          2   -1    0    0  501    0  0.00000000000E+00  0.00000000000E+00  0.29388565068E+04  0.29388565068E+04  0.00000000000E+00 0. -1.
         -1   -1    0    0    0  501 -0.00000000000E+00 -0.00000000000E+00 -0.30665062192E+03  0.30665062192E+03  0.00000000000E+00 0.  1.
         24    2    1    2    0    0 -0.43682474905E+03 -0.38709813815E+03  0.16906449376E+04  0.17903218278E+04  0.79442509063E+02 0.  0.
        254    2    1    2    0    0  0.43682474905E+03  0.38709813815E+03  0.94156094732E+03  0.14551853009E+04  0.94359229150E+03 0.  0.
         23    2    4    4    0    0 -0.14277975934E+03  0.48110280604E+03  0.36130579338E+03  0.62465732290E+03  0.88368122434E+02 0.  0.
         23    2    4    4    0    0  0.57960450839E+03 -0.94004667890E+02  0.58025515394E+03  0.83052797803E+03  0.91117588267E+02 0.  0.
          4    1    3    3  502    0 -0.35107107374E+03 -0.26797203729E+03  0.12329082140E+04  0.13096268842E+04  0.00000000000E+00 0. -1.
         -3    1    3    3    0  502 -0.85753675315E+02 -0.11912610086E+03  0.45773672357E+03  0.48069494364E+03  0.00000000000E+00 0.  1.
         11    1    5    5    0    0 -0.29223273464E+02  0.58764636881E+02  0.16317104168E+02  0.67627879962E+02  0.00000000000E+00 0. -1.
        -11    1    5    5    0    0 -0.11355648587E+03  0.42233816916E+03  0.34498868921E+03  0.55702944294E+03  0.00000000000E+00 0.  1.
          3    1    6    6  503    0  0.15049061115E+03  0.13307258826E+02  0.16688286235E+03  0.22510974419E+03  0.00000000000E+00 0. -1.
         -3    1    6    6    0  503  0.42911389723E+03 -0.10731192672E+03  0.41337229159E+03  0.60541823384E+03  0.00000000000E+00 0.  1.
<mgrwt>
<rscale>  0 0.18986334E+04</rscale>
<asrwt>0</asrwt>
<pdfrwt beam="1">  1        2 0.45213175E+00 0.18986334E+04</pdfrwt>
<pdfrwt beam="2">  1       -1 0.47177021E-01 0.18986334E+04</pdfrwt>
<totfact> 0.91087338E+00</totfact>
</mgrwt>
</event>
<event>
12    6  0.9533401E-008  0.2005274E+04  0.7818608E-02  0.8604159E-01
          2   -1    0    0  501    0  0.00000000000E+00  0.00000000000E+00  0.74303488042E+03  0.74303488042E+03  0.00000000000E+00 0. -1.
         -3   -1    0    0    0  501 -0.00000000000E+00 -0.00000000000E+00 -0.13529395507E+04  0.13529395507E+04  0.00000000000E+00 0.  1.
         24    2    1    2    0    0 -0.55619745835E+03  0.54756403250E+03 -0.10666172840E+03  0.79177503858E+03  0.79680644169E+02 0.  0.
        254    2    1    2    0    0  0.55619745835E+03 -0.54756403250E+03 -0.50324294184E+03  0.13041993925E+04  0.91569679178E+03 0.  0.
         23    2    4    4    0    0 -0.15146790159E+03  0.36901920147E+02 -0.31505695447E+03  0.36274549330E+03  0.89549603158E+02 0.  0.
         23    2    4    4    0    0  0.70766535994E+03 -0.58446595265E+03 -0.18818598737E+03  0.94145389918E+03  0.92362151266E+02 0.  0.
          2    1    3    3  502    0 -0.36166092113E+03  0.34928462690E+03 -0.10675772927E+03  0.51399959652E+03  0.00000000000E+00 0. -1.
         -1    1    3    3    0  502 -0.19453653722E+03  0.19827940560E+03  0.96000870573E-01  0.27777544207E+03  0.00000000000E+00 0.  1.
         11    1    5    5    0    0  0.58702691366E+01 -0.16628064650E+01 -0.61863386341E+02  0.62163522702E+02  0.00000000000E+00 0. -1.
        -11    1    5    5    0    0 -0.15733817072E+03  0.38564726612E+02 -0.25319356813E+03  0.30058197060E+03  0.00000000000E+00 0.  1.
          1    1    6    6  503    0  0.51769042506E+03 -0.38091745566E+03 -0.10828644133E+03  0.65178787777E+03  0.00000000000E+00 0.  1.
         -1    1    6    6    0  503  0.18997493488E+03 -0.20354849699E+03 -0.79899546039E+02  0.28966602142E+03  0.00000000000E+00 0. -1.
<mgrwt>
<rscale>  0 0.20052743E+04</rscale>
<asrwt>0</asrwt>
<pdfrwt beam="1">  1        2 0.11431306E+00 0.20052743E+04</pdfrwt>
<pdfrwt beam="2">  1       -3 0.20814455E+00 0.20052743E+04</pdfrwt>
<totfact> 0.28795704E+00</totfact>
</mgrwt>
</event>
<event>
12    6  0.9533401E-008  0.2248355E+04  0.7818608E-02  0.8498567E-01
          2   -1    0    0  501    0  0.00000000000E+00  0.00000000000E+00  0.65304334369E+03  0.65304334369E+03  0.00000000000E+00 0. -1.
         -1   -1    0    0    0  501 -0.00000000000E+00 -0.00000000000E+00 -0.19352084979E+04  0.19352084979E+04  0.00000000000E+00 0.  1.
         24    2    1    2    0    0 -0.33436303127E+03  0.48619752327E+03  0.30968282130E+03  0.67026550693E+03  0.71873024558E+02 0.  0.
        254    2    1    2    0    0  0.33436303127E+03 -0.48619752327E+03 -0.15918479755E+04  0.19179863347E+04  0.89247125136E+03 0.  0.
         23    2    4    4    0    0 -0.23940287318E+03  0.36592027881E+02 -0.61377715564E+03  0.66609130550E+03  0.91118155564E+02 0.  0.
         23    2    4    4    0    0  0.57376590445E+03 -0.52278955115E+03 -0.97807081987E+03  0.12518950292E+04  0.90013373873E+02 0.  0.
          4    1    3    3  502    0 -0.23469775768E+03  0.30722902191E+03  0.23380437890E+03  0.45181544568E+03  0.00000000000E+00 0. -1.
         -3    1    3    3    0  502 -0.99665273589E+02  0.17896850135E+03  0.75878442398E+02  0.21845006124E+03  0.00000000000E+00 0.  1.
         11    1    5    5    0    0 -0.20948901212E+03  0.15237742744E+02 -0.57723828617E+03  0.61426531241E+03  0.00000000000E+00 0. -1.
        -11    1    5    5    0    0 -0.29913861061E+02  0.21354285137E+02 -0.36538869473E+02  0.51825993089E+02  0.00000000000E+00 0.  1.
          4    1    6    6  503    0  0.16855994906E+03 -0.16065418058E+03 -0.23030198290E+03  0.32750759609E+03  0.00000000000E+00 0. -1.
         -4    1    6    6    0  503  0.40520595539E+03 -0.36213537056E+03 -0.74776883697E+03  0.92438743308E+03  0.00000000000E+00 0.  1.
<mgrwt>
<rscale>  0 0.22483550E+04</rscale>
<asrwt>0</asrwt>
<pdfrwt beam="1">  1        2 0.10046821E+00 0.22483550E+04</pdfrwt>
<pdfrwt beam="2">  1       -1 0.29772437E+00 0.22483550E+04</pdfrwt>
<totfact> 0.15874876E+00</totfact>
</mgrwt>
</event>
<event>
12    6  0.9533401E-008  0.3185290E+04  0.7818608E-02  0.8192713E-01
         -1   -1    0    0    0  501 -0.00000000000E+00  0.00000000000E+00  0.22757224540E+04  0.22757224540E+04  0.00000000000E+00 0.  1.
          2   -1    0    0  501    0  0.00000000000E+00 -0.00000000000E+00 -0.11145989670E+04  0.11145989670E+04  0.00000000000E+00 0. -1.
         24    2    1    2    0    0 -0.98086866140E+03  0.22007048952E+03 -0.59343835200E+03  0.11701080462E+04  0.80308224736E+02 0.  0.
        254    2    1    2    0    0  0.98086866140E+03 -0.22007048952E+03  0.17545618390E+04  0.22202133748E+04  0.91669287728E+03 0.  0.
         23    2    4    4    0    0  0.21059486424E+03  0.28899625001E+03  0.22826277902E+03  0.43413691569E+03  0.92205942938E+02 0.  0.
         23    2    4    4    0    0  0.77027379716E+03 -0.50906673953E+03  0.15262990600E+04  0.17860764591E+04  0.89496531878E+02 0.  0.
          4    1    3    3  502    0 -0.75661200509E+03  0.20080225940E+03 -0.47709026968E+03  0.91673245772E+03  0.00000000000E+00 0. -1.
         -3    1    3    3    0  502 -0.22425665631E+03  0.19268230119E+02 -0.11634808233E+03  0.25337558851E+03  0.00000000000E+00 0.  1.
         11    1    5    5    0    0  0.15133598355E+03  0.18036486496E+03  0.99659586871E+02  0.25566794419E+03  0.00000000000E+00 0.  1.
        -11    1    5    5    0    0  0.59258880696E+02  0.10863138505E+03  0.12860319215E+03  0.17846897150E+03  0.00000000000E+00 0. -1.
          2    1    6    6  503    0  0.48509414093E+02 -0.57439797205E+02  0.14818025016E+03  0.16616221019E+03  0.00000000000E+00 0. -1.
         -2    1    6    6    0  503  0.72176438307E+03 -0.45162694232E+03  0.13781188098E+04  0.16199142489E+04  0.00000000000E+00 0.  1.
<mgrwt>
<rscale>  0 0.31852899E+04</rscale>
<asrwt>0</asrwt>
<pdfrwt beam="1">  1        2 0.17147676E+00 0.31852899E+04</pdfrwt>
<pdfrwt beam="2">  1       -1 0.35011115E+00 0.31852899E+04</pdfrwt>
<totfact> 0.31782157E-01</totfact>
</mgrwt>
</event>
<event>
12    6  0.9533401E-008  0.2501098E+04  0.7818608E-02  0.8402594E-01
          2   -1    0    0  501    0  0.00000000000E+00  0.00000000000E+00  0.99985531393E+03  0.99985531393E+03  0.00000000000E+00 0. -1.
         -1   -1    0    0    0  501 -0.00000000000E+00 -0.00000000000E+00 -0.15640994029E+04  0.15640994029E+04  0.00000000000E+00 0.  1.
         24    2    1    2    0    0  0.58489274719E+03  0.52403770939E+03  0.48003110670E+03  0.92392016816E+03  0.80520600853E+02 0.  0.
        254    2    1    2    0    0 -0.58489274719E+03 -0.52403770939E+03 -0.10442751956E+04  0.16400345486E+04  0.99120512000E+03 0.  0.
         23    2    4    4    0    0 -0.18284252397E+03  0.13813470935E+03  0.90820314462E+02  0.26258799385E+03  0.90507118475E+02 0.  0.
         23    2    4    4    0    0 -0.40205022322E+03 -0.66217241873E+03 -0.11350955101E+04  0.13774465548E+04  0.93810980874E+02 0.  0.
          2    1    3    3  502    0  0.43232386179E+03  0.39051368000E+03  0.31368739148E+03  0.66166807034E+03  0.00000000000E+00 0. -1.
         -1    1    3    3    0  502  0.15256888540E+03  0.13352402939E+03  0.16634371522E+03  0.26225209782E+03  0.00000000000E+00 0.  1.
         11    1    5    5    0    0 -0.91870064641E+02  0.10132019825E+03  0.91307864813E+02  0.16444761332E+03  0.00000000000E+00 0. -1.
        -11    1    5    5    0    0 -0.90972459333E+02  0.36814511096E+02 -0.48755035110E+00  0.98140380526E+02  0.00000000000E+00 0.  1.
          1    1    6    6  503    0 -0.21330935336E+03 -0.27271772716E+03 -0.46489413036E+03  0.57965713260E+03  0.00000000000E+00 0. -1.
         -1    1    6    6    0  503 -0.18874086986E+03 -0.38945469158E+03 -0.67020137973E+03  0.79778942218E+03  0.00000000000E+00 0.  1.
<mgrwt>
<rscale>  0 0.25010982E+04</rscale>
<asrwt>0</asrwt>
<pdfrwt beam="1">  1        2 0.15382390E+00 0.25010982E+04</pdfrwt>
<pdfrwt beam="2">  1       -1 0.24063068E+00 0.25010982E+04</pdfrwt>
<totfact> 0.20569420E+00</totfact>
</mgrwt>
</event>
<event>
12    6  0.9533401E-008  0.2362040E+04  0.7818608E-02  0.8453854E-01
         -1   -1    0    0    0  501 -0.00000000000E+00  0.00000000000E+00  0.10292872218E+04  0.10292872218E+04  0.00000000000E+00 0.  1.
          2   -1    0    0  501    0  0.00000000000E+00 -0.00000000000E+00 -0.13551201775E+04  0.13551201775E+04  0.00000000000E+00 0. -1.
         24    2    1    2    0    0 -0.43498966215E+03  0.54902288856E+02  0.77363205952E+03  0.89282326301E+03  0.79978421800E+02 0.  0.
        254    2    1    2    0    0  0.43498966215E+03 -0.54902288856E+02 -0.10994650152E+04  0.14915841363E+04  0.90761756722E+03 0.  0.
         23    2    4    4    0    0 -0.33499033112E+02 -0.47457417931E+02 -0.99800772692E+03  0.10036097200E+04  0.88536181265E+02 0.  0.
         23    2    4    4    0    0  0.46848869526E+03 -0.74448709242E+01 -0.10145728832E+03  0.48797441624E+03  0.91040462763E+02 0.  0.
          4    1    3    3  502    0  0.30857102650E+01 -0.20150138681E+01  0.94523415375E+01  0.10145375758E+02  0.00000000000E+00 0. -1.
         -3    1    3    3    0  502 -0.43807537242E+03  0.56917302724E+02  0.76417971799E+03  0.88267788725E+03  0.00000000000E+00 0.  1.
         11    1    5    5    0    0 -0.70370221523E+01  0.11978896387E+02 -0.61198393305E+03  0.61214160776E+03  0.00000000000E+00 0.  1.
        -11    1    5    5    0    0 -0.26462010960E+02 -0.59436314318E+02 -0.38602379387E+03  0.39146811226E+03  0.00000000000E+00 0. -1.
          3    1    6    6  503    0  0.48402190756E+02  0.23493388023E+02  0.33513469120E+01  0.53906798058E+02  0.00000000000E+00 0. -1.
         -3    1    6    6    0  503  0.42008650451E+03 -0.30938258947E+02 -0.10480863523E+03  0.43406761818E+03  0.00000000000E+00 0.  1.
<mgrwt>
<rscale>  0 0.23620397E+04</rscale>
<asrwt>0</asrwt>
<pdfrwt beam="1">  1        2 0.20848003E+00 0.23620397E+04</pdfrwt>
<pdfrwt beam="2">  1       -1 0.15835188E+00 0.23620397E+04</pdfrwt>
<totfact> 0.47480856E+00</totfact>
</mgrwt>
</event>
<event>
12    6  0.9533401E-008  0.1329606E+04  0.7818608E-02  0.9006411E-01
          2   -1    0    0  501    0  0.00000000000E+00  0.00000000000E+00  0.69094622055E+03  0.69094622055E+03  0.00000000000E+00 0. -1.
         -1   -1    0    0    0  501 -0.00000000000E+00 -0.00000000000E+00 -0.63964904680E+03  0.63964904680E+03  0.00000000000E+00 0.  1.
         24    2    1    2    0    0 -0.62987438517E+02  0.50968921878E+02  0.35323749198E+03  0.37126712337E+03  0.80605848088E+02 0.  0.
        254    2    1    2    0    0  0.62987438517E+02 -0.50968921878E+02 -0.30194031823E+03  0.95932814398E+03  0.90696046421E+03 0.  0.
         23    2    4    4    0    0  0.25008439390E+02 -0.17566225190E+03 -0.59542117419E+03  0.62779558768E+03  0.90101478646E+02 0.  0.
         23    2    4    4    0    0  0.37978999127E+02  0.12469333002E+03  0.29348085596E+03  0.33153255630E+03  0.82413543429E+02 0.  0.
          2    1    3    3  502    0 -0.76744753110E+02  0.24525557866E+02  0.29553320534E+03  0.30631868304E+03  0.00000000000E+00 0. -1.
         -3    1    3    3    0  502  0.13757314593E+02  0.26443364011E+02  0.57704286644E+02  0.64948440337E+02  0.00000000000E+00 0.  1.
         11    1    5    5    0    0  0.38187124752E+02 -0.21522450972E+02 -0.15000717142E+03  0.15628059339E+03  0.00000000000E+00 0. -1.
        -11    1    5    5    0    0 -0.13178685362E+02 -0.15413980093E+03 -0.44541400277E+03  0.47151499429E+03  0.00000000000E+00 0.  1.
          1    1    6    6  503    0 -0.21317941555E+02  0.69786119894E+02  0.15169537216E+03  0.16833313131E+03  0.00000000000E+00 0. -1.
         -1    1    6    6    0  503  0.59296940682E+02  0.54907210129E+02  0.14178548380E+03  0.16319942499E+03  0.00000000000E+00 0.  1.
<mgrwt>
<rscale>  0 0.13296061E+04</rscale>
<asrwt>0</asrwt>
<pdfrwt beam="1">  1        2 0.10629942E+00 0.13296061E+04</pdfrwt>
<pdfrwt beam="2">  1       -1 0.98407545E-01 0.13296061E+04</pdfrwt>
<totfact> 0.46037915E+01</totfact>
</mgrwt>
</event>
<event>
12    6  0.9533401E-008  0.2617944E+04  0.7818608E-02  0.8362131E-01
         -1   -1    0    0    0  501 -0.00000000000E+00  0.00000000000E+00  0.99895581591E+03  0.99895581591E+03  0.00000000000E+00 0.  1.
          2   -1    0    0  501    0  0.00000000000E+00 -0.00000000000E+00 -0.17151987694E+04  0.17151987694E+04  0.00000000000E+00 0. -1.
         24    2    1    2    0    0 -0.11405447575E+03 -0.42119588709E+03 -0.14228850655E+04  0.14904063541E+04  0.79339726219E+02 0.  0.
        254    2    1    2    0    0  0.11405447575E+03  0.42119588709E+03  0.70664211196E+03  0.12237482312E+04  0.89877820415E+03 0.  0.
         23    2    4    4    0    0 -0.25917127379E+03 -0.10353840291E+03  0.46753295654E+02  0.29720266008E+03  0.90849328381E+02 0.  0.
         23    2    4    4    0    0  0.37322574954E+03  0.52473429000E+03  0.65988881630E+03  0.92654557113E+03  0.91596453417E+02 0.  0.
          2    1    3    3  502    0 -0.12617322379E+03 -0.37120274849E+03 -0.12535108679E+04  0.13133928045E+04  0.00000000000E+00 0. -1.
         -1    1    3    3    0  502  0.12118748045E+02 -0.49993138601E+02 -0.16937419753E+03  0.17701354963E+03  0.00000000000E+00 0.  1.
         11    1    5    5    0    0 -0.57119391602E+02 -0.18069635696E+02 -0.27054028431E+02  0.65734747931E+02  0.00000000000E+00 0. -1.
        -11    1    5    5    0    0 -0.20205188219E+03 -0.85468767212E+02  0.73807324085E+02  0.23146791215E+03  0.00000000000E+00 0.  1.
          2    1    6    6  503    0  0.23524338717E+03  0.37179830295E+03  0.49835512978E+03  0.66477910968E+03  0.00000000000E+00 0. -1.
         -2    1    6    6    0  503  0.13798236237E+03  0.15293598705E+03  0.16153368652E+03  0.26176646145E+03  0.00000000000E+00 0.  1.
<mgrwt>
<rscale>  0 0.26179441E+04</rscale>
<asrwt>0</asrwt>
<pdfrwt beam="1">  1        2 0.26387673E+00 0.26179441E+04</pdfrwt>
<pdfrwt beam="2">  1       -1 0.15368551E+00 0.26179441E+04</pdfrwt>
<totfact> 0.31589581E+00</totfact>
</mgrwt>
</event>
<event>
12    6  0.9533401E-008  0.1495765E+04  0.7818608E-02  0.8887274E-01
         -1   -1    0    0    0  501 -0.00000000000E+00  0.00000000000E+00  0.13602668925E+03  0.13602668925E+03  0.00000000000E+00 0.  1.
          2   -1    0    0  501    0  0.00000000000E+00 -0.00000000000E+00 -0.41119021122E+04  0.41119021122E+04  0.00000000000E+00 0. -1.
         24    2    1    2    0    0  0.45126460721E+03  0.90512809092E+02 -0.93916373470E+03  0.10490423798E+04  0.81419160159E+02 0.  0.
        254    2    1    2    0    0 -0.45126460721E+03 -0.90512809092E+02 -0.30367116882E+04  0.31988864216E+04  0.89410522142E+03 0.  0.
         23    2    4    4    0    0 -0.34683335419E+03 -0.45238497633E+03 -0.13572145415E+04  0.14751521820E+04  0.95378750781E+02 0.  0.
         23    2    4    4    0    0 -0.10443125302E+03  0.36187216724E+03 -0.16794971467E+04  0.17237342396E+04  0.93229346262E+02 0.  0.
          2    1    3    3  502    0  0.22212027293E+00  0.81542368925E+01 -0.99488122661E+01  0.12865449165E+02  0.00000000000E+00 0. -1.
         -3    1    3    3    0  502  0.45104248694E+03  0.82358572200E+02 -0.92921492244E+03  0.10361769306E+04  0.00000000000E+00 0.  1.
         11    1    5    5    0    0 -0.16042285707E+03 -0.24628455280E+03 -0.80444289600E+03  0.85645779052E+03  0.00000000000E+00 0. -1.
        -11    1    5    5    0    0 -0.18641049713E+03 -0.20610042354E+03 -0.55277164551E+03  0.61869439152E+03  0.00000000000E+00 0.  1.
          1    1    6    6  503    0 -0.52511360599E+02  0.12852153231E+03 -0.43962665272E+03  0.46102800461E+03  0.00000000000E+00 0. -1.
         -1    1    6    6    0  503 -0.51919892425E+02  0.23335063493E+03 -0.12398704940E+04  0.12627062350E+04  0.00000000000E+00 0.  1.
<mgrwt>
<rscale>  0 0.14957653E+04</rscale>
<asrwt>0</asrwt>
<pdfrwt beam="1">  1        2 0.63260028E+00 0.14957653E+04</pdfrwt>
<pdfrwt beam="2">  1       -1 0.20927185E-01 0.14957653E+04</pdfrwt>
<totfact> 0.59237614E+00</totfact>
</mgrwt>
</event>
<event>
12    6  0.9533401E-008  0.1770555E+04  0.7818608E-02  0.8722117E-01
          2   -1    0    0  501    0  0.00000000000E+00  0.00000000000E+00  0.17304575364E+04  0.17304575364E+04  0.00000000000E+00 0. -1.
         -1   -1    0    0    0  501 -0.00000000000E+00 -0.00000000000E+00 -0.45289518278E+03  0.45289518278E+03  0.00000000000E+00 0.  1.
         24    2    1    2    0    0  0.52859338849E+03 -0.17348703064E+03  0.89986926877E+03  0.10607919246E+04  0.77498943997E+02 0.  0.
        254    2    1    2    0    0 -0.52859338849E+03  0.17348703064E+03  0.37769308487E+03  0.11225607946E+04  0.89887816250E+03 0.  0.
         23    2    4    4    0    0 -0.72715421711E+03  0.26133662809E+03  0.14055514309E+03  0.79079723464E+03  0.92490158485E+02 0.  0.
         23    2    4    4    0    0  0.19856082862E+03 -0.87849597448E+02  0.23713794178E+03  0.33176355994E+03  0.81784484082E+02 0.  0.
          4    1    3    3  502    0  0.50954689618E+03 -0.17539826200E+03  0.84056539097E+03  0.99847522063E+03  0.00000000000E+00 0. -1.
         -3    1    3    3    0  502  0.19046492313E+02  0.19112313623E+01  0.59303877803E+02  0.62316703998E+02  0.00000000000E+00 0.  1.
         11    1    5    5    0    0 -0.43272950602E+03  0.17670126855E+03  0.43469445378E+02  0.46943344190E+03  0.00000000000E+00 0.  1.
        -11    1    5    5    0    0 -0.29442471109E+03  0.84635359533E+02  0.97085697708E+02  0.32136379274E+03  0.00000000000E+00 0. -1.
          3    1    6    6  503    0  0.80216304233E+02 -0.47780503504E+01  0.47695315339E+02  0.93446927907E+02  0.00000000000E+00 0. -1.
         -3    1    6    6    0  503  0.11834452439E+03 -0.83071547098E+02  0.18944262644E+03  0.23831663203E+03  0.00000000000E+00 0.  1.
<mgrwt>
<rscale>  0 0.17705546E+04</rscale>
<asrwt>0</asrwt>
<pdfrwt beam="1">  1        2 0.26622423E+00 0.17705546E+04</pdfrwt>
<pdfrwt beam="2">  1       -1 0.69676183E-01 0.17705546E+04</pdfrwt>
<totfact> 0.21175277E+01</totfact>
</mgrwt>
</event>
<event>
12    6  0.9533401E-008  0.1318735E+04  0.7818608E-02  0.9014839E-01
         -1   -1    0    0    0  501 -0.00000000000E+00  0.00000000000E+00  0.21676075389E+03  0.21676075389E+03  0.00000000000E+00 0.  1.
          2   -1    0    0  501    0  0.00000000000E+00 -0.00000000000E+00 -0.20057391800E+04  0.20057391800E+04  0.00000000000E+00 0. -1.
         24    2    1    2    0    0 -0.25535963510E+03 -0.13044117702E+03 -0.81386224281E+03  0.86651358097E+03  0.79060684546E+02 0.  0.
        254    2    1    2    0    0  0.25535963510E+03  0.13044117702E+03 -0.97511618335E+03  0.13559863530E+04  0.89756558227E+03 0.  0.
         23    2    4    4    0    0  0.23334581461E+03 -0.19125523786E+03  0.10958819504E+02  0.31446019917E+03  0.87956159154E+02 0.  0.
         23    2    4    4    0    0  0.22013820489E+02  0.32169641488E+03 -0.98607500285E+03  0.10415261538E+04  0.91976225969E+02 0.  0.
          4    1    3    3  502    0 -0.64016486998E+02 -0.14250271588E+02 -0.11169870639E+03  0.12952907727E+03  0.00000000000E+00 0. -1.
         -3    1    3    3    0  502 -0.19134314810E+03 -0.11619090544E+03 -0.70216353642E+03  0.73698450371E+03  0.00000000000E+00 0.  1.
         11    1    5    5    0    0  0.21585392757E+02 -0.22462962920E+02  0.29659604050E+02  0.43014020924E+02  0.00000000000E+00 0. -1.
        -11    1    5    5    0    0  0.21176042185E+03 -0.16879227494E+03 -0.18700784546E+02  0.27144617824E+03  0.00000000000E+00 0.  1.
          4    1    6    6  503    0  0.33317108400E+02  0.12585011361E+03 -0.51579503252E+03  0.53197067248E+03  0.00000000000E+00 0. -1.
         -4    1    6    6    0  503 -0.11303287912E+02  0.19584630127E+03 -0.47027997033E+03  0.50955548131E+03  0.00000000000E+00 0.  1.
<mgrwt>
<rscale>  0 0.13187351E+04</rscale>
<asrwt>0</asrwt>
<pdfrwt beam="1">  1        2 0.30857525E+00 0.13187351E+04</pdfrwt>
<pdfrwt beam="2">  1       -1 0.33347810E-01 0.13187351E+04</pdfrwt>
<totfact> 0.62628817E+01</totfact>
</mgrwt>
</event>
<event>
12    6  0.9533401E-008  0.1306561E+04  0.7818608E-02  0.9024378E-01
          2   -1    0    0  501    0  0.00000000000E+00  0.00000000000E+00  0.27786162090E+04  0.27786162090E+04  0.00000000000E+00 0. -1.
         -1   -1    0    0    0  501 -0.00000000000E+00 -0.00000000000E+00 -0.15359280618E+03  0.15359280618E+03  0.00000000000E+00 0.  1.
         24    2    1    2    0    0 -0.16371518529E+03  0.26168942957E+03  0.97207956960E+03  0.10229884430E+04  0.79263140743E+02 0.  0.
        254    2    1    2    0    0  0.16371518529E+03 -0.26168942957E+03  0.16529438332E+04  0.19092205722E+04  0.90422113331E+03 0.  0.
         23    2    4    4    0    0  0.12126953144E+03 -0.39901079697E+02  0.16617510564E+04  0.16690961193E+04  0.90370828116E+02 0.  0.
         23    2    4    4    0    0  0.42445653851E+02 -0.22178834987E+03 -0.88072231934E+01  0.24012445285E+03  0.81181771391E+02 0.  0.
          2    1    3    3  502    0 -0.13052071852E+03  0.25139546558E+03  0.84326773577E+03  0.88957057745E+03  0.00000000000E+00 0. -1.
         -1    1    3    3    0  502 -0.33194466763E+02  0.10293963986E+02  0.12881183383E+03  0.13341786556E+03  0.00000000000E+00 0.  1.
         11    1    5    5    0    0  0.11736174582E+03 -0.62703254364E+02  0.13827199956E+04  0.13891076502E+04  0.00000000000E+00 0. -1.
        -11    1    5    5    0    0  0.39077856119E+01  0.22802174667E+02  0.27903106082E+03  0.27998846916E+03  0.00000000000E+00 0.  1.
          1    1    6    6  503    0 -0.77274273034E+01 -0.28114512600E+02 -0.26336739998E+02  0.39290747323E+02  0.00000000000E+00 0. -1.
         -1    1    6    6    0  503  0.50173081155E+02 -0.19367383727E+03  0.17529516805E+02  0.20083370552E+03  0.00000000000E+00 0.  1.
<mgrwt>
<rscale>  0 0.13065611E+04</rscale>
<asrwt>0</asrwt>
<pdfrwt beam="1">  1        2 0.42747938E+00 0.13065611E+04</pdfrwt>
<pdfrwt beam="2">  1       -1 0.23629664E-01 0.13065611E+04</pdfrwt>
<totfact> 0.41338375E+01</totfact>
</mgrwt>
</event>
<event>
12    6  0.9533401E-008  0.1921433E+04  0.7818608E-02  0.8644261E-01
         -3   -1    0    0    0  501 -0.00000000000E+00  0.00000000000E+00  0.61538310247E+03  0.61538310247E+03  0.00000000000E+00 0.  1.
          4   -1    0    0  501    0  0.00000000000E+00 -0.00000000000E+00 -0.14998405546E+04  0.14998405546E+04  0.00000000000E+00 0. -1.
         24    2    1    2    0    0 -0.23677876889E+03  0.34273231235E+03  0.34204039905E+03  0.54484542711E+03  0.79594481848E+02 0.  0.
        254    2    1    2    0    0  0.23677876889E+03 -0.34273231235E+03 -0.12264978512E+04  0.15703782300E+04  0.88784074184E+03 0.  0.
         23    2    4    4    0    0 -0.22273505246E+03 -0.42367457485E+03 -0.47552123019E+03  0.68104449196E+03  0.92682850109E+02 0.  0.
         23    2    4    4    0    0  0.45951382135E+03  0.80942262497E+02 -0.75097662103E+03  0.88933373803E+03  0.96145776850E+02 0.  0.
          2    1    3    3  502    0 -0.17632912987E+02  0.78745945404E+02  0.57045653912E+02  0.98823328057E+02  0.00000000000E+00 0. -1.
         -1    1    3    3    0  502 -0.21914585590E+03  0.26398636694E+03  0.28499474513E+03  0.44602209905E+03  0.00000000000E+00 0.  1.
         11    1    5    5    0    0 -0.10050668546E+01 -0.70688114573E+02 -0.68431012449E+02  0.98390157872E+02  0.00000000000E+00 0. -1.
        -11    1    5    5    0    0 -0.22172998561E+03 -0.35298646027E+03 -0.40709021774E+03  0.58265433409E+03  0.00000000000E+00 0.  1.
          2    1    6    6  503    0  0.13418704155E+03  0.62287572685E+02 -0.27897805849E+03  0.31577628308E+03  0.00000000000E+00 0. -1.
         -2    1    6    6    0  503  0.32532677980E+03  0.18654689811E+02 -0.47199856253E+03  0.57355745496E+03  0.00000000000E+00 0.  1.
<mgrwt>
<rscale>  0 0.19214334E+04</rscale>
<asrwt>0</asrwt>
<pdfrwt beam="1">  1        4 0.23074470E+00 0.19214334E+04</pdfrwt>
<pdfrwt beam="2">  1       -3 0.94674325E-01 0.19214334E+04</pdfrwt>
<totfact> 0.17660800E-01</totfact>
</mgrwt>
</event>
<event>
12    6  0.9533401E-008  0.1476767E+04  0.7818608E-02  0.8900051E-01
         -1   -1    0    0    0  501 -0.00000000000E+00  0.00000000000E+00  0.18052842936E+03  0.18052842936E+03  0.00000000000E+00 0.  1.
          2   -1    0    0  501    0  0.00000000000E+00 -0.00000000000E+00 -0.30200802040E+04  0.30200802040E+04  0.00000000000E+00 0. -1.
         24    2    1    2    0    0  0.31169226092E+03 -0.75234052267E+02 -0.16014253312E+04  0.16350800867E+04  0.78176531680E+02 0.  0.
        254    2    1    2    0    0 -0.31169226092E+03  0.75234052267E+02 -0.12381264434E+04  0.15655285467E+04  0.90283459867E+03 0.  0.
         23    2    4    4    0    0 -0.64446974001E+02 -0.11705851011E+03 -0.12270265654E+04  0.12379848081E+04  0.95687436710E+02 0.  0.
         23    2    4    4    0    0 -0.24724528692E+03  0.19229256238E+03 -0.11099877978E+02  0.32754373862E+03  0.95157931707E+02 0.  0.
          4    1    3    3  502    0  0.25122226373E+03 -0.82344215501E+02 -0.13963623177E+04  0.14211688563E+04  0.00000000000E+00 0. -1.
         -3    1    3    3    0  502  0.60469997182E+02  0.71101632337E+01 -0.20506301352E+03  0.21391123040E+03  0.00000000000E+00 0.  1.
         11    1    5    5    0    0 -0.68953296197E+02 -0.27263942873E+02 -0.59191455141E+03  0.59654062377E+03  0.00000000000E+00 0. -1.
        -11    1    5    5    0    0  0.45063221962E+01 -0.89794567240E+02 -0.63511201403E+03  0.64144418433E+03  0.00000000000E+00 0.  1.
          1    1    6    6  503    0 -0.22670990749E+03  0.13474705580E+03  0.69848523336E+01  0.26382368992E+03  0.00000000000E+00 0. -1.
         -1    1    6    6    0  503 -0.20535379430E+02  0.57545506579E+02 -0.18084730312E+02  0.63720048699E+02  0.00000000000E+00 0.  1.
<mgrwt>
<rscale>  0 0.14767672E+04</rscale>
<asrwt>0</asrwt>
<pdfrwt beam="1">  1        2 0.46462769E+00 0.14767672E+04</pdfrwt>
<pdfrwt beam="2">  1       -1 0.27773607E-01 0.14767672E+04</pdfrwt>
<totfact> 0.21942053E+01</totfact>
</mgrwt>
</event>
<event>
12    6  0.9533401E-008  0.1936903E+04  0.7818608E-02  0.8636703E-01
          2   -1    0    0  501    0  0.00000000000E+00  0.00000000000E+00  0.43302039876E+03  0.43302039876E+03  0.00000000000E+00 0. -1.
         -1   -1    0    0    0  501 -0.00000000000E+00 -0.00000000000E+00 -0.21659438011E+04  0.21659438011E+04  0.00000000000E+00 0.  1.
         24    2    1    2    0    0 -0.15703735500E+03 -0.63254557146E+03 -0.11891737497E+04  0.13585151245E+04  0.81575154333E+02 0.  0.
        254    2    1    2    0    0  0.15703735500E+03  0.63254557146E+03 -0.54374965265E+03  0.12404490753E+04  0.90458586815E+03 0.  0.
         23    2    4    4    0    0 -0.11518013113E+03 -0.98577204873E+02 -0.40564787449E+03  0.44249198221E+03  0.90912201120E+02 0.  0.
         23    2    4    4    0    0  0.27221748613E+03  0.73112277633E+03 -0.13810177815E+03  0.79795709311E+03  0.94976562843E+02 0.  0.
          2    1    3    3  502    0 -0.39684251227E+02 -0.18919541626E+03 -0.43198452168E+03  0.47326564665E+03  0.00000000000E+00 0. -1.
         -1    1    3    3    0  502 -0.11735310377E+03 -0.44335015520E+03 -0.75718922800E+03  0.88524947788E+03  0.00000000000E+00 0.  1.
         11    1    5    5    0    0 -0.62694139812E+02 -0.60931169986E+02 -0.33732766257E+03  0.34847254494E+03  0.00000000000E+00 0.  1.
        -11    1    5    5    0    0 -0.52485991315E+02 -0.37646034886E+02 -0.68320211919E+02  0.94019437265E+02  0.00000000000E+00 0. -1.
          1    1    6    6  503    0  0.25101888836E+03  0.68215589486E+03 -0.10311847478E+03  0.73415295888E+03  0.00000000000E+00 0. -1.
         -1    1    6    6    0  503  0.21198597769E+02  0.48966881473E+02 -0.34983303378E+02  0.63804134222E+02  0.00000000000E+00 0.  1.
<mgrwt>
<rscale>  0 0.19369025E+04</rscale>
<asrwt>0</asrwt>
<pdfrwt beam="1">  1        2 0.66618521E-01 0.19369025E+04</pdfrwt>
<pdfrwt beam="2">  1       -1 0.33322213E+00 0.19369025E+04</pdfrwt>
<totfact> 0.15574221E+00</totfact>
</mgrwt>
</event>
<event>
12    6  0.9533401E-008  0.1217135E+04  0.7818608E-02  0.9097989E-01
          2   -1    0    0  501    0  0.00000000000E+00  0.00000000000E+00  0.13635074949E+04  0.13635074949E+04  0.00000000000E+00 0. -1.
         -1   -1    0    0    0  501 -0.00000000000E+00 -0.00000000000E+00 -0.27161894641E+03  0.27161894641E+03  0.00000000000E+00 0.  1.
         24    2    1    2    0    0  0.15826182373E+03  0.18862559074E+03  0.42398158558E+03  0.49690345050E+03  0.80785121614E+02 0.  0.
        254    2    1    2    0    0 -0.15826182373E+03 -0.18862559074E+03  0.66790696296E+03  0.11382229909E+04  0.88815845850E+03 0.  0.
         23    2    4    4    0    0 -0.23859765235E+03  0.22770288984E+03  0.61173474100E+03  0.70099443954E+03  0.91631682199E+02 0.  0.
         23    2    4    4    0    0  0.80335828616E+02 -0.41632848058E+03  0.56172221959E+02  0.43722855131E+03  0.90720661708E+02 0.  0.
          4    1    3    3  502    0 -0.94057146869E+01  0.15413813254E+02  0.30747336981E+02  0.35657423339E+02  0.00000000000E+00 0. -1.
         -3    1    3    3    0  502  0.16766753842E+03  0.17321177749E+03  0.39323424860E+03  0.46124602716E+03  0.00000000000E+00 0.  1.
         11    1    5    5    0    0 -0.11868930879E+03  0.15569870428E+03  0.42274236807E+03  0.46587589366E+03  0.00000000000E+00 0. -1.
        -11    1    5    5    0    0 -0.11990834356E+03  0.72004185554E+02  0.18899237293E+03  0.23511854588E+03  0.00000000000E+00 0.  1.
          2    1    6    6  503    0  0.88799134409E+02 -0.36565472852E+03  0.24948510291E+02  0.37710886350E+03  0.00000000000E+00 0. -1.
         -2    1    6    6    0  503 -0.84633057929E+01 -0.50673752055E+02  0.31223711667E+02  0.60119687812E+02  0.00000000000E+00 0.  1.
<mgrwt>
<rscale>  0 0.12171351E+04</rscale>
<asrwt>0</asrwt>
<pdfrwt beam="1">  1        2 0.20977038E+00 0.12171351E+04</pdfrwt>
<pdfrwt beam="2">  1       -1 0.41787531E-01 0.12171351E+04</pdfrwt>
<totfact> 0.95826271E+01</totfact>
</mgrwt>
</event>
<event>
12    6  0.9533401E-008  0.1870448E+04  0.7818608E-02  0.8669708E-01
         -1   -1    0    0    0  501 -0.00000000000E+00  0.00000000000E+00  0.85234989248E+03  0.85234989248E+03  0.00000000000E+00 0.  1.
          2   -1    0    0  501    0  0.00000000000E+00 -0.00000000000E+00 -0.10261556577E+04  0.10261556577E+04  0.00000000000E+00 0. -1.
         24    2    1    2    0    0  0.26332889114E+03  0.40628863618E+03  0.45025436694E+03  0.66586825089E+03  0.78987162232E+02 0.  0.
        254    2    1    2    0    0 -0.26332889114E+03 -0.40628863618E+03 -0.62406013217E+03  0.12126372993E+04  0.92012260613E+03 0.  0.
         23    2    4    4    0    0 -0.51619602514E+03 -0.33849682745E+02 -0.13417207981E+03  0.54216298779E+03  0.91293049799E+02 0.  0.
         23    2    4    4    0    0  0.25286713400E+03 -0.37243895344E+03 -0.48988805237E+03  0.67047431151E+03  0.83023713809E+02 0.  0.
          4    1    3    3  502    0  0.10762666504E+03  0.11943399333E+03  0.18649442113E+03  0.24622783535E+03  0.00000000000E+00 0. -1.
         -3    1    3    3    0  502  0.15570222610E+03  0.28685464286E+03  0.26375994581E+03  0.41964041554E+03  0.00000000000E+00 0.  1.
         11    1    5    5    0    0 -0.46715482971E+03 -0.54652307365E+02 -0.13337599033E+03  0.48888614669E+03  0.00000000000E+00 0. -1.
        -11    1    5    5    0    0 -0.49041195426E+02  0.20802624620E+02 -0.79608947569E+00  0.53276841107E+02  0.00000000000E+00 0.  1.
          1    1    6    6  503    0  0.22072567908E+03 -0.26139048024E+03 -0.36983712992E+03  0.50380979669E+03  0.00000000000E+00 0. -1.
         -1    1    6    6    0  503  0.32141454916E+02 -0.11104847320E+03 -0.12005092244E+03  0.16666451483E+03  0.00000000000E+00 0.  1.
<mgrwt>
<rscale>  0 0.18704477E+04</rscale>
<asrwt>0</asrwt>
<pdfrwt beam="1">  1        2 0.15787010E+00 0.18704477E+04</pdfrwt>
<pdfrwt beam="2">  1       -1 0.13113075E+00 0.18704477E+04</pdfrwt>
<totfact> 0.12878331E+01</totfact>
</mgrwt>
</event>
<event>
12    6  0.9533401E-008  0.1301466E+04  0.7818608E-02  0.9028404E-01
         -1   -1    0    0    0  501 -0.00000000000E+00  0.00000000000E+00  0.82006252915E+03  0.82006252915E+03  0.00000000000E+00 0.  1.
          2   -1    0    0  501    0  0.00000000000E+00 -0.00000000000E+00 -0.51636710791E+03  0.51636710791E+03  0.00000000000E+00 0. -1.
         24    2    1    2    0    0  0.17756776042E+03 -0.78802734712E+02  0.34297723653E+03  0.40190812131E+03  0.78463830264E+02 0.  0.
        254    2    1    2    0    0 -0.17756776042E+03  0.78802734712E+02 -0.39281815295E+02  0.93452151575E+03  0.91326185831E+03 0.  0.
         23    2    4    4    0    0 -0.34303648693E+03  0.73747140495E+02 -0.39186558469E+03  0.53370819894E+03  0.90405381823E+02 0.  0.
         23    2    4    4    0    0  0.16546872651E+03  0.50555942173E+01  0.35258376939E+03  0.40081331681E+03  0.94501544995E+02 0.  0.
          4    1    3    3  502    0  0.21221258244E+02 -0.33754949936E+02  0.11582086401E+03  0.12249167721E+03  0.00000000000E+00 0. -1.
         -3    1    3    3    0  502  0.15634650217E+03 -0.45047784776E+02  0.22715637252E+03  0.27941644410E+03  0.00000000000E+00 0.  1.
         11    1    5    5    0    0 -0.33314511031E+03  0.61807306786E+02 -0.34174279620E+03  0.48124208715E+03  0.00000000000E+00 0. -1.
        -11    1    5    5    0    0 -0.98913766189E+01  0.11939833709E+02 -0.50122788490E+02  0.52466111791E+02  0.00000000000E+00 0.  1.
          4    1    6    6  503    0  0.13885634967E+03  0.19887214259E+02  0.19441394465E+03  0.23973604029E+03  0.00000000000E+00 0. -1.
         -4    1    6    6    0  503  0.26612376832E+02 -0.14831620042E+02  0.15816982474E+03  0.16107727652E+03  0.00000000000E+00 0.  1.
<mgrwt>
<rscale>  0 0.13014658E+04</rscale>
<asrwt>0</asrwt>
<pdfrwt beam="1">  1        2 0.79441094E-01 0.13014658E+04</pdfrwt>
<pdfrwt beam="2">  1       -1 0.12616347E+00 0.13014658E+04</pdfrwt>
<totfact> 0.36353821E+01</totfact>
</mgrwt>
</event>
<event>
12    6  0.9533401E-008  0.1450950E+04  0.7818608E-02  0.8917742E-01
         -1   -1    0    0    0  501 -0.00000000000E+00  0.00000000000E+00  0.89427381706E+03  0.89427381706E+03  0.00000000000E+00 0.  1.
          2   -1    0    0  501    0  0.00000000000E+00 -0.00000000000E+00 -0.58853818562E+03  0.58853818562E+03  0.00000000000E+00 0. -1.
         24    2    1    2    0    0  0.52723216890E+02  0.16237462993E+03 -0.29524582635E+03  0.35060068762E+03  0.81274141849E+02 0.  0.
        254    2    1    2    0    0 -0.52723216890E+02 -0.16237462993E+03  0.60098145779E+03  0.11322113151E+04  0.94423434131E+03 0.  0.
         23    2    4    4    0    0 -0.39936427086E+03 -0.33799306406E+03  0.47865884998E+03  0.71461355622E+03  0.88470943722E+02 0.  0.
         23    2    4    4    0    0  0.34664105397E+03  0.17561843412E+03  0.12232260781E+03  0.41759775885E+03  0.91778064447E+02 0.  0.
          4    1    3    3  502    0 -0.11641392264E+02  0.95016268868E+02 -0.15738569304E+03  0.18421148102E+03  0.00000000000E+00 0. -1.
         -1    1    3    3    0  502  0.64364609154E+02  0.67358361066E+02 -0.13786013331E+03  0.16638920660E+03  0.00000000000E+00 0.  1.
         11    1    5    5    0    0 -0.52098353933E+02 -0.41082912206E+02  0.10583757108E+03  0.12491451321E+03  0.00000000000E+00 0. -1.
        -11    1    5    5    0    0 -0.34726591692E+03 -0.29691015185E+03  0.37282127890E+03  0.58969904301E+03  0.00000000000E+00 0.  1.
          2    1    6    6  503    0  0.23038446934E+03  0.15215656687E+03  0.56015722684E+02  0.28172040349E+03  0.00000000000E+00 0. -1.
         -2    1    6    6    0  503  0.11625658462E+03  0.23461867258E+02  0.66306885129E+02  0.13587735536E+03  0.00000000000E+00 0.  1.
<mgrwt>
<rscale>  0 0.14509504E+04</rscale>
<asrwt>0</asrwt>
<pdfrwt beam="1">  1        2 0.90544336E-01 0.14509504E+04</pdfrwt>
<pdfrwt beam="2">  1       -1 0.13758059E+00 0.14509504E+04</pdfrwt>
<totfact> 0.24683366E+01</totfact>
</mgrwt>
</event>
<event>
12    6  0.9533401E-008  0.2055643E+04  0.7818608E-02  0.8581039E-01
          2   -1    0    0  501    0  0.00000000000E+00  0.00000000000E+00  0.39811531895E+04  0.39811531895E+04  0.00000000000E+00 0. -1.
         -1   -1    0    0    0  501 -0.00000000000E+00 -0.00000000000E+00 -0.26535446161E+03  0.26535446161E+03  0.00000000000E+00 0.  1.
         24    2    1    2    0    0  0.52588300561E+03  0.56218576059E+03  0.88030088427E+03  0.11720994597E+04  0.79257374910E+02 0.  0.
        254    2    1    2    0    0 -0.52588300561E+03 -0.56218576059E+03  0.28354978437E+04  0.30744081915E+04  0.90516956507E+03 0.  0.
         23    2    4    4    0    0 -0.50280532450E+03 -0.48829448946E+03  0.94514970881E+03  0.11803627901E+04  0.93293308109E+02 0.  0.
         23    2    4    4    0    0 -0.23077681110E+02 -0.73891271138E+02  0.18903481349E+04  0.18940454014E+04  0.89439434354E+02 0.  0.
          4    1    3    3  502    0  0.16815273254E+03  0.15657736474E+03  0.31342172396E+03  0.38861933773E+03  0.00000000000E+00 0. -1.
         -3    1    3    3    0  502  0.35773027307E+03  0.40560839585E+03  0.56687916031E+03  0.78348012192E+03  0.00000000000E+00 0.  1.
         11    1    5    5    0    0 -0.10998134398E+03 -0.57645588845E+02  0.16569852873E+03  0.20706258079E+03  0.00000000000E+00 0.  1.
        -11    1    5    5    0    0 -0.39282398051E+03 -0.43064890061E+03  0.77945118007E+03  0.97330020928E+03  0.00000000000E+00 0. -1.
          3    1    6    6  503    0 -0.30660963421E+02 -0.29590860828E+02  0.15680169654E+04  0.15685958426E+04  0.00000000000E+00 0. -1.
         -3    1    6    6    0  503  0.75832823102E+01 -0.44300410310E+02  0.32233116947E+03  0.32544955882E+03  0.00000000000E+00 0.  1.
<mgrwt>
<rscale>  0 0.20556427E+04</rscale>
<asrwt>0</asrwt>
<pdfrwt beam="1">  1        2 0.61248506E+00 0.20556427E+04</pdfrwt>
<pdfrwt beam="2">  1       -1 0.40823766E-01 0.20556427E+04</pdfrwt>
<totfact> 0.22088515E+00</totfact>
</mgrwt>
</event>
<event>
12    6  0.9533401E-008  0.2999145E+04  0.7818608E-02  0.8243975E-01
          2   -1    0    0  501    0  0.00000000000E+00  0.00000000000E+00  0.14209435272E+04  0.14209435272E+04  0.00000000000E+00 0. -1.
         -1   -1    0    0    0  501 -0.00000000000E+00 -0.00000000000E+00 -0.15825527124E+04  0.15825527124E+04  0.00000000000E+00 0.  1.
         24    2    1    2    0    0  0.45575673036E+03 -0.67909841350E+03 -0.11864173288E+04  0.14439326749E+04  0.92014341715E+02 0.  0.
        254    2    1    2    0    0 -0.45575673036E+03  0.67909841350E+03  0.10248081436E+04  0.15595635647E+04  0.84446310074E+03 0.  0.
         23    2    4    4    0    0 -0.25341129757E+03 -0.15548755190E+03  0.22988491542E+03  0.38587687289E+03  0.87522695112E+02 0.  0.
         23    2    4    4    0    0 -0.20234543279E+03  0.83458596540E+03  0.79492322820E+03  0.11736866918E+04  0.90333293469E+02 0.  0.
          4    1    3    3  502    0  0.44383254633E+02 -0.33062906927E+02 -0.10611865492E+03  0.11968374170E+03  0.00000000000E+00 0. -1.
         -3    1    3    3    0  502  0.41137347573E+03 -0.64603550657E+03 -0.10802986739E+04  0.13242489332E+04  0.00000000000E+00 0.  1.
         11    1    5    5    0    0 -0.24999798417E+03 -0.16506955530E+03  0.22453928894E+03  0.37438595386E+03  0.00000000000E+00 0.  1.
        -11    1    5    5    0    0 -0.34133134069E+01  0.95820033989E+01  0.53456264761E+01  0.11490919022E+02  0.00000000000E+00 0. -1.
          3    1    6    6  503    0 -0.27111014729E+02  0.11746853954E+03  0.71853007473E+02  0.14034500199E+03  0.00000000000E+00 0. -1.
         -3    1    6    6    0  503 -0.17523441806E+03  0.71711742586E+03  0.72307022073E+03  0.10333416898E+04  0.00000000000E+00 0.  1.
<mgrwt>
<rscale>  0 0.29991452E+04</rscale>
<asrwt>0</asrwt>
<pdfrwt beam="1">  1        2 0.21860670E+00 0.29991452E+04</pdfrwt>
<pdfrwt beam="2">  1       -1 0.24346965E+00 0.29991452E+04</pdfrwt>
<totfact> 0.10557617E+00</totfact>
</mgrwt>
</event>
<event>
12    6  0.9533401E-008  0.1684274E+04  0.7818608E-02  0.8770385E-01
          2   -1    0    0  501    0  0.00000000000E+00  0.00000000000E+00  0.96283164407E+03  0.96283164407E+03  0.00000000000E+00 0. -1.
         -1   -1    0    0    0  501 -0.00000000000E+00 -0.00000000000E+00 -0.73657175381E+03  0.73657175381E+03  0.00000000000E+00 0.  1.
         24    2    1    2    0    0  0.52048403895E+03 -0.12367995100E+03 -0.19166079552E+03  0.57389668625E+03  0.80144749463E+02 0.  0.
        254    2    1    2    0    0 -0.52048403895E+03  0.12367995100E+03  0.41792068578E+03  0.11255067116E+04  0.89772339462E+03 0.  0.
         23    2    4    4    0    0 -0.69005440232E-01 -0.13634862023E+02 -0.24804096754E+03  0.26468833752E+03  0.91376584622E+02 0.  0.
         23    2    4    4    0    0 -0.52041503351E+03  0.13731481303E+03  0.66596165332E+03  0.86081837411E+03  0.88409188075E+02 0.  0.
          2    1    3    3  502    0  0.87740732160E+02 -0.25337328641E+02 -0.21562333328E+01  0.91351330833E+02  0.00000000000E+00 0. -1.
         -1    1    3    3    0  502  0.43274330679E+03 -0.98342622363E+02 -0.18950456219E+03  0.48254535541E+03  0.00000000000E+00 0.  1.
         11    1    5    5    0    0 -0.45240790196E+02 -0.56202494859E+01 -0.14229176127E+03  0.14941640347E+03  0.00000000000E+00 0. -1.
        -11    1    5    5    0    0  0.45171784756E+02 -0.80146125376E+01 -0.10574920627E+03  0.11527193405E+03  0.00000000000E+00 0.  1.
          1    1    6    6  503    0 -0.29521014352E+02  0.43290020762E+01  0.11504142954E+02  0.31977739952E+02  0.00000000000E+00 0. -1.
         -1    1    6    6    0  503 -0.49089401916E+03  0.13298581095E+03  0.65445751037E+03  0.82884063416E+03  0.00000000000E+00 0.  1.
<mgrwt>
<rscale>  0 0.16842738E+04</rscale>
<asrwt>0</asrwt>
<pdfrwt beam="1">  1        2 0.14812795E+00 0.16842738E+04</pdfrwt>
<pdfrwt beam="2">  1       -1 0.11331873E+00 0.16842738E+04</pdfrwt>
<totfact> 0.20587040E+01</totfact>
</mgrwt>
</event>
<event>
12    6  0.9533401E-008  0.1494438E+04  0.7818608E-02  0.8888160E-01
         -1   -1    0    0    0  501 -0.00000000000E+00  0.00000000000E+00  0.95235763437E+03  0.95235763437E+03  0.00000000000E+00 0.  1.
          2   -1    0    0  501    0  0.00000000000E+00 -0.00000000000E+00 -0.58626714371E+03  0.58626714371E+03  0.00000000000E+00 0. -1.
         24    2    1    2    0    0  0.14397086915E+03  0.21252466092E+03 -0.28982141957E+03  0.39540362866E+03  0.80332008919E+02 0.  0.
        254    2    1    2    0    0 -0.14397086915E+03 -0.21252466092E+03  0.65591191023E+03  0.11432211494E+04  0.90046644571E+03 0.  0.
         23    2    4    4    0    0 -0.27338927352E+03 -0.51364562174E+03  0.33896625373E+03  0.67922439397E+03  0.88736331855E+02 0.  0.
         23    2    4    4    0    0  0.12941840437E+03  0.30112096082E+03  0.31694565649E+03  0.46399675545E+03  0.86113201407E+02 0.  0.
          4    1    3    3  502    0  0.92264473122E+02  0.19198239536E+03 -0.23758786235E+03  0.31908927507E+03  0.00000000000E+00 0. -1.
         -3    1    3    3    0  502  0.51706396027E+02  0.20542265554E+02 -0.52233557215E+02  0.76314353588E+02  0.00000000000E+00 0.  1.
         11    1    5    5    0    0 -0.26361323870E+03 -0.42996183314E+03  0.28947439609E+03  0.58151057047E+03  0.00000000000E+00 0. -1.
        -11    1    5    5    0    0 -0.97760348219E+01 -0.83683788599E+02  0.49491857641E+02  0.97713823504E+02  0.00000000000E+00 0.  1.
          3    1    6    6  503    0  0.10812950321E+03  0.20092625764E+03  0.16852738488E+03  0.28366323330E+03  0.00000000000E+00 0. -1.
         -3    1    6    6    0  503  0.21288901157E+02  0.10019470318E+03  0.14841827162E+03  0.18033352214E+03  0.00000000000E+00 0.  1.
<mgrwt>
<rscale>  0 0.14944377E+04</rscale>
<asrwt>0</asrwt>
<pdfrwt beam="1">  1        2 0.90194945E-01 0.14944377E+04</pdfrwt>
<pdfrwt beam="2">  1       -1 0.14651656E+00 0.14944377E+04</pdfrwt>
<totfact> 0.20938984E+01</totfact>
</mgrwt>
</event>
<event>
12    6  0.9533401E-008  0.1193506E+04  0.7818608E-02  0.9118560E-01
          2   -1    0    0  501    0  0.00000000000E+00  0.00000000000E+00  0.51257743343E+03  0.51257743343E+03  0.00000000000E+00 0. -1.
         -1   -1    0    0    0  501 -0.00000000000E+00 -0.00000000000E+00 -0.69475160724E+03  0.69475160724E+03  0.00000000000E+00 0.  1.
         24    2    1    2    0    0 -0.90515690565E+02  0.19400493968E+03  0.97345623184E+02  0.24833196479E+03  0.79759560715E+02 0.  0.
        254    2    1    2    0    0  0.90515690565E+02 -0.19400493968E+03 -0.27951979699E+03  0.95899707587E+03  0.89202750393E+03 0.  0.
         23    2    4    4    0    0  0.37777650940E+03 -0.28863643685E+02  0.14002646997E+03  0.41495978640E+03  0.95057935262E+02 0.  0.
         23    2    4    4    0    0 -0.28726081884E+03 -0.16514129599E+03 -0.41954626696E+03  0.54403728947E+03  0.10083192218E+03 0.  0.
          2    1    3    3  502    0 -0.10205209061E+03  0.14925967930E+03  0.88401645542E+02  0.20126582422E+03  0.00000000000E+00 0. -1.
         -1    1    3    3    0  502  0.11536400049E+02  0.44745260375E+02  0.89439776418E+01  0.47066140570E+02  0.00000000000E+00 0.  1.
         11    1    5    5    0    0  0.19676600950E+03  0.31430976545E+02  0.60315274332E+02  0.20818909938E+03  0.00000000000E+00 0. -1.
        -11    1    5    5    0    0  0.18101049990E+03 -0.60294620230E+02  0.79711195641E+02  0.20677068703E+03  0.00000000000E+00 0.  1.
          1    1    6    6  503    0 -0.27570423347E+02 -0.54885038843E+02 -0.50570235371E+02  0.79560319493E+02  0.00000000000E+00 0. -1.
         -1    1    6    6    0  503 -0.25969039549E+03 -0.11025625715E+03 -0.36897603159E+03  0.46447696998E+03  0.00000000000E+00 0.  1.
<mgrwt>
<rscale>  0 0.11935058E+04</rscale>
<asrwt>0</asrwt>
<pdfrwt beam="1">  1        2 0.78858067E-01 0.11935058E+04</pdfrwt>
<pdfrwt beam="2">  1       -1 0.10688486E+00 0.11935058E+04</pdfrwt>
<totfact> 0.55172940E+01</totfact>
</mgrwt>
</event>
<event>
12    6  0.9533401E-008  0.2756313E+04  0.7818608E-02  0.8316961E-01
         -1   -1    0    0    0  501 -0.00000000000E+00  0.00000000000E+00  0.14765551132E+04  0.14765551132E+04  0.00000000000E+00 0.  1.
          2   -1    0    0  501    0  0.00000000000E+00 -0.00000000000E+00 -0.12863148947E+04  0.12863148947E+04  0.00000000000E+00 0. -1.
         24    2    1    2    0    0 -0.70801945795E+03  0.80871522425E+03  0.70266784753E+03  0.12858108163E+04  0.65234074668E+02 0.  0.
        254    2    1    2    0    0  0.70801945795E+03 -0.80871522425E+03 -0.51242762904E+03  0.14770591917E+04  0.87396219258E+03 0.  0.
         23    2    4    4    0    0  0.37753913985E+03  0.47992088401E+02 -0.37894134670E+03  0.54439753321E+03  0.89067880060E+02 0.  0.
         23    2    4    4    0    0  0.33048031809E+03 -0.85670731265E+03 -0.13348628234E+03  0.93266165850E+03  0.94204678623E+02 0.  0.
          2    1    3    3  502    0 -0.39629608991E+03  0.44434673333E+03  0.42723857022E+03  0.73282153774E+03  0.00000000000E+00 0. -1.
         -3    1    3    3    0  502 -0.31172336803E+03  0.36436849092E+03  0.27542927731E+03  0.55298927851E+03  0.00000000000E+00 0.  1.
         11    1    5    5    0    0  0.36149014326E+03  0.65160543930E+02 -0.35804125306E+03  0.51294693590E+03  0.00000000000E+00 0. -1.
        -11    1    5    5    0    0  0.16048996589E+02 -0.17168455529E+02 -0.20900093644E+02  0.31450597309E+02  0.00000000000E+00 0.  1.
          2    1    6    6  503    0  0.23868829869E+03 -0.54067767427E+03 -0.12133973630E+03  0.60334714965E+03  0.00000000000E+00 0. -1.
         -2    1    6    6    0  503  0.91792019406E+02 -0.31602963837E+03 -0.12146546036E+02  0.32931450885E+03  0.00000000000E+00 0.  1.
<mgrwt>
<rscale>  0 0.27563126E+04</rscale>
<asrwt>0</asrwt>
<pdfrwt beam="1">  1        2 0.19789460E+00 0.27563126E+04</pdfrwt>
<pdfrwt beam="2">  1       -1 0.22716233E+00 0.27563126E+04</pdfrwt>
<totfact> 0.16514669E+00</totfact>
</mgrwt>
</event>
<event>
12    6  0.9533401E-008  0.2517487E+04  0.7818608E-02  0.8396782E-01
          2   -1    0    0  501    0  0.00000000000E+00  0.00000000000E+00  0.14423008826E+04  0.14423008826E+04  0.00000000000E+00 0. -1.
         -1   -1    0    0    0  501 -0.00000000000E+00 -0.00000000000E+00 -0.10985469977E+04  0.10985469977E+04  0.00000000000E+00 0.  1.
         24    2    1    2    0    0  0.36398902648E+03 -0.10362188898E+04  0.21471801464E+03  0.11219097574E+04  0.79624613287E+02 0.  0.
        254    2    1    2    0    0 -0.36398902648E+03  0.10362188898E+04  0.12903587028E+03  0.14189381229E+04  0.88909928688E+03 0.  0.
         23    2    4    4    0    0 -0.48415613994E+02  0.33244412055E+03  0.45717258593E+03  0.57579243353E+03  0.98320843263E+02 0.  0.
         23    2    4    4    0    0 -0.31557341248E+03  0.70377476921E+03 -0.32813671565E+03  0.84314568938E+03  0.91298657827E+02 0.  0.
          4    1    3    3  502    0  0.20565529385E+02 -0.30763700925E+02 -0.37495786888E+01  0.37194161287E+02  0.00000000000E+00 0. -1.
         -3    1    3    3    0  502  0.34342349709E+03 -0.10054551888E+04  0.21846759333E+03  0.10847155961E+04  0.00000000000E+00 0.  1.
         11    1    5    5    0    0  0.13076644015E+02  0.21173889723E+01  0.25802822086E+02  0.29004613122E+02  0.00000000000E+00 0. -1.
        -11    1    5    5    0    0 -0.61492258009E+02  0.33032673158E+03  0.43136976384E+03  0.54678782041E+03  0.00000000000E+00 0.  1.
          3    1    6    6  503    0 -0.19506175342E+03  0.52081310691E+03 -0.21197924455E+03  0.59517273132E+03  0.00000000000E+00 0. -1.
         -3    1    6    6    0  503 -0.12051165906E+03  0.18296166230E+03 -0.11615747109E+03  0.24797295807E+03  0.00000000000E+00 0.  1.
<mgrwt>
<rscale>  0 0.25174871E+04</rscale>
<asrwt>0</asrwt>
<pdfrwt beam="1">  1        2 0.22189244E+00 0.25174871E+04</pdfrwt>
<pdfrwt beam="2">  1       -1 0.16900723E+00 0.25174871E+04</pdfrwt>
<totfact> 0.34750267E+00</totfact>
</mgrwt>
</event>
<event>
12    6  0.9533401E-008  0.2686028E+04  0.7818608E-02  0.8339553E-01
         -1   -1    0    0    0  501 -0.00000000000E+00  0.00000000000E+00  0.10200145495E+04  0.10200145495E+04  0.00000000000E+00 0.  1.
          2   -1    0    0  501    0  0.00000000000E+00 -0.00000000000E+00 -0.17682949380E+04  0.17682949380E+04  0.00000000000E+00 0. -1.
         24    2    1    2    0    0 -0.10142575905E+04 -0.13605653785E+03  0.29907313258E+03  0.10688425228E+04  0.75827163430E+02 0.  0.
        254    2    1    2    0    0  0.10142575905E+04  0.13605653785E+03 -0.10473535211E+04  0.17194669647E+04  0.90132535921E+03 0.  0.
         23    2    4    4    0    0  0.77527530005E+02  0.37378173762E+03 -0.32703098754E+03  0.51071633114E+03  0.90324962205E+02 0.  0.
         23    2    4    4    0    0  0.93673006046E+03 -0.23772519978E+03 -0.72032253353E+03  0.12087506335E+04  0.90758277473E+02 0.  0.
          2    1    3    3  502    0 -0.69297527069E+03 -0.93290020492E+02  0.24080681665E+03  0.73953071380E+03  0.00000000000E+00 0. -1.
         -1    1    3    3    0  502 -0.32128231977E+03 -0.42766517354E+02  0.58266315932E+02  0.32931180904E+03  0.00000000000E+00 0.  1.
         11    1    5    5    0    0 -0.88588063727E+01  0.66245581798E+02 -0.93883012698E+02  0.11524311533E+03  0.00000000000E+00 0.  1.
        -11    1    5    5    0    0  0.86386336378E+02  0.30753615583E+03 -0.23314797484E+03  0.39547321581E+03  0.00000000000E+00 0. -1.
          4    1    6    6  503    0  0.81126398247E+03 -0.21617113309E+03 -0.58710060280E+03  0.10244834434E+04  0.00000000000E+00 0. -1.
         -4    1    6    6    0  503  0.12546607799E+03 -0.21554066686E+02 -0.13322193074E+03  0.18426719009E+03  0.00000000000E+00 0.  1.
<mgrwt>
<rscale>  0 0.26860280E+04</rscale>
<asrwt>0</asrwt>
<pdfrwt beam="1">  1        2 0.27204537E+00 0.26860280E+04</pdfrwt>
<pdfrwt beam="2">  1       -1 0.15692532E+00 0.26860280E+04</pdfrwt>
<totfact> 0.27708359E+00</totfact>
</mgrwt>
</event>
<event>
12    6  0.9533401E-008  0.1966721E+04  0.7818608E-02  0.8622339E-01
          2   -1    0    0  501    0  0.00000000000E+00  0.00000000000E+00  0.12855809625E+04  0.12855809625E+04  0.00000000000E+00 0. -1.
         -1   -1    0    0    0  501 -0.00000000000E+00 -0.00000000000E+00 -0.75218774425E+03  0.75218774425E+03  0.00000000000E+00 0.  1.
         24    2    1    2    0    0  0.48668129547E+03  0.59734102500E+03  0.12330747533E+03  0.78499377672E+03  0.85647606611E+02 0.  0.
        254    2    1    2    0    0 -0.48668129547E+03 -0.59734102500E+03  0.41008574287E+03  0.12527749300E+04  0.89866552464E+03 0.  0.
         23    2    4    4    0    0 -0.93091798174E+02 -0.74255422185E+03  0.24753059587E+03  0.79348787298E+03  0.91097493925E+02 0.  0.
         23    2    4    4    0    0 -0.39358949729E+03  0.14521319685E+03  0.16255514700E+03  0.45928705700E+03  0.92308504429E+02 0.  0.
          2    1    3    3  502    0  0.20274128034E+03  0.21129395538E+03  0.12330066548E+02  0.29308905281E+03  0.00000000000E+00 0. -1.
         -1    1    3    3    0  502  0.28394001513E+03  0.38604706961E+03  0.11097740879E+03  0.49190472391E+03  0.00000000000E+00 0.  1.
         11    1    5    5    0    0 -0.18081080351E+02 -0.15156963764E+03  0.90333056097E+02  0.17737063326E+03  0.00000000000E+00 0.  1.
        -11    1    5    5    0    0 -0.75010717823E+02 -0.59098458421E+03  0.15719753977E+03  0.61611723972E+03  0.00000000000E+00 0. -1.
          4    1    6    6  503    0 -0.46110992378E+02  0.51215823015E+02  0.35762002457E+02  0.77641515731E+02  0.00000000000E+00 0. -1.
         -4    1    6    6    0  503 -0.34747850491E+03  0.93997373840E+02  0.12679314454E+03  0.38164554127E+03  0.00000000000E+00 0.  1.
<mgrwt>
<rscale>  0 0.19667214E+04</rscale>
<asrwt>0</asrwt>
<pdfrwt beam="1">  1        2 0.19778169E+00 0.19667214E+04</pdfrwt>
<pdfrwt beam="2">  1       -1 0.11572119E+00 0.19667214E+04</pdfrwt>
<totfact> 0.12103725E+01</totfact>
</mgrwt>
</event>
<event>
12    6  0.9533401E-008  0.2363876E+04  0.7818608E-02  0.8453153E-01
          2   -1    0    0  501    0  0.00000000000E+00  0.00000000000E+00  0.19289815363E+04  0.19289815363E+04  0.00000000000E+00 0. -1.
         -1   -1    0    0    0  501 -0.00000000000E+00 -0.00000000000E+00 -0.72420464235E+03  0.72420464235E+03  0.00000000000E+00 0.  1.
         24    2    1    2    0    0 -0.71216477454E+03 -0.69989941355E+03  0.66438679611E+03  0.12019133891E+04  0.78409979665E+02 0.  0.
        254    2    1    2    0    0  0.71216477454E+03  0.69989941355E+03  0.54039009786E+03  0.14512727895E+04  0.90395431114E+03 0.  0.
         23    2    4    4    0    0  0.84558190532E+03  0.28810019318E+03  0.29352527109E+03  0.94455063490E+03  0.89489313321E+02 0.  0.
         23    2    4    4    0    0 -0.13341713079E+03  0.41179922037E+03  0.24686482676E+03  0.50672215465E+03  0.91904138264E+02 0.  0.
          4    1    3    3  502    0 -0.62501837498E+03 -0.62611831329E+03  0.55877391544E+03  0.10463748850E+04  0.00000000000E+00 0. -1.
         -3    1    3    3    0  502 -0.87146399560E+02 -0.73781100264E+02  0.10561288068E+03  0.15553850416E+03  0.00000000000E+00 0.  1.
         11    1    5    5    0    0  0.40092847211E+02  0.27130777170E+02  0.33290082646E+02  0.58751553766E+02  0.00000000000E+00 0. -1.
        -11    1    5    5    0    0  0.80548905811E+03  0.26096941601E+03  0.26023518845E+03  0.88579908113E+03  0.00000000000E+00 0.  1.
          4    1    6    6  503    0 -0.25456366901E+02  0.26935163282E+02  0.46897652948E+02  0.59773903075E+02  0.00000000000E+00 0. -1.
         -4    1    6    6    0  503 -0.10796076389E+03  0.38486405709E+03  0.19996717382E+03  0.44694825157E+03  0.00000000000E+00 0.  1.
<mgrwt>
<rscale>  0 0.23638760E+04</rscale>
<asrwt>0</asrwt>
<pdfrwt beam="1">  1        2 0.29676639E+00 0.23638760E+04</pdfrwt>
<pdfrwt beam="2">  1       -1 0.11141610E+00 0.23638760E+04</pdfrwt>
<totfact> 0.55606073E+00</totfact>
</mgrwt>
</event>
<event>
12    6  0.9533401E-008  0.2771578E+04  0.7818608E-02  0.8312147E-01
          2   -1    0    0  501    0  0.00000000000E+00  0.00000000000E+00  0.13627125105E+04  0.13627125105E+04  0.00000000000E+00 0. -1.
         -1   -1    0    0    0  501 -0.00000000000E+00 -0.00000000000E+00 -0.14092563607E+04  0.14092563607E+04  0.00000000000E+00 0.  1.
         24    2    1    2    0    0  0.77503746084E+02  0.96825854746E+03 -0.71484989494E+03  0.12086709511E+04  0.79647036552E+02 0.  0.
        254    2    1    2    0    0 -0.77503746084E+02 -0.96825854746E+03  0.66830604474E+03  0.15632979201E+04  0.10265164256E+04 0.  0.
         23    2    4    4    0    0  0.33592614423E+03 -0.56748452064E+03  0.71677306017E+03  0.97834581214E+03  0.92259703073E+02 0.  0.
         23    2    4    4    0    0 -0.41342989031E+03 -0.40077402682E+03 -0.48467015425E+02  0.58495210792E+03  0.90971546076E+02 0.  0.
          4    1    3    3  502    0  0.36487563703E+02  0.20629804824E+03 -0.12258380689E+03  0.24272827755E+03  0.00000000000E+00 0. -1.
         -3    1    3    3    0  502  0.41016182381E+02  0.76196049923E+03 -0.59226608805E+03  0.96594267358E+03  0.00000000000E+00 0.  1.
         11    1    5    5    0    0  0.14955220787E+02 -0.22506560044E+01  0.24055403289E+02  0.28414547483E+02  0.00000000000E+00 0.  1.
        -11    1    5    5    0    0  0.32097092344E+03 -0.56523386464E+03  0.69271765688E+03  0.94993126466E+03  0.00000000000E+00 0. -1.
          1    1    6    6  503    0 -0.23532384821E+03 -0.22169124904E+03 -0.72206217553E+02  0.33126735621E+03  0.00000000000E+00 0. -1.
         -1    1    6    6    0  503 -0.17810604210E+03 -0.17908277778E+03  0.23739202129E+02  0.25368475171E+03  0.00000000000E+00 0.  1.
<mgrwt>
<rscale>  0 0.27715781E+04</rscale>
<asrwt>0</asrwt>
<pdfrwt beam="1">  1        2 0.20964808E+00 0.27715781E+04</pdfrwt>
<pdfrwt beam="2">  1       -1 0.21680867E+00 0.27715781E+04</pdfrwt>
<totfact> 0.17463444E+00</totfact>
</mgrwt>
</event>
<event>
12    6  0.9533401E-008  0.2345917E+04  0.7818608E-02  0.8460033E-01
          2   -1    0    0  501    0  0.00000000000E+00  0.00000000000E+00  0.18226043556E+04  0.18226043556E+04  0.00000000000E+00 0. -1.
         -1   -1    0    0    0  501 -0.00000000000E+00 -0.00000000000E+00 -0.75487151657E+03  0.75487151657E+03  0.00000000000E+00 0.  1.
         24    2    1    2    0    0  0.67818028870E+02 -0.90812480471E+03  0.90947332516E+03  0.12895208155E+04  0.80201362695E+02 0.  0.
        254    2    1    2    0    0 -0.67818028870E+02  0.90812480471E+03  0.15825951386E+03  0.12879550566E+04  0.89693489629E+03 0.  0.
         23    2    4    4    0    0  0.11118364768E+03  0.10063185632E+04  0.38062878264E+01  0.10166027679E+04  0.91803298880E+02 0.  0.
         23    2    4    4    0    0 -0.17900167655E+03 -0.98193758480E+02  0.15445322603E+03  0.27135228875E+03  0.89959163878E+02 0.  0.
          2    1    3    3  502    0  0.25319098740E+02 -0.75043690661E+03  0.74695030287E+03  0.10591182004E+04  0.00000000000E+00 0. -1.
         -1    1    3    3    0  502  0.42498930130E+02 -0.15768789810E+03  0.16252302229E+03  0.23040261510E+03  0.00000000000E+00 0.  1.
         11    1    5    5    0    0  0.25152540024E+02  0.62367638250E+03  0.12584400526E+02  0.62431021736E+03  0.00000000000E+00 0. -1.
        -11    1    5    5    0    0  0.86031107658E+02  0.38264218069E+03 -0.87781126996E+01  0.39229255051E+03  0.00000000000E+00 0.  1.
          1    1    6    6  503    0 -0.14025375023E+03 -0.93080331382E+02  0.78075726386E+02  0.18555560243E+03  0.00000000000E+00 0. -1.
         -1    1    6    6    0  503 -0.38747926321E+02 -0.51134270981E+01  0.76377499643E+02  0.85796686314E+02  0.00000000000E+00 0.  1.
<mgrwt>
<rscale>  0 0.23459174E+04</rscale>
<asrwt>0</asrwt>
<pdfrwt beam="1">  1        2 0.28040067E+00 0.23459174E+04</pdfrwt>
<pdfrwt beam="2">  1       -1 0.11613408E+00 0.23459174E+04</pdfrwt>
<totfact> 0.57781709E+00</totfact>
</mgrwt>
</event>
<event>
12    6  0.9533401E-008  0.1310908E+04  0.7818608E-02  0.9020959E-01
          2   -1    0    0  501    0  0.00000000000E+00  0.00000000000E+00  0.23593359936E+04  0.23593359936E+04  0.00000000000E+00 0. -1.
         -1   -1    0    0    0  501 -0.00000000000E+00 -0.00000000000E+00 -0.18209359746E+03  0.18209359746E+03  0.00000000000E+00 0.  1.
         24    2    1    2    0    0 -0.19773259562E+03  0.96445016194E+01  0.32030566067E+02  0.21586953385E+03  0.79890567034E+02 0.  0.
        254    2    1    2    0    0  0.19773259562E+03 -0.96445016194E+01  0.21452118301E+04  0.23255600572E+04  0.87584507078E+03 0.  0.
         23    2    4    4    0    0  0.45500787269E+03  0.95141543252E+02  0.18510500194E+04  0.19105195549E+04  0.87262349622E+02 0.  0.
         23    2    4    4    0    0 -0.25727527707E+03 -0.10478604487E+03  0.29416181070E+03  0.41504050239E+03  0.92502780255E+02 0.  0.
          2    1    3    3  502    0 -0.14677868323E+02 -0.19536603537E+02 -0.89572887829E+01  0.26025981607E+02  0.00000000000E+00 0. -1.
         -1    1    3    3    0  502 -0.18305472729E+03  0.29181105157E+02  0.40987854850E+02  0.18984355224E+03  0.00000000000E+00 0.  1.
         11    1    5    5    0    0  0.30090800082E+03  0.29953518703E+02  0.12951988195E+04  0.13300311351E+04  0.00000000000E+00 0. -1.
        -11    1    5    5    0    0  0.15409987187E+03  0.65188024548E+02  0.55585119993E+03  0.58048841980E+03  0.00000000000E+00 0.  1.
          3    1    6    6  503    0 -0.25090935530E+03 -0.84770330209E+02  0.29153900128E+03  0.39387371419E+03  0.00000000000E+00 0. -1.
         -3    1    6    6    0  503 -0.63659217762E+01 -0.20015714662E+02  0.26228094197E+01  0.21166788201E+02  0.00000000000E+00 0.  1.
<mgrwt>
<rscale>  0 0.13109080E+04</rscale>
<asrwt>0</asrwt>
<pdfrwt beam="1">  1        2 0.36297475E+00 0.13109080E+04</pdfrwt>
<pdfrwt beam="2">  1       -1 0.28014401E-01 0.13109080E+04</pdfrwt>
<totfact> 0.54002110E+01</totfact>
</mgrwt>
</event>
<event>
12    6  0.9533401E-008  0.2337641E+04  0.7818608E-02  0.8463226E-01
         -1   -1    0    0    0  501 -0.00000000000E+00  0.00000000000E+00  0.72232073959E+03  0.72232073959E+03  0.00000000000E+00 0.  1.
          2   -1    0    0  501    0  0.00000000000E+00 -0.00000000000E+00 -0.18913220051E+04  0.18913220051E+04  0.00000000000E+00 0. -1.
         24    2    1    2    0    0  0.60885748807E+03 -0.54412280288E+03  0.13479215492E+03  0.83142460237E+03  0.79503955916E+02 0.  0.
        254    2    1    2    0    0 -0.60885748807E+03  0.54412280288E+03 -0.13037934204E+04  0.17822181423E+04  0.89980395546E+03 0.  0.
         23    2    4    4    0    0 -0.68845515435E+02 -0.10225051710E+03 -0.76143651327E+03  0.77632619293E+03  0.87760588196E+02 0.  0.
         23    2    4    4    0    0 -0.54001197263E+03  0.64637331997E+03 -0.54235690716E+03  0.10058919494E+04  0.90863632665E+02 0.  0.
          4    1    3    3  502    0  0.84715744899E+02 -0.84674944369E+02  0.47995007500E+02  0.12903536098E+03  0.00000000000E+00 0. -1.
         -3    1    3    3    0  502  0.52414174317E+03 -0.45944785851E+03  0.86797147424E+02  0.70238924139E+03  0.00000000000E+00 0.  1.
         11    1    5    5    0    0  0.13432832626E+02 -0.53248348874E+02 -0.24416105118E+03  0.25026075714E+03  0.00000000000E+00 0. -1.
        -11    1    5    5    0    0 -0.82278348061E+02 -0.49002168221E+02 -0.51727546210E+03  0.52606543579E+03  0.00000000000E+00 0.  1.
          1    1    6    6  503    0 -0.69296958746E+02  0.42237952974E+02 -0.46827343187E+02  0.93695854939E+02  0.00000000000E+00 0. -1.
         -1    1    6    6    0  503 -0.47071501389E+03  0.60413536700E+03 -0.49552956397E+03  0.91219609445E+03  0.00000000000E+00 0.  1.
<mgrwt>
<rscale>  0 0.23376408E+04</rscale>
<asrwt>0</asrwt>
<pdfrwt beam="1">  1        2 0.29097261E+00 0.23376408E+04</pdfrwt>
<pdfrwt beam="2">  1       -1 0.11112627E+00 0.23376408E+04</pdfrwt>
<totfact> 0.58843071E+00</totfact>
</mgrwt>
</event>
<event>
12    6  0.9533401E-008  0.2711105E+04  0.7818608E-02  0.8331411E-01
         -1   -1    0    0    0  501 -0.00000000000E+00  0.00000000000E+00  0.46509127787E+03  0.46509127787E+03  0.00000000000E+00 0.  1.
          2   -1    0    0  501    0  0.00000000000E+00 -0.00000000000E+00 -0.39508855618E+04  0.39508855618E+04  0.00000000000E+00 0. -1.
         24    2    1    2    0    0 -0.62865018654E+03 -0.33650357410E+02  0.12009333810E+03  0.64539246105E+03  0.75997469268E+02 0.  0.
        254    2    1    2    0    0  0.62865018654E+03  0.33650357410E+02 -0.36058876220E+04  0.37705843786E+04  0.90473621020E+03 0.  0.
         23    2    4    4    0    0  0.22424756958E+03 -0.21554117587E+02 -0.31200597752E+04  0.31294917109E+04  0.90519695098E+02 0.  0.
         23    2    4    4    0    0  0.40440261696E+03  0.55204474997E+02 -0.48582784680E+03  0.64109266772E+03  0.91553815942E+02 0.  0.
          4    1    3    3  502    0 -0.21756399315E+02  0.10676136950E+02 -0.34158499632E+01  0.24474248554E+02  0.00000000000E+00 0. -1.
         -3    1    3    3    0  502 -0.60689378722E+03 -0.44326494360E+02  0.12350918806E+03  0.62091821249E+03  0.00000000000E+00 0.  1.
         11    1    5    5    0    0  0.68564630138E+02 -0.38685411137E+02 -0.71079099803E+03  0.71513740807E+03  0.00000000000E+00 0. -1.
        -11    1    5    5    0    0  0.15568293944E+03  0.17131293550E+02 -0.24092687772E+04  0.24143543028E+04  0.00000000000E+00 0.  1.
          3    1    6    6  503    0 -0.34617156701E+00  0.60173955200E+01  0.96691338309E+00  0.61044086600E+01  0.00000000000E+00 0. -1.
         -3    1    6    6    0  503  0.40474878852E+03  0.49187079477E+02 -0.48679476019E+03  0.63498825906E+03  0.00000000000E+00 0.  1.
<mgrwt>
<rscale>  0 0.27111049E+04</rscale>
<asrwt>0</asrwt>
<pdfrwt beam="1">  1        2 0.60782851E+00 0.27111049E+04</pdfrwt>
<pdfrwt beam="2">  1       -1 0.71552509E-01 0.27111049E+04</pdfrwt>
<totfact> 0.73708193E-01</totfact>
</mgrwt>
</event>
<event>
12    6  0.9533401E-008  0.2267501E+04  0.7818608E-02  0.8490846E-01
          2   -1    0    0  501    0  0.00000000000E+00  0.00000000000E+00  0.23601706305E+04  0.23601706305E+04  0.00000000000E+00 0. -1.
         -1   -1    0    0    0  501 -0.00000000000E+00 -0.00000000000E+00 -0.54461759665E+03  0.54461759665E+03  0.00000000000E+00 0.  1.
         24    2    1    2    0    0  0.64293817557E+03  0.98704249417E+02 -0.12751741999E+03  0.66760927340E+03  0.79557671323E+02 0.  0.
        254    2    1    2    0    0 -0.64293817557E+03 -0.98704249417E+02  0.19430704538E+04  0.22371789537E+04  0.89796150032E+03 0.  0.
         23    2    4    4    0    0 -0.26959948872E+02 -0.36067221285E+03  0.10665096289E+04  0.11298741897E+04  0.91441850846E+02 0.  0.
         23    2    4    4    0    0 -0.61597822670E+03  0.26196796343E+03  0.87656082490E+03  0.11073047640E+04  0.98532081026E+02 0.  0.
          2    1    3    3  502    0  0.40089896319E+03  0.56662212524E+02 -0.11813859574E+03  0.42176689394E+03  0.00000000000E+00 0. -1.
         -1    1    3    3    0  502  0.24203921238E+03  0.42042036894E+02 -0.93788242478E+01  0.24584237946E+03  0.00000000000E+00 0.  1.
         11    1    5    5    0    0  0.17953779773E+02 -0.79224879670E+02  0.33734685862E+03  0.34698965804E+03  0.00000000000E+00 0. -1.
        -11    1    5    5    0    0 -0.44913728645E+02 -0.28144733318E+03  0.72916277030E+03  0.78288453169E+03  0.00000000000E+00 0.  1.
          3    1    6    6  503    0 -0.57337035207E+03  0.23058747509E+03  0.76194300845E+03  0.98106130921E+03  0.00000000000E+00 0. -1.
         -3    1    6    6    0  503 -0.42607874626E+02  0.31380488335E+02  0.11461781645E+03  0.12624345479E+03  0.00000000000E+00 0.  1.
<mgrwt>
<rscale>  0 0.22675012E+04</rscale>
<asrwt>0</asrwt>
<pdfrwt beam="1">  1        2 0.36310317E+00 0.22675012E+04</pdfrwt>
<pdfrwt beam="2">  1       -1 0.83787324E-01 0.22675012E+04</pdfrwt>
<totfact> 0.61203278E+00</totfact>
</mgrwt>
</event>
<event>
12    6  0.9533401E-008  0.1607114E+04  0.7818608E-02  0.8816190E-01
          2   -1    0    0  501    0  0.00000000000E+00  0.00000000000E+00  0.18033056821E+04  0.18033056821E+04  0.00000000000E+00 0. -1.
         -1   -1    0    0    0  501 -0.00000000000E+00 -0.00000000000E+00 -0.35806671477E+03  0.35806671477E+03  0.00000000000E+00 0.  1.
         24    2    1    2    0    0  0.76890086578E+01  0.42449414032E+03  0.95733194279E+02  0.44205937209E+03  0.77441900459E+02 0.  0.
        254    2    1    2    0    0 -0.76890086578E+01 -0.42449414032E+03  0.13495057731E+04  0.17193130248E+04  0.97704506019E+03 0.  0.
         23    2    4    4    0    0 -0.18483748073E+03 -0.35614190486E+01  0.12159909073E+04  0.12332795630E+04  0.90371544068E+02 0.  0.
         23    2    4    4    0    0  0.17714847207E+03 -0.42093272127E+03  0.13351486578E+03  0.48603346177E+03  0.99178473365E+02 0.  0.
          2    1    3    3  502    0 -0.12979708324E+02  0.21710593927E+03  0.13189702370E+02  0.21789316176E+03  0.00000000000E+00 0. -1.
         -1    1    3    3    0  502  0.20668716982E+02  0.20738820105E+03  0.82543491909E+02  0.22416621033E+03  0.00000000000E+00 0.  1.
         11    1    5    5    0    0 -0.18766217928E+03  0.13438267709E+02  0.11334518886E+04  0.11489607758E+04  0.00000000000E+00 0.  1.
        -11    1    5    5    0    0  0.28246985505E+01 -0.16999686757E+02  0.82539018632E+02  0.84318787162E+02  0.00000000000E+00 0. -1.
          4    1    6    6  503    0  0.56944981916E+01 -0.11092734008E+03  0.51357916117E+02  0.12237212769E+03  0.00000000000E+00 0. -1.
         -4    1    6    6    0  503  0.17145397388E+03 -0.31000538119E+03  0.82156949665E+02  0.36366133408E+03  0.00000000000E+00 0.  1.
<mgrwt>
<rscale>  0 0.16071139E+04</rscale>
<asrwt>0</asrwt>
<pdfrwt beam="1">  1        2 0.27743164E+00 0.16071139E+04</pdfrwt>
<pdfrwt beam="2">  1       -1 0.55087188E-01 0.16071139E+04</pdfrwt>
<totfact> 0.31245537E+01</totfact>
</mgrwt>
</event>
<event>
12    6  0.9533401E-008  0.1268026E+04  0.7818608E-02  0.9055312E-01
         -1   -1    0    0    0  501 -0.00000000000E+00  0.00000000000E+00  0.48236917704E+03  0.48236917704E+03  0.00000000000E+00 0.  1.
          2   -1    0    0  501    0  0.00000000000E+00 -0.00000000000E+00 -0.83332922936E+03  0.83332922936E+03  0.00000000000E+00 0. -1.
         24    2    1    2    0    0 -0.16336857401E+03 -0.11847601571E+03  0.15829017202E+03  0.26840262743E+03  0.79109636464E+02 0.  0.
        254    2    1    2    0    0  0.16336857401E+03  0.11847601571E+03 -0.50925022434E+03  0.10472957790E+04  0.89261794761E+03 0.  0.
         23    2    4    4    0    0  0.27611651034E+03 -0.10329918110E+03  0.14461141840E+03  0.34113150646E+03  0.92451037145E+02 0.  0.
         23    2    4    4    0    0 -0.11274793633E+03  0.22177519681E+03 -0.65386164273E+03  0.70616427251E+03  0.96107215505E+02 0.  0.
          4    1    3    3  502    0 -0.56454240164E+01 -0.38619334355E+02  0.38710806116E+02  0.54971358984E+02  0.00000000000E+00 0. -1.
         -3    1    3    3    0  502 -0.15772315000E+03 -0.79856681352E+02  0.11957936590E+03  0.21343126845E+03  0.00000000000E+00 0.  1.
         11    1    5    5    0    0  0.23449120030E+03 -0.72734070967E+02  0.79576587179E+02  0.25808680967E+03  0.00000000000E+00 0. -1.
        -11    1    5    5    0    0  0.41625310039E+02 -0.30565110131E+02  0.65034831217E+02  0.83044696788E+02  0.00000000000E+00 0.  1.
          1    1    6    6  503    0 -0.12569203185E+03  0.17609657707E+03 -0.49166851351E+03  0.53716516873E+03  0.00000000000E+00 0. -1.
         -1    1    6    6    0  503  0.12944095527E+02  0.45678619740E+02 -0.16219312923E+03  0.16899910378E+03  0.00000000000E+00 0.  1.
<mgrwt>
<rscale>  0 0.12680258E+04</rscale>
<asrwt>0</asrwt>
<pdfrwt beam="1">  1        2 0.12820450E+00 0.12680258E+04</pdfrwt>
<pdfrwt beam="2">  1       -1 0.74210643E-01 0.12680258E+04</pdfrwt>
<totfact> 0.66855928E+01</totfact>
</mgrwt>
</event>
<event>
12    6  0.9533401E-008  0.1263425E+04  0.7818608E-02  0.9059083E-01
          2   -1    0    0  501    0  0.00000000000E+00  0.00000000000E+00  0.15868262852E+04  0.15868262852E+04  0.00000000000E+00 0. -1.
         -1   -1    0    0    0  501 -0.00000000000E+00 -0.00000000000E+00 -0.25148346490E+03  0.25148346490E+03  0.00000000000E+00 0.  1.
         24    2    1    2    0    0 -0.24839640162E+03 -0.17727864498E+03  0.41263713966E+03  0.51881904709E+03  0.75995422866E+02 0.  0.
        254    2    1    2    0    0  0.24839640162E+03  0.17727864498E+03  0.92270568062E+03  0.13194907030E+04  0.89249170973E+03 0.  0.
         23    2    4    4    0    0 -0.25845302119E+02  0.31510043073E+03 -0.12996599753E+02  0.33059471631E+03  0.95748074449E+02 0.  0.
         23    2    4    4    0    0  0.27424170374E+03 -0.13782178575E+03  0.93570228037E+03  0.98889598668E+03  0.90405521280E+02 0.  0.
          2    1    3    3  502    0 -0.19957700888E+03 -0.17507586492E+03  0.34285331764E+03  0.43362534332E+03  0.00000000000E+00 0. -1.
         -1    1    3    3    0  502 -0.48819392737E+02 -0.22027800622E+01  0.69783822016E+02  0.85193703772E+02  0.00000000000E+00 0.  1.
         11    1    5    5    0    0 -0.23324353996E+02  0.57393933377E+02  0.30791510617E+02  0.69182412533E+02  0.00000000000E+00 0.  1.
        -11    1    5    5    0    0 -0.25209481227E+01  0.25770649736E+03 -0.43788110369E+02  0.26141230378E+03  0.00000000000E+00 0. -1.
          1    1    6    6  503    0  0.21345821313E+03 -0.10560166497E+03  0.82384857327E+03  0.85757949606E+03  0.00000000000E+00 0. -1.
         -1    1    6    6    0  503  0.60783490609E+02 -0.32220120783E+02  0.11185370710E+03  0.13131649061E+03  0.00000000000E+00 0.  1.
<mgrwt>
<rscale>  0 0.12634248E+04</rscale>
<asrwt>0</asrwt>
<pdfrwt beam="1">  1        2 0.24412712E+00 0.12634248E+04</pdfrwt>
<pdfrwt beam="2">  1       -1 0.38689765E-01 0.12634248E+04</pdfrwt>
<totfact> 0.82179443E+01</totfact>
</mgrwt>
</event>
<event>
12    6  0.9533401E-008  0.1144988E+04  0.7818608E-02  0.9162419E-01
         -1   -1    0    0    0  501 -0.00000000000E+00  0.00000000000E+00  0.50904472416E+03  0.50904472416E+03  0.00000000000E+00 0.  1.
          2   -1    0    0  501    0  0.00000000000E+00 -0.00000000000E+00 -0.64385226740E+03  0.64385226740E+03  0.00000000000E+00 0. -1.
         24    2    1    2    0    0  0.42034470049E+02 -0.85358916596E+02  0.15445468309E+03  0.19825430182E+03  0.79971730910E+02 0.  0.
        254    2    1    2    0    0 -0.42034470049E+02  0.85358916596E+02 -0.28926222633E+03  0.95464268974E+03  0.90477455102E+03 0.  0.
         23    2    4    4    0    0  0.36176684569E+03  0.26349307306E+03 -0.18033816641E+03  0.49111958166E+03  0.91502672343E+02 0.  0.
         23    2    4    4    0    0 -0.40380131573E+03 -0.17813415646E+03 -0.10892405992E+03  0.46352310808E+03  0.90564565940E+02 0.  0.
          4    1    3    3  502    0 -0.12215170275E+02 -0.60333901438E+02  0.56715772418E+02  0.83702263341E+02  0.00000000000E+00 0. -1.
         -3    1    3    3    0  502  0.54249640324E+02 -0.25025015159E+02  0.97738910674E+02  0.11455203847E+03  0.00000000000E+00 0.  1.
         11    1    5    5    0    0  0.61279736301E+02  0.61153147975E+02 -0.73130087112E+02  0.11332662189E+03  0.00000000000E+00 0. -1.
        -11    1    5    5    0    0  0.30048710939E+03  0.20233992508E+03 -0.10720807929E+03  0.37779295977E+03  0.00000000000E+00 0.  1.
          1    1    6    6  503    0 -0.67889869498E+02 -0.23489330312E+02  0.15236789136E+02  0.73436658163E+02  0.00000000000E+00 0. -1.
         -1    1    6    6    0  503 -0.33591144624E+03 -0.15464482615E+03 -0.12416084906E+03  0.39008644991E+03  0.00000000000E+00 0.  1.
<mgrwt>
<rscale>  0 0.11449884E+04</rscale>
<asrwt>0</asrwt>
<pdfrwt beam="1">  1        2 0.99054194E-01 0.11449884E+04</pdfrwt>
<pdfrwt beam="2">  1       -1 0.78314573E-01 0.11449884E+04</pdfrwt>
<totfact> 0.84045550E+01</totfact>
</mgrwt>
</event>
<event>
12    6  0.9533401E-008  0.1270060E+04  0.7818608E-02  0.9053651E-01
         -1   -1    0    0    0  501 -0.00000000000E+00  0.00000000000E+00  0.11729090475E+04  0.11729090475E+04  0.00000000000E+00 0.  1.
          2   -1    0    0  501    0  0.00000000000E+00 -0.00000000000E+00 -0.34381451328E+03  0.34381451328E+03  0.00000000000E+00 0. -1.
         24    2    1    2    0    0  0.10323759525E+03 -0.12202355996E+03 -0.10876111438E+03  0.20885648209E+03  0.79020882393E+02 0.  0.
        254    2    1    2    0    0 -0.10323759525E+03  0.12202355996E+03  0.93785564857E+03  0.13078670787E+04  0.89743820267E+03 0.  0.
         23    2    4    4    0    0 -0.35945853764E+03  0.71286901373E+02  0.51319336245E+02  0.37921650437E+03  0.82941065371E+02 0.  0.
         23    2    4    4    0    0  0.25622094239E+03  0.50736658585E+02  0.88653631232E+03  0.92865057428E+03  0.90674562065E+02 0.  0.
          2    1    3    3  502    0  0.71063640089E+02 -0.11410087385E+03 -0.11279625960E+03  0.17547662675E+03  0.00000000000E+00 0. -1.
         -1    1    3    3    0  502  0.32173955162E+02 -0.79226861097E+01  0.40351452208E+01  0.33379855346E+02  0.00000000000E+00 0.  1.
         11    1    5    5    0    0 -0.29626405983E+03  0.57429241423E+02  0.73895613001E+02  0.31069450034E+03  0.00000000000E+00 0. -1.
        -11    1    5    5    0    0 -0.63194477809E+02  0.13857659949E+02 -0.22576276756E+02  0.68522004035E+02  0.00000000000E+00 0.  1.
          4    1    6    6  503    0  0.11466222429E+03  0.68164759673E+02  0.45542703229E+03  0.47456047231E+03  0.00000000000E+00 0. -1.
         -4    1    6    6    0  503  0.14155871810E+03 -0.17428101088E+02  0.43110928003E+03  0.45409010197E+03  0.00000000000E+00 0.  1.
<mgrwt>
<rscale>  0 0.12700601E+04</rscale>
<asrwt>0</asrwt>
<pdfrwt beam="1">  1        2 0.52894541E-01 0.12700601E+04</pdfrwt>
<pdfrwt beam="2">  1       -1 0.18044754E+00 0.12700601E+04</pdfrwt>
<totfact> 0.21901444E+01</totfact>
</mgrwt>
</event>
<event>
12    6  0.9533401E-008  0.1171627E+04  0.7818608E-02  0.9138060E-01
          2   -1    0    0  501    0  0.00000000000E+00  0.00000000000E+00  0.34072410156E+03  0.34072410156E+03  0.00000000000E+00 0. -1.
         -1   -1    0    0    0  501 -0.00000000000E+00 -0.00000000000E+00 -0.10072001505E+04  0.10072001505E+04  0.00000000000E+00 0.  1.
         24    2    1    2    0    0  0.10070266754E+03  0.18416094559E+03 -0.24793976128E+03  0.33518209533E+03  0.82562889207E+02 0.  0.
        254    2    1    2    0    0 -0.10070266754E+03 -0.18416094559E+03 -0.41853628761E+03  0.10127421567E+04  0.89800766742E+03 0.  0.
         23    2    4    4    0    0 -0.48931980800E+02 -0.53395569901E+03 -0.34073020434E+03  0.64175891527E+03  0.90853761250E+02 0.  0.
         23    2    4    4    0    0 -0.51770686744E+02  0.34979475341E+03 -0.77806083275E+02  0.37098324142E+03  0.80859169512E+02 0.  0.
          2    1    3    3  502    0  0.15023823641E+02  0.43491900126E+02 -0.12201469308E+02  0.47603954737E+02  0.00000000000E+00 0. -1.
         -1    1    3    3    0  502  0.85678843902E+02  0.14066904547E+03 -0.23573829197E+03  0.28757814060E+03  0.00000000000E+00 0.  1.
         11    1    5    5    0    0  0.29279096055E+01 -0.90533048552E+02 -0.22000670470E+02  0.93213920827E+02  0.00000000000E+00 0. -1.
        -11    1    5    5    0    0 -0.51859890405E+02 -0.44342265046E+03 -0.31872953387E+03  0.54854499444E+03  0.00000000000E+00 0.  1.
          4    1    6    6  503    0 -0.22932301317E+02  0.22620020060E+02 -0.18756259866E+02  0.37274026283E+02  0.00000000000E+00 0. -1.
         -4    1    6    6    0  503 -0.28838385427E+02  0.32717473335E+03 -0.59049823409E+02  0.33370921513E+03  0.00000000000E+00 0.  1.
<mgrwt>
<rscale>  0 0.11716268E+04</rscale>
<asrwt>0</asrwt>
<pdfrwt beam="1">  1        2 0.52419093E-01 0.11716268E+04</pdfrwt>
<pdfrwt beam="2">  1       -1 0.15495387E+00 0.11716268E+04</pdfrwt>
<totfact> 0.34437454E+01</totfact>
</mgrwt>
</event>
<event>
12    6  0.9533401E-008  0.1945362E+04  0.7818608E-02  0.8632600E-01
          2   -1    0    0  501    0  0.00000000000E+00  0.00000000000E+00  0.14218637453E+04  0.14218637453E+04  0.00000000000E+00 0. -1.
         -1   -1    0    0    0  501 -0.00000000000E+00 -0.00000000000E+00 -0.66540018467E+03  0.66540018467E+03  0.00000000000E+00 0.  1.
         24    2    1    2    0    0  0.12165075610E+03 -0.64422000971E+03 -0.11951522701E+03  0.67117651057E+03  0.79847927225E+02 0.  0.
        254    2    1    2    0    0 -0.12165075610E+03  0.64422000971E+03  0.87597878768E+03  0.14160874194E+04  0.89896964114E+03 0.  0.
         23    2    4    4    0    0 -0.24810316558E+03  0.63561717161E+03  0.19227198835E+03  0.71471060841E+03  0.90985529897E+02 0.  0.
         23    2    4    4    0    0  0.12645240947E+03  0.86028380916E+01  0.68370679932E+03  0.70137681103E+03  0.91707267603E+02 0.  0.
          2    1    3    3  502    0  0.96794140601E+02 -0.57589466506E+03 -0.12842289072E+03  0.59792659228E+03  0.00000000000E+00 0. -1.
         -1    1    3    3    0  502  0.24856615503E+02 -0.68325344646E+02  0.89076637173E+01  0.73249918281E+02  0.00000000000E+00 0.  1.
         11    1    5    5    0    0 -0.37806644950E+02  0.81515130419E+02  0.58234013264E+02  0.10707595057E+03  0.00000000000E+00 0.  1.
        -11    1    5    5    0    0 -0.21029652063E+03  0.55410204120E+03  0.13403797509E+03  0.60763465784E+03  0.00000000000E+00 0. -1.
          4    1    6    6  503    0  0.11597487772E+03 -0.10707957113E+02  0.65475336144E+03  0.66503142552E+03  0.00000000000E+00 0. -1.
         -4    1    6    6    0  503  0.10477531756E+02  0.19310795205E+02  0.28953437878E+02  0.36345385513E+02  0.00000000000E+00 0.  1.
<mgrwt>
<rscale>  0 0.19453621E+04</rscale>
<asrwt>0</asrwt>
<pdfrwt beam="1">  1        2 0.21874827E+00 0.19453621E+04</pdfrwt>
<pdfrwt beam="2">  1       -1 0.10236926E+00 0.19453621E+04</pdfrwt>
<totfact> 0.13502633E+01</totfact>
</mgrwt>
</event>
<event>
12    6  0.9533401E-008  0.1554080E+04  0.7818608E-02  0.8849266E-01
         -1   -1    0    0    0  501 -0.00000000000E+00  0.00000000000E+00  0.23419657729E+03  0.23419657729E+03  0.00000000000E+00 0.  1.
          2   -1    0    0  501    0  0.00000000000E+00 -0.00000000000E+00 -0.25781378326E+04  0.25781378326E+04  0.00000000000E+00 0. -1.
         24    2    1    2    0    0  0.47691835235E+03 -0.14883034241E+03 -0.57737786524E+03  0.76777160143E+03  0.80662550587E+02 0.  0.
        254    2    1    2    0    0 -0.47691835235E+03  0.14883034241E+03 -0.17665633901E+04  0.20445628085E+04  0.89993848734E+03 0.  0.
         23    2    4    4    0    0  0.71193928205E+02 -0.28539692448E+03 -0.38035106828E+03  0.48932003183E+03  0.90813977371E+02 0.  0.
         23    2    4    4    0    0 -0.54811228056E+03  0.43422726689E+03 -0.13862123218E+04  0.15552427767E+04  0.90637198781E+02 0.  0.
          4    1    3    3  502    0  0.40953900694E+03 -0.13734653508E+03 -0.45356184251E+03  0.62634224980E+03  0.00000000000E+00 0. -1.
         -3    1    3    3    0  502  0.67379345418E+02 -0.11483807329E+02 -0.12381602273E+03  0.14142935164E+03  0.00000000000E+00 0.  1.
         11    1    5    5    0    0  0.66465613808E+02 -0.25767506044E+03 -0.37633209405E+03  0.46091209531E+03  0.00000000000E+00 0. -1.
        -11    1    5    5    0    0  0.47283143968E+01 -0.27721864045E+02 -0.40189742289E+01  0.28407936514E+02  0.00000000000E+00 0.  1.
          3    1    6    6  503    0 -0.34584522535E+03  0.30181830625E+03 -0.98735608883E+03  0.10888412446E+04  0.00000000000E+00 0. -1.
         -3    1    6    6    0  503 -0.20226705521E+03  0.13240896065E+03 -0.39885623300E+03  0.46640153204E+03  0.00000000000E+00 0.  1.
<mgrwt>
<rscale>  0 0.15540799E+04</rscale>
<asrwt>0</asrwt>
<pdfrwt beam="1">  1        2 0.39663660E+00 0.15540799E+04</pdfrwt>
<pdfrwt beam="2">  1       -1 0.36030242E-01 0.15540799E+04</pdfrwt>
<totfact> 0.25372834E+01</totfact>
</mgrwt>
</event>
<event>
12    6  0.9533401E-008  0.2293486E+04  0.7818608E-02  0.8480494E-01
          2   -1    0    0  501    0  0.00000000000E+00  0.00000000000E+00  0.20420332748E+04  0.20420332748E+04  0.00000000000E+00 0. -1.
         -1   -1    0    0    0  501 -0.00000000000E+00 -0.00000000000E+00 -0.64397579497E+03  0.64397579497E+03  0.00000000000E+00 0.  1.
         24    2    1    2    0    0  0.89211622820E+02 -0.95335830753E+03  0.76750444796E+03  0.12297326728E+04  0.79552451952E+02 0.  0.
        254    2    1    2    0    0 -0.89211622820E+02  0.95335830753E+03  0.63055303183E+03  0.14562763970E+04  0.89793821739E+03 0.  0.
         23    2    4    4    0    0  0.25741973705E+03  0.16453020953E+03  0.48142910526E+03  0.57725230347E+03  0.90061798751E+02 0.  0.
         23    2    4    4    0    0 -0.34663135987E+03  0.78882809800E+03  0.14912392656E+03  0.87902409351E+03  0.89679114893E+02 0.  0.
          2    1    3    3  502    0  0.82121072847E+02 -0.94433432218E+03  0.74964040946E+03  0.12084998660E+04  0.00000000000E+00 0. -1.
         -1    1    3    3    0  502  0.70905499727E+01 -0.90239853502E+01  0.17864038505E+02  0.21232806744E+02  0.00000000000E+00 0.  1.
         11    1    5    5    0    0  0.74083744836E+01 -0.15795187111E+01  0.56466107394E+02  0.56971924455E+02  0.00000000000E+00 0. -1.
        -11    1    5    5    0    0  0.25001136257E+03  0.16610972824E+03  0.42496299787E+03  0.52028037901E+03  0.00000000000E+00 0.  1.
          4    1    6    6  503    0 -0.15349749108E+03  0.24457414097E+03  0.52803737952E+02  0.29354084033E+03  0.00000000000E+00 0. -1.
         -4    1    6    6    0  503 -0.19313386879E+03  0.54425395703E+03  0.96320188611E+02  0.58548325318E+03  0.00000000000E+00 0.  1.
<mgrwt>
<rscale>  0 0.22934864E+04</rscale>
<asrwt>0</asrwt>
<pdfrwt beam="1">  1        2 0.31415896E+00 0.22934864E+04</pdfrwt>
<pdfrwt beam="2">  1       -1 0.99073200E-01 0.22934864E+04</pdfrwt>
<totfact> 0.63623539E+00</totfact>
</mgrwt>
</event>
<event>
12    6  0.9533401E-008  0.1448216E+04  0.7818608E-02  0.8919638E-01
         -1   -1    0    0    0  501 -0.00000000000E+00  0.00000000000E+00  0.42970870410E+03  0.42970870410E+03  0.00000000000E+00 0.  1.
          2   -1    0    0  501    0  0.00000000000E+00 -0.00000000000E+00 -0.12202045779E+04  0.12202045779E+04  0.00000000000E+00 0. -1.
         24    2    1    2    0    0 -0.26927872970E+03 -0.36217253098E+02  0.11583552221E+03  0.30561835211E+03  0.78498313671E+02 0.  0.
        254    2    1    2    0    0  0.26927872970E+03  0.36217253098E+02 -0.90633139600E+03  0.13442949299E+04  0.95491860147E+03 0.  0.
         23    2    4    4    0    0  0.50606107235E+03  0.10205726484E+03 -0.94388365831E+03  0.10797494887E+04  0.91810150717E+02 0.  0.
         23    2    4    4    0    0 -0.23678234265E+03 -0.65840011740E+02  0.37552262310E+02  0.26454544113E+03  0.90406488058E+02 0.  0.
          2    1    3    3  502    0 -0.13534286009E+03 -0.55553776652E+02  0.74151344243E+02  0.16401930901E+03  0.00000000000E+00 0. -1.
         -1    1    3    3    0  502 -0.13393586961E+03  0.19336523554E+02  0.41684177967E+02  0.14159904309E+03  0.00000000000E+00 0.  1.
         11    1    5    5    0    0  0.77710960731E+02  0.22235161706E+02 -0.88989509358E+02  0.12021866997E+03  0.00000000000E+00 0. -1.
        -11    1    5    5    0    0  0.42835011162E+03  0.79822103132E+02 -0.85489414895E+03  0.95953081877E+03  0.00000000000E+00 0.  1.
          1    1    6    6  503    0 -0.41723932654E+02 -0.68810562782E+01  0.43523328893E+02  0.60683734637E+02  0.00000000000E+00 0. -1.
         -1    1    6    6    0  503 -0.19505841000E+03 -0.58958955462E+02 -0.59710665826E+01  0.20386170650E+03  0.00000000000E+00 0.  1.
<mgrwt>
<rscale>  0 0.14482162E+04</rscale>
<asrwt>0</asrwt>
<pdfrwt beam="1">  1        2 0.18772378E+00 0.14482162E+04</pdfrwt>
<pdfrwt beam="2">  1       -1 0.66109033E-01 0.14482162E+04</pdfrwt>
<totfact> 0.47242933E+01</totfact>
</mgrwt>
</event>
<event>
12    6  0.9533401E-008  0.2305148E+04  0.7818608E-02  0.8475894E-01
          2   -1    0    0  501    0  0.00000000000E+00  0.00000000000E+00  0.18552061348E+04  0.18552061348E+04  0.00000000000E+00 0. -1.
         -1   -1    0    0    0  501 -0.00000000000E+00 -0.00000000000E+00 -0.71605355536E+03  0.71605355536E+03  0.00000000000E+00 0.  1.
         24    2    1    2    0    0 -0.35679699721E+03  0.90721196856E+03  0.46247568743E+03  0.10825741138E+04  0.88007370150E+02 0.  0.
        254    2    1    2    0    0  0.35679699721E+03 -0.90721196856E+03  0.67667689203E+03  0.14886855764E+04  0.89886343573E+03 0.  0.
         23    2    4    4    0    0 -0.73445244220E+02 -0.28880755651E+03 -0.16772509413E+03  0.35339725811E+03  0.89184674940E+02 0.  0.
         23    2    4    4    0    0  0.43024224143E+03 -0.61840441205E+03  0.84440198617E+03  0.11352883183E+04  0.91282245106E+02 0.  0.
          2    1    3    3  502    0 -0.30013560808E+03  0.73590293499E+03  0.33958728692E+03  0.86426502787E+03  0.00000000000E+00 0. -1.
         -1    1    3    3    0  502 -0.56661389130E+02  0.17130903357E+03  0.12288840051E+03  0.21830908589E+03  0.00000000000E+00 0.  1.
         11    1    5    5    0    0 -0.41764044777E+01 -0.36930473934E+02 -0.60532069951E+02  0.71031216742E+02  0.00000000000E+00 0. -1.
        -11    1    5    5    0    0 -0.69268839743E+02 -0.25187708257E+03 -0.10719302418E+03  0.28236604137E+03  0.00000000000E+00 0.  1.
          4    1    6    6  503    0  0.34681764405E+03 -0.48291726686E+03  0.71710867178E+03  0.93152370447E+03  0.00000000000E+00 0.  1.
         -4    1    6    6    0  503  0.83424597384E+02 -0.13548714519E+03  0.12729331439E+03  0.20376461383E+03  0.00000000000E+00 0. -1.
<mgrwt>
<rscale>  0 0.23051481E+04</rscale>
<asrwt>0</asrwt>
<pdfrwt beam="1">  1        2 0.28541633E+00 0.23051481E+04</pdfrwt>
<pdfrwt beam="2">  1       -1 0.11016209E+00 0.23051481E+04</pdfrwt>
<totfact> 0.63083250E+00</totfact>
</mgrwt>
</event>
<event>
12    6  0.9533401E-008  0.1509680E+04  0.7818608E-02  0.8878041E-01
          2   -1    0    0  501    0  0.00000000000E+00  0.00000000000E+00  0.10765199441E+04  0.10765199441E+04  0.00000000000E+00 0. -1.
         -1   -1    0    0    0  501 -0.00000000000E+00 -0.00000000000E+00 -0.52928252749E+03  0.52928252749E+03  0.00000000000E+00 0.  1.
         24    2    1    2    0    0 -0.14278009817E+03 -0.45122246795E+03  0.89950688508E+02  0.48827527986E+03  0.79584863768E+02 0.  0.
        254    2    1    2    0    0  0.14278009817E+03  0.45122246795E+03  0.45728672807E+03  0.11175271917E+04  0.90319876023E+03 0.  0.
         23    2    4    4    0    0  0.17877170012E+03  0.64953017079E+03  0.55493334112E+03  0.87722571538E+03  0.87892998045E+02 0.  0.
         23    2    4    4    0    0 -0.35991601951E+02 -0.19830770284E+03 -0.97646613053E+02  0.24030147631E+03  0.87112559729E+02 0.  0.
          2    1    3    3  502    0 -0.41494964509E+02 -0.62807988477E+02 -0.61514784156E+01  0.75528247582E+02  0.00000000000E+00 0. -1.
         -1    1    3    3    0  502 -0.10128513366E+03 -0.38841447947E+03  0.96102166924E+02  0.41274703228E+03  0.00000000000E+00 0.  1.
         11    1    5    5    0    0  0.44059919705E+02  0.12533797724E+03  0.68248429722E+02  0.14936108336E+03  0.00000000000E+00 0.  1.
        -11    1    5    5    0    0  0.13471178042E+03  0.52419219355E+03  0.48668491140E+03  0.72786463202E+03  0.00000000000E+00 0. -1.
          3    1    6    6  503    0  0.64477552631E+01 -0.16476018623E+03 -0.65833014097E+02  0.17754289133E+03  0.00000000000E+00 0. -1.
         -3    1    6    6    0  503 -0.42439357214E+02 -0.33547516601E+02 -0.31813598956E+02  0.62758584986E+02  0.00000000000E+00 0.  1.
<mgrwt>
<rscale>  0 0.15096797E+04</rscale>
<asrwt>0</asrwt>
<pdfrwt beam="1">  1        2 0.16561845E+00 0.15096797E+04</pdfrwt>
<pdfrwt beam="2">  1       -1 0.81428081E-01 0.15096797E+04</pdfrwt>
<totfact> 0.37273559E+01</totfact>
</mgrwt>
</event>
<event>
12    6  0.9533401E-008  0.2344460E+04  0.7818608E-02  0.8460594E-01
          2   -1    0    0  501    0  0.00000000000E+00  0.00000000000E+00  0.96934259412E+03  0.96934259412E+03  0.00000000000E+00 0. -1.
         -1   -1    0    0    0  501 -0.00000000000E+00 -0.00000000000E+00 -0.14175831233E+04  0.14175831233E+04  0.00000000000E+00 0.  1.
         24    2    1    2    0    0 -0.43784513173E+03 -0.40799421660E+03  0.62133285152E+03  0.86602010685E+03  0.75951780327E+02 0.  0.
        254    2    1    2    0    0  0.43784513173E+03  0.40799421660E+03 -0.10695733807E+04  0.15209056105E+04  0.90055483974E+03 0.  0.
         23    2    4    4    0    0  0.67560561936E+03  0.45713068642E+03 -0.77950629038E+03  0.11320322613E+04  0.91954154084E+02 0.  0.
         23    2    4    4    0    0 -0.23776048763E+03 -0.49136469823E+02 -0.29006709029E+03  0.38887334926E+03  0.90217086811E+02 0.  0.
          4    1    3    3  502    0 -0.43629175073E+03 -0.39231689094E+03  0.61142246520E+03  0.84740808683E+03  0.00000000000E+00 0. -1.
         -1    1    3    3    0  502 -0.15533809971E+01 -0.15677325654E+02  0.99103863237E+01  0.18612020021E+02  0.00000000000E+00 0.  1.
         11    1    5    5    0    0  0.28641071090E+03  0.22792944566E+03 -0.29969642842E+03  0.47307597353E+03  0.00000000000E+00 0.  1.
        -11    1    5    5    0    0  0.38919490846E+03  0.22920124076E+03 -0.47980986196E+03  0.65895628775E+03  0.00000000000E+00 0. -1.
          4    1    6    6  503    0 -0.83489198386E+02 -0.39408500040E+02 -0.54778225519E+02  0.10735050123E+03  0.00000000000E+00 0. -1.
         -4    1    6    6    0  503 -0.15427128925E+03 -0.97279697823E+01 -0.23528886477E+03  0.28152284804E+03  0.00000000000E+00 0.  1.
<mgrwt>
<rscale>  0 0.23444605E+04</rscale>
<asrwt>0</asrwt>
<pdfrwt beam="1">  1        2 0.14912963E+00 0.23444605E+04</pdfrwt>
<pdfrwt beam="2">  1       -1 0.21808971E+00 0.23444605E+04</pdfrwt>
<totfact> 0.30786186E+00</totfact>
</mgrwt>
</event>
<event>
12    6  0.9533401E-008  0.2394853E+04  0.7818608E-02  0.8441433E-01
          2   -1    0    0  501    0  0.00000000000E+00  0.00000000000E+00  0.55258016028E+03  0.55258016028E+03  0.00000000000E+00 0. -1.
         -1   -1    0    0    0  501 -0.00000000000E+00 -0.00000000000E+00 -0.25947920835E+04  0.25947920835E+04  0.00000000000E+00 0.  1.
         24    2    1    2    0    0 -0.91819526546E+03  0.44538007148E+03 -0.75277791263E+03  0.12706844804E+04  0.80737286057E+02 0.  0.
        254    2    1    2    0    0  0.91819526546E+03 -0.44538007148E+03 -0.12894340106E+04  0.18766877634E+04  0.90436217309E+03 0.  0.
         23    2    4    4    0    0 -0.13977694307E+03 -0.17832281656E+03 -0.38961784775E+03  0.45977982514E+03  0.90877937935E+02 0.  0.
         23    2    4    4    0    0  0.10579722085E+04 -0.26705725492E+03 -0.89981616288E+03  0.14169079383E+04  0.85639986080E+02 0.  0.
          2    1    3    3  502    0 -0.76557216829E+03  0.38888358641E+03 -0.66275962777E+03  0.10847034216E+04  0.00000000000E+00 0. -1.
         -1    1    3    3    0  502 -0.15262309717E+03  0.56496485061E+02 -0.90018284853E+02  0.18598105877E+03  0.00000000000E+00 0.  1.
         11    1    5    5    0    0 -0.56371463752E+02 -0.18848919346E+02 -0.61384379553E+02  0.85446273992E+02  0.00000000000E+00 0. -1.
        -11    1    5    5    0    0 -0.83405479322E+02 -0.15947389721E+03 -0.32823346819E+03  0.37433355115E+03  0.00000000000E+00 0.  1.
          1    1    6    6  503    0  0.68931007186E+03 -0.18426044179E+03 -0.63865308844E+03  0.95758971013E+03  0.00000000000E+00 0. -1.
         -1    1    6    6    0  503  0.36866213667E+03 -0.82796813124E+02 -0.26116307444E+03  0.45931822817E+03  0.00000000000E+00 0.  1.
<mgrwt>
<rscale>  0 0.23948533E+04</rscale>
<asrwt>0</asrwt>
<pdfrwt beam="1">  1        2 0.85012333E-01 0.23948533E+04</pdfrwt>
<pdfrwt beam="2">  1       -1 0.39919878E+00 0.23948533E+04</pdfrwt>
<totfact> 0.40736909E-01</totfact>
</mgrwt>
</event>
<event>
12    6  0.9533401E-008  0.1439665E+04  0.7818608E-02  0.8925597E-01
          2   -1    0    0  501    0  0.00000000000E+00  0.00000000000E+00  0.22260761254E+04  0.22260761254E+04  0.00000000000E+00 0. -1.
         -1   -1    0    0    0  501 -0.00000000000E+00 -0.00000000000E+00 -0.23276773954E+03  0.23276773954E+03  0.00000000000E+00 0.  1.
         24    2    1    2    0    0 -0.26944817610E+03  0.22567915415E+03  0.10434584169E+04  0.11039587204E+04  0.79912378699E+02 0.  0.
        254    2    1    2    0    0  0.26944817610E+03 -0.22567915415E+03  0.94984996900E+03  0.13548851446E+04  0.89998077271E+03 0.  0.
         23    2    4    4    0    0 -0.21736968862E+03 -0.83570623468E+02  0.76845115476E+03  0.80823136822E+03  0.92125657066E+02 0.  0.
         23    2    4    4    0    0  0.48681786472E+03 -0.14210853069E+03  0.18139881425E+03  0.54665377639E+03  0.93479160939E+02 0.  0.
          4    1    3    3  502    0 -0.26211627065E+03  0.23012206145E+03  0.98625894497E+03  0.10461203607E+04  0.00000000000E+00 0. -1.
         -3    1    3    3    0  502 -0.73319054466E+01 -0.44429072931E+01  0.57199471910E+02  0.57838359671E+02  0.00000000000E+00 0.  1.
         11    1    5    5    0    0 -0.77865026605E+02 -0.21567191075E+02  0.14132298837E+03  0.16278910633E+03  0.00000000000E+00 0. -1.
        -11    1    5    5    0    0 -0.13950466201E+03 -0.62003432393E+02  0.62712816639E+03  0.64544226189E+03  0.00000000000E+00 0.  1.
          1    1    6    6  503    0  0.34742873323E+03 -0.10723868630E+03  0.17316944313E+03  0.40273380358E+03  0.00000000000E+00 0. -1.
         -1    1    6    6    0  503  0.13938913149E+03 -0.34869844386E+02  0.82293711158E+01  0.14391997281E+03  0.00000000000E+00 0.  1.
<mgrwt>
<rscale>  0 0.14396648E+04</rscale>
<asrwt>0</asrwt>
<pdfrwt beam="1">  1        2 0.34247324E+00 0.14396648E+04</pdfrwt>
<pdfrwt beam="2">  1       -1 0.35810423E-01 0.14396648E+04</pdfrwt>
<totfact> 0.41154371E+01</totfact>
</mgrwt>
</event>
<event>
12    6  0.9533401E-008  0.1953079E+04  0.7818608E-02  0.8628878E-01
         -1   -1    0    0    0  501 -0.00000000000E+00  0.00000000000E+00  0.78659444078E+03  0.78659444078E+03  0.00000000000E+00 0.  1.
          2   -1    0    0  501    0  0.00000000000E+00 -0.00000000000E+00 -0.12123515200E+04  0.12123515200E+04  0.00000000000E+00 0. -1.
         24    2    1    2    0    0  0.20623392624E+03 -0.73606392024E+03 -0.97573057176E+02  0.77442664992E+03  0.76769835302E+02 0.  0.
        254    2    1    2    0    0 -0.20623392624E+03  0.73606392024E+03 -0.32818402203E+03  0.12245193108E+04  0.89856567000E+03 0.  0.
         23    2    4    4    0    0 -0.36542961621E+03  0.50630766459E+02  0.10483042362E+03  0.39369636502E+03  0.88910804730E+02 0.  0.
         23    2    4    4    0    0  0.15919568996E+03  0.68543315378E+03 -0.43301444565E+03  0.83082294583E+03  0.87197369060E+02 0.  0.
          4    1    3    3  502    0 -0.36536131844E+00  0.12840939199E+01 -0.24578484557E+01  0.27970350586E+01  0.00000000000E+00 0. -1.
         -3    1    3    3    0  502  0.20659928756E+03 -0.73734801416E+03 -0.95115208720E+02  0.77162961486E+03  0.00000000000E+00 0.  1.
         11    1    5    5    0    0 -0.19725742280E+03  0.44614715916E+02  0.14634488654E+02  0.20276866618E+03  0.00000000000E+00 0.  1.
        -11    1    5    5    0    0 -0.16817219341E+03  0.60160505429E+01  0.90195934963E+02  0.19092769884E+03  0.00000000000E+00 0. -1.
          3    1    6    6  503    0  0.40094583178E+02  0.31674675723E+03 -0.22931535337E+03  0.39309237478E+03  0.00000000000E+00 0. -1.
         -3    1    6    6    0  503  0.11910110679E+03  0.36868639655E+03 -0.20369909228E+03  0.43773057105E+03  0.00000000000E+00 0.  1.
<mgrwt>
<rscale>  0 0.19530786E+04</rscale>
<asrwt>0</asrwt>
<pdfrwt beam="1">  1        2 0.18651562E+00 0.19530786E+04</pdfrwt>
<pdfrwt beam="2">  1       -1 0.12101453E+00 0.19530786E+04</pdfrwt>
<totfact> 0.12007978E+01</totfact>
</mgrwt>
</event>
<event>
12    6  0.9533401E-008  0.3391682E+04  0.7818608E-02  0.8139951E-01
          2   -1    0    0  501    0  0.00000000000E+00  0.00000000000E+00  0.33228051851E+04  0.33228051851E+04  0.00000000000E+00 0. -1.
         -1   -1    0    0    0  501 -0.00000000000E+00 -0.00000000000E+00 -0.86549688499E+03  0.86549688499E+03  0.00000000000E+00 0.  1.
         24    2    1    2    0    0  0.16212729432E+02 -0.14346780115E+04  0.19492360659E+04  0.24217044057E+04  0.81037885088E+02 0.  0.
        254    2    1    2    0    0 -0.16212729432E+02  0.14346780115E+04  0.50807223419E+03  0.17665976644E+04  0.89675306715E+03 0.  0.
         23    2    4    4    0    0  0.51857929834E+02  0.15732351477E+03  0.44387300627E+03  0.48271093106E+03  0.92448169750E+02 0.  0.
         23    2    4    4    0    0 -0.68070659266E+02  0.12773544967E+04  0.64199227926E+02  0.12838867333E+04  0.89305533017E+02 0.  0.
          4    1    3    3  502    0 -0.18857175745E+02 -0.91011172455E+03  0.11914737143E+04  0.14994227410E+04  0.00000000000E+00 0. -1.
         -1    1    3    3    0  502  0.35069905177E+02 -0.52456628691E+03  0.75776235164E+03  0.92228166477E+03  0.00000000000E+00 0.  1.
         11    1    5    5    0    0  0.68060268004E+02  0.13539185972E+03  0.41988824005E+03  0.44639588920E+03  0.00000000000E+00 0. -1.
        -11    1    5    5    0    0 -0.16202338170E+02  0.21931655044E+02  0.23984766213E+02  0.36315041862E+02  0.00000000000E+00 0.  1.
          1    1    6    6  503    0 -0.81340183092E+02  0.11441913491E+04  0.75678304522E+02  0.11495726486E+04  0.00000000000E+00 0. -1.
         -1    1    6    6    0  503  0.13269523826E+02  0.13316314764E+03 -0.11479076597E+02  0.13431408471E+03  0.00000000000E+00 0.  1.
<mgrwt>
<rscale>  0 0.33916825E+04</rscale>
<asrwt>0</asrwt>
<pdfrwt beam="1">  1        2 0.51120079E+00 0.33916825E+04</pdfrwt>
<pdfrwt beam="2">  1       -1 0.13315337E+00 0.33916825E+04</pdfrwt>
<totfact> 0.48240683E-01</totfact>
</mgrwt>
</event>
<event>
12    6  0.9533401E-008  0.1779305E+04  0.7818608E-02  0.8717383E-01
          2   -1    0    0  501    0  0.00000000000E+00  0.00000000000E+00  0.12325366655E+04  0.12325366655E+04  0.00000000000E+00 0. -1.
         -1   -1    0    0    0  501 -0.00000000000E+00 -0.00000000000E+00 -0.64215659259E+03  0.64215659259E+03  0.00000000000E+00 0.  1.
         24    2    1    2    0    0 -0.43844328435E+03  0.45200277102E+03  0.12965862054E+01  0.63466885996E+03  0.79144564325E+02 0.  0.
        254    2    1    2    0    0  0.43844328435E+03 -0.45200277102E+03  0.58908348666E+03  0.12400243981E+04  0.89112408508E+03 0.  0.
         23    2    4    4    0    0  0.35848766473E+01 -0.26678625027E+03 -0.17940408546E+03  0.33316961311E+03  0.87340772511E+02 0.  0.
         23    2    4    4    0    0  0.43485840770E+03 -0.18521652075E+03  0.76848757212E+03  0.90685478499E+03  0.91681286204E+02 0.  0.
          2    1    3    3  502    0 -0.20205133416E+03  0.16308895242E+03 -0.22365942838E+02  0.26062038185E+03  0.00000000000E+00 0. -1.
         -1    1    3    3    0  502 -0.23639195019E+03  0.28891381860E+03  0.23662529044E+02  0.37404847810E+03  0.00000000000E+00 0.  1.
         11    1    5    5    0    0 -0.39858989019E+02 -0.16977718335E+03 -0.10822379853E+03  0.20524478449E+03  0.00000000000E+00 0. -1.
        -11    1    5    5    0    0  0.43443865666E+02 -0.97009066921E+02 -0.71180286938E+02  0.12792482862E+03  0.00000000000E+00 0.  1.
          3    1    6    6  503    0  0.15164615996E+03 -0.62978564723E+02  0.18888995870E+03  0.25028438614E+03  0.00000000000E+00 0. -1.
         -3    1    6    6    0  503  0.28321224774E+03 -0.12223795603E+03  0.57959761342E+03  0.65657039885E+03  0.00000000000E+00 0.  1.
<mgrwt>
<rscale>  0 0.17793050E+04</rscale>
<asrwt>0</asrwt>
<pdfrwt beam="1">  1        2 0.18962103E+00 0.17793050E+04</pdfrwt>
<pdfrwt beam="2">  1       -1 0.98793322E-01 0.17793050E+04</pdfrwt>
<totfact> 0.19139624E+01</totfact>
</mgrwt>
</event>
<event>
12    6  0.9533401E-008  0.1637270E+04  0.7818608E-02  0.8797973E-01
          2   -1    0    0  501    0  0.00000000000E+00  0.00000000000E+00  0.34897595335E+03  0.34897595335E+03  0.00000000000E+00 0. -1.
         -1   -1    0    0    0  501 -0.00000000000E+00 -0.00000000000E+00 -0.19203720200E+04  0.19203720200E+04  0.00000000000E+00 0.  1.
         24    2    1    2    0    0  0.13405829982E+03 -0.44399932548E+03 -0.96304877576E+02  0.48036337950E+03  0.79795476946E+02 0.  0.
        254    2    1    2    0    0 -0.13405829982E+03  0.44399932548E+03 -0.14750911891E+04  0.17889845939E+04  0.89970263542E+03 0.  0.
         23    2    4    4    0    0  0.28137984804E+03  0.12646592301E+03 -0.10798374211E+04  0.11270082853E+04  0.94501696682E+02 0.  0.
         23    2    4    4    0    0 -0.41543814786E+03  0.31753340247E+03 -0.39525376800E+03  0.66197630853E+03  0.92578483188E+02 0.  0.
          2    1    3    3  502    0  0.99217972376E+02 -0.40268183568E+03 -0.71284976370E+02  0.42080686150E+03  0.00000000000E+00 0. -1.
         -1    1    3    3    0  502  0.34840327448E+02 -0.41317489804E+02 -0.25019901205E+02  0.59556518004E+02  0.00000000000E+00 0.  1.
         11    1    5    5    0    0  0.11215039651E+03  0.44889761245E+02 -0.27207272008E+03  0.29768501325E+03  0.00000000000E+00 0.  1.
        -11    1    5    5    0    0  0.16922945152E+03  0.81576161766E+02 -0.80776470100E+03  0.82932327208E+03  0.00000000000E+00 0. -1.
          1    1    6    6  503    0 -0.36703572414E+03  0.25553489758E+03 -0.30039156670E+03  0.53874706497E+03  0.00000000000E+00 0. -1.
         -1    1    6    6    0  503 -0.48402423726E+02  0.61998504892E+02 -0.94862201301E+02  0.12322924355E+03  0.00000000000E+00 0.  1.
<mgrwt>
<rscale>  0 0.16372705E+04</rscale>
<asrwt>0</asrwt>
<pdfrwt beam="1">  1        2 0.53688608E-01 0.16372705E+04</pdfrwt>
<pdfrwt beam="2">  1       -1 0.29544185E+00 0.16372705E+04</pdfrwt>
<totfact> 0.35916547E+00</totfact>
</mgrwt>
</event>
<event>
12    6  0.9533401E-008  0.1705903E+04  0.7818608E-02  0.8758005E-01
         -1   -1    0    0    0  501 -0.00000000000E+00  0.00000000000E+00  0.23315148076E+03  0.23315148076E+03  0.00000000000E+00 0.  1.
          2   -1    0    0  501    0  0.00000000000E+00 -0.00000000000E+00 -0.31204015108E+04  0.31204015108E+04  0.00000000000E+00 0. -1.
         24    2    1    2    0    0  0.41654495742E+03 -0.44952970434E+03 -0.10391998117E+04  0.12090483724E+04  0.79215287155E+02 0.  0.
        254    2    1    2    0    0 -0.41654495742E+03  0.44952970434E+03 -0.18480502184E+04  0.21445046191E+04  0.89890143794E+03 0.  0.
         23    2    4    4    0    0 -0.57950954015E+03  0.27402762479E+03 -0.17577364020E+04  0.18732251821E+04  0.91721740966E+02 0.  0.
         23    2    4    4    0    0  0.16296458273E+03  0.17550207956E+03 -0.90313816438E+02  0.27127943704E+03  0.89874981886E+02 0.  0.
          4    1    3    3  502    0  0.37546763968E+03 -0.41658680566E+03 -0.90248421385E+03  0.10625433033E+04  0.00000000000E+00 0. -1.
         -3    1    3    3    0  502  0.41077317739E+02 -0.32942898683E+02 -0.13671559781E+03  0.14650506917E+03  0.00000000000E+00 0.  1.
         11    1    5    5    0    0 -0.39859340612E+03  0.18664936604E+03 -0.13234527518E+04  0.13947192820E+04  0.00000000000E+00 0. -1.
        -11    1    5    5    0    0 -0.18091613404E+03  0.87378258742E+02 -0.43428365015E+03  0.47850590011E+03  0.00000000000E+00 0.  1.
          4    1    6    6  503    0  0.13674360588E+03  0.16550119139E+03 -0.47160378555E+02  0.21980345631E+03  0.00000000000E+00 0. -1.
         -4    1    6    6    0  503  0.26220976850E+02  0.10000888166E+02 -0.43153437883E+02  0.51475980730E+02  0.00000000000E+00 0.  1.
<mgrwt>
<rscale>  0 0.17059030E+04</rscale>
<asrwt>0</asrwt>
<pdfrwt beam="1">  1        2 0.48006180E+00 0.17059030E+04</pdfrwt>
<pdfrwt beam="2">  1       -1 0.35869457E-01 0.17059030E+04</pdfrwt>
<totfact> 0.11809181E+01</totfact>
</mgrwt>
</event>
<event>
12    6  0.9533401E-008  0.2128369E+04  0.7818608E-02  0.8548848E-01
          2   -1    0    0  501    0  0.00000000000E+00  0.00000000000E+00  0.15222557582E+04  0.15222557582E+04  0.00000000000E+00 0. -1.
         -1   -1    0    0    0  501 -0.00000000000E+00 -0.00000000000E+00 -0.74395448926E+03  0.74395448926E+03  0.00000000000E+00 0.  1.
         24    2    1    2    0    0  0.68113064278E+02 -0.74564531652E+03  0.77840488928E+03  0.10831056540E+04  0.81100915257E+02 0.  0.
        254    2    1    2    0    0 -0.68113064278E+02  0.74564531652E+03 -0.10362032926E+00  0.11831045935E+04  0.91602955236E+03 0.  0.
         23    2    4    4    0    0  0.29811947029E+03  0.26405547153E+03  0.29472043820E+03  0.50368953685E+03  0.90788227351E+02 0.  0.
         23    2    4    4    0    0 -0.36623253457E+03  0.48158984499E+03 -0.29482405853E+03  0.67941505663E+03  0.92889964597E+02 0.  0.
          2    1    3    3  502    0  0.79341403408E+02 -0.47387645111E+03  0.47512887432E+03  0.67572286954E+03  0.00000000000E+00 0. -1.
         -1    1    3    3    0  502 -0.11228339130E+02 -0.27176886542E+03  0.30327601495E+03  0.40738278444E+03  0.00000000000E+00 0.  1.
         11    1    5    5    0    0  0.28644529184E+03  0.25146181196E+03  0.30071261122E+03  0.48550182557E+03  0.00000000000E+00 0.  1.
        -11    1    5    5    0    0  0.11674178448E+02  0.12593659575E+02 -0.59921730165E+01  0.18187711274E+02  0.00000000000E+00 0. -1.
          4    1    6    6  503    0 -0.68577581092E+01 -0.40249446195E+01 -0.46487975248E+01  0.92108818199E+01  0.00000000000E+00 0. -1.
         -4    1    6    6    0  503 -0.35937477646E+03  0.48561478961E+03 -0.29017526100E+03  0.67020417482E+03  0.00000000000E+00 0.  1.
<mgrwt>
<rscale>  0 0.21283693E+04</rscale>
<asrwt>0</asrwt>
<pdfrwt beam="1">  1        2 0.23419319E+00 0.21283693E+04</pdfrwt>
<pdfrwt beam="2">  1       -1 0.11445454E+00 0.21283693E+04</pdfrwt>
<totfact> 0.89680416E+00</totfact>
</mgrwt>
</event>
<event>
12    6  0.9533401E-008  0.3458512E+04  0.7818608E-02  0.8123693E-01
         -1   -1    0    0    0  501 -0.00000000000E+00  0.00000000000E+00  0.15968574746E+04  0.15968574746E+04  0.00000000000E+00 0.  1.
          2   -1    0    0  501    0  0.00000000000E+00 -0.00000000000E+00 -0.18726322266E+04  0.18726322266E+04  0.00000000000E+00 0. -1.
         24    2    1    2    0    0  0.74619483953E+03  0.11140267226E+02  0.13053182604E+04  0.15057532199E+04  0.80660736811E+02 0.  0.
        254    2    1    2    0    0 -0.74619483953E+03 -0.11140267226E+02 -0.15810930123E+04  0.19637364813E+04  0.89413366458E+03 0.  0.
         23    2    4    4    0    0  0.10742193037E+03 -0.10039300323E+03 -0.13101589407E+02  0.17347844842E+03  0.91131192253E+02 0.  0.
         23    2    4    4    0    0 -0.85361676990E+03  0.89252736001E+02 -0.15679914229E+04  0.17902580328E+04  0.98990308010E+02 0.  0.
          4    1    3    3  502    0  0.48470701264E+03  0.27443318640E+02  0.91189486894E+03  0.10330761230E+04  0.00000000000E+00 0. -1.
         -3    1    3    3    0  502  0.26148782689E+03 -0.16303051413E+02  0.39342339141E+03  0.47267709697E+03  0.00000000000E+00 0.  1.
         11    1    5    5    0    0  0.10026574123E+02  0.15620367425E+02  0.85979828589E+01  0.20456132977E+02  0.00000000000E+00 0. -1.
        -11    1    5    5    0    0  0.97395356246E+02 -0.11601337065E+03 -0.21699572266E+02  0.15302231545E+03  0.00000000000E+00 0.  1.
          1    1    6    6  503    0 -0.35360034794E+02  0.21880584842E+02 -0.99393741744E+02  0.10774139386E+03  0.00000000000E+00 0. -1.
         -1    1    6    6    0  503 -0.81825673510E+03  0.67372151158E+02 -0.14685976812E+04  0.16825166390E+04  0.00000000000E+00 0.  1.
<mgrwt>
<rscale>  0 0.34585123E+04</rscale>
<asrwt>0</asrwt>
<pdfrwt beam="1">  1        2 0.28809727E+00 0.34585123E+04</pdfrwt>
<pdfrwt beam="2">  1       -1 0.24567038E+00 0.34585123E+04</pdfrwt>
<totfact> 0.54897880E-01</totfact>
</mgrwt>
</event>
<event>
12    6  0.9533401E-008  0.1604559E+04  0.7818608E-02  0.8817752E-01
          2   -1    0    0  501    0  0.00000000000E+00  0.00000000000E+00  0.13211968948E+04  0.13211968948E+04  0.00000000000E+00 0. -1.
         -1   -1    0    0    0  501 -0.00000000000E+00 -0.00000000000E+00 -0.48717399778E+03  0.48717399778E+03  0.00000000000E+00 0.  1.
         24    2    1    2    0    0 -0.38587497904E+03 -0.19280143880E+03 -0.93627639970E+02  0.44857052075E+03  0.79859143905E+02 0.  0.
        254    2    1    2    0    0  0.38587497904E+03  0.19280143880E+03  0.92765053702E+03  0.13598003719E+04  0.89579553373E+03 0.  0.
         23    2    4    4    0    0  0.29186430557E+03 -0.24783176264E+03  0.78527076421E+03  0.87830580863E+03  0.90363515373E+02 0.  0.
         23    2    4    4    0    0  0.94010673475E+02  0.44063320144E+03  0.14237977281E+03  0.48149456324E+03  0.92570998626E+02 0.  0.
          2    1    3    3  502    0 -0.80852541725E+02 -0.42838559098E+02  0.12830105384E+02  0.92395277224E+02  0.00000000000E+00 0. -1.
         -1    1    3    3    0  502 -0.30502243732E+03 -0.14996287970E+03 -0.10645774535E+03  0.35617524352E+03  0.00000000000E+00 0.  1.
         11    1    5    5    0    0  0.24236937660E+03 -0.22884649637E+03  0.60927383734E+03  0.69449855470E+03  0.00000000000E+00 0. -1.
        -11    1    5    5    0    0  0.49494928969E+02 -0.18985266268E+02  0.17599692687E+03  0.18380725393E+03  0.00000000000E+00 0.  1.
          1    1    6    6  503    0  0.42470755550E+02  0.25891729694E+03  0.12835587805E+03  0.29209101862E+03  0.00000000000E+00 0. -1.
         -1    1    6    6    0  503  0.51539917925E+02  0.18171590450E+03  0.14023894756E+02  0.18940354461E+03  0.00000000000E+00 0.  1.
<mgrwt>
<rscale>  0 0.16045595E+04</rscale>
<asrwt>0</asrwt>
<pdfrwt beam="1">  1        2 0.20326106E+00 0.16045595E+04</pdfrwt>
<pdfrwt beam="2">  1       -1 0.74949846E-01 0.16045595E+04</pdfrwt>
<totfact> 0.31437508E+01</totfact>
</mgrwt>
</event>
<event>
12    6  0.9533401E-008  0.1242413E+04  0.7818608E-02  0.9076522E-01
         -1   -1    0    0    0  501 -0.00000000000E+00  0.00000000000E+00  0.19200393626E+03  0.19200393626E+03  0.00000000000E+00 0.  1.
          2   -1    0    0  501    0  0.00000000000E+00 -0.00000000000E+00 -0.20098404333E+04  0.20098404333E+04  0.00000000000E+00 0. -1.
         24    2    1    2    0    0 -0.14961583248E+03 -0.15508560644E+03 -0.76660871424E+03  0.80092834800E+03  0.85795426604E+02 0.  0.
        254    2    1    2    0    0  0.14961583248E+03  0.15508560644E+03 -0.10512277828E+04  0.14009160216E+04  0.90058281436E+03 0.  0.
         23    2    4    4    0    0  0.27100979722E+03 -0.12928712069E+03 -0.13242211874E+02  0.31400856391E+03  0.90909582924E+02 0.  0.
         23    2    4    4    0    0 -0.12139396473E+03  0.28437272713E+03 -0.10379855710E+04  0.10869074577E+04  0.91375234424E+02 0.  0.
          2    1    3    3  502    0 -0.99759039600E+02 -0.53904884070E+02 -0.29561712304E+03  0.31661820216E+03  0.00000000000E+00 0. -1.
         -1    1    3    3    0  502 -0.49856792882E+02 -0.10118072237E+03 -0.47099159121E+03  0.48431014584E+03  0.00000000000E+00 0.  1.
         11    1    5    5    0    0  0.83224649000E+02 -0.19942991138E+02 -0.41085069569E+02  0.94931807305E+02  0.00000000000E+00 0.  1.
        -11    1    5    5    0    0  0.18778514822E+03 -0.10934412955E+03  0.27842857696E+02  0.21907675660E+03  0.00000000000E+00 0. -1.
          4    1    6    6  503    0 -0.10403562341E+03  0.18790713597E+03 -0.57853734172E+03  0.61712070007E+03  0.00000000000E+00 0. -1.
         -4    1    6    6    0  503 -0.17358341320E+02  0.96465591153E+02 -0.45944822924E+03  0.46978675763E+03  0.00000000000E+00 0.  1.
<mgrwt>
<rscale>  0 0.12424126E+04</rscale>
<asrwt>0</asrwt>
<pdfrwt beam="1">  1        2 0.30920621E+00 0.12424126E+04</pdfrwt>
<pdfrwt beam="2">  1       -1 0.29539069E-01 0.12424126E+04</pdfrwt>
<totfact> 0.77630921E+01</totfact>
</mgrwt>
</event>
<event>
12    6  0.9533401E-008  0.2558481E+04  0.7818608E-02  0.8382442E-01
         -1   -1    0    0    0  501 -0.00000000000E+00  0.00000000000E+00  0.12610245376E+04  0.12610245376E+04  0.00000000000E+00 0.  1.
          2   -1    0    0  501    0  0.00000000000E+00 -0.00000000000E+00 -0.12977200267E+04  0.12977200267E+04  0.00000000000E+00 0. -1.
         24    2    1    2    0    0 -0.75641184178E+03  0.37373641235E+03  0.72299479795E+03  0.11140780947E+04  0.81306474742E+02 0.  0.
        254    2    1    2    0    0  0.75641184178E+03 -0.37373641235E+03 -0.75969028706E+03  0.14446664697E+04  0.89336112302E+03 0.  0.
         23    2    4    4    0    0  0.68594875469E+03 -0.53086428863E+03 -0.26235183973E+03  0.91074182212E+03  0.90992262076E+02 0.  0.
         23    2    4    4    0    0  0.70463087091E+02  0.15712787628E+03 -0.49733844733E+03  0.53392464758E+03  0.89865354550E+02 0.  0.
          2    1    3    3  502    0 -0.40422442253E+02  0.40183836680E+02  0.37488150558E+02  0.68220788623E+02  0.00000000000E+00 0. -1.
         -1    1    3    3    0  502 -0.71598939952E+03  0.33355257567E+03  0.68550664739E+03  0.10458573060E+04  0.00000000000E+00 0.  1.
         11    1    5    5    0    0  0.59139869221E+03 -0.41592276309E+03 -0.22639238961E+03  0.75762634067E+03  0.00000000000E+00 0.  1.
        -11    1    5    5    0    0  0.94550062472E+02 -0.11494152554E+03 -0.35959450118E+02  0.15311548145E+03  0.00000000000E+00 0. -1.
          1    1    6    6  503    0  0.21786480051E+02  0.11727016481E+02 -0.17830089124E+02  0.30497306548E+02  0.00000000000E+00 0. -1.
         -1    1    6    6    0  503  0.48676607041E+02  0.14540085980E+03 -0.47950835821E+03  0.50342734103E+03  0.00000000000E+00 0.  1.
<mgrwt>
<rscale>  0 0.25584814E+04</rscale>
<asrwt>0</asrwt>
<pdfrwt beam="1">  1        2 0.19964923E+00 0.25584814E+04</pdfrwt>
<pdfrwt beam="2">  1       -1 0.19400378E+00 0.25584814E+04</pdfrwt>
<totfact> 0.27780259E+00</totfact>
</mgrwt>
</event>
<event>
12    6  0.9533401E-008  0.2097467E+04  0.7818608E-02  0.8562360E-01
          2   -1    0    0  501    0  0.00000000000E+00  0.00000000000E+00  0.21546446419E+04  0.21546446419E+04  0.00000000000E+00 0. -1.
         -1   -1    0    0    0  501 -0.00000000000E+00 -0.00000000000E+00 -0.51045179407E+03  0.51045179407E+03  0.00000000000E+00 0.  1.
         24    2    1    2    0    0  0.76372600724E+03 -0.21343995115E+03  0.27536260093E+03  0.84333839213E+03  0.81000338086E+02 0.  0.
        254    2    1    2    0    0 -0.76372600724E+03  0.21343995115E+03  0.13688302469E+04  0.18217580439E+04  0.90347777979E+03 0.  0.
         23    2    4    4    0    0 -0.38321257020E+03 -0.30411367455E+03  0.33029624650E+03  0.59729398386E+03  0.91255091365E+02 0.  0.
         23    2    4    4    0    0 -0.38051343705E+03  0.51755362569E+03  0.10385340004E+04  0.12244640600E+04  0.90039618757E+02 0.  0.
          2    1    3    3  502    0  0.32540780158E+03 -0.12963022597E+03  0.13708854304E+03  0.37614824398E+03  0.00000000000E+00 0. -1.
         -1    1    3    3    0  502  0.43831820566E+03 -0.83809725182E+02  0.13827405789E+03  0.46719014815E+03  0.00000000000E+00 0.  1.
         11    1    5    5    0    0 -0.29115835474E+03 -0.18730788784E+03  0.20162371679E+03  0.40063643813E+03  0.00000000000E+00 0. -1.
        -11    1    5    5    0    0 -0.92054215452E+02 -0.11680578671E+03  0.12867252971E+03  0.19665754573E+03  0.00000000000E+00 0.  1.
          3    1    6    6  503    0 -0.17881808962E+03  0.28404757810E+03  0.61239645855E+03  0.69834687530E+03  0.00000000000E+00 0. -1.
         -3    1    6    6    0  503 -0.20169534743E+03  0.23350604759E+03  0.42613754187E+03  0.52611718469E+03  0.00000000000E+00 0.  1.
<mgrwt>
<rscale>  0 0.20974673E+04</rscale>
<asrwt>0</asrwt>
<pdfrwt beam="1">  1        2 0.33148379E+00 0.20974673E+04</pdfrwt>
<pdfrwt beam="2">  1       -1 0.78531046E-01 0.20974673E+04</pdfrwt>
<totfact> 0.93223227E+00</totfact>
</mgrwt>
</event>
<event>
12    6  0.9533401E-008  0.1682457E+04  0.7818608E-02  0.8771434E-01
          2   -1    0    0  501    0  0.00000000000E+00  0.00000000000E+00  0.17664314617E+04  0.17664314617E+04  0.00000000000E+00 0. -1.
         -1   -1    0    0    0  501 -0.00000000000E+00 -0.00000000000E+00 -0.40061857387E+03  0.40061857387E+03  0.00000000000E+00 0.  1.
         24    2    1    2    0    0  0.25221115872E+03 -0.35155815646E+03 -0.16233290131E+02  0.44048060520E+03  0.80969363936E+02 0.  0.
        254    2    1    2    0    0 -0.25221115872E+03  0.35155815646E+03  0.13820461779E+04  0.17265694303E+04  0.94009933191E+03 0.  0.
         23    2    4    4    0    0  0.21961810841E+03  0.45034556531E+03  0.92616402633E+03  0.10569520309E+04  0.91238973526E+02 0.  0.
         23    2    4    4    0    0 -0.47182926713E+03 -0.98787408844E+02  0.45588215161E+03  0.66961739940E+03  0.90427407146E+02 0.  0.
          2    1    3    3  502    0  0.28204366374E+02 -0.70687273200E+02 -0.27826663058E+02  0.81033943826E+02  0.00000000000E+00 0. -1.
         -1    1    3    3    0  502  0.22400679234E+03 -0.28087088326E+03  0.11593372927E+02  0.35944666138E+03  0.00000000000E+00 0.  1.
         11    1    5    5    0    0  0.13137138801E+03  0.34252328399E+03  0.61663133407E+03  0.71750598870E+03  0.00000000000E+00 0.  1.
        -11    1    5    5    0    0  0.88246720397E+02  0.10782228132E+03  0.30953269226E+03  0.33944604223E+03  0.00000000000E+00 0. -1.
          1    1    6    6  503    0 -0.11296523934E+03  0.49277389949E+01  0.14328562164E+03  0.18252725079E+03  0.00000000000E+00 0. -1.
         -1    1    6    6    0  503 -0.35886402779E+03 -0.10371514784E+03  0.31259652997E+03  0.48709014862E+03  0.00000000000E+00 0.  1.
<mgrwt>
<rscale>  0 0.16824568E+04</rscale>
<asrwt>0</asrwt>
<pdfrwt beam="1">  1        2 0.27175868E+00 0.16824568E+04</pdfrwt>
<pdfrwt beam="2">  1       -1 0.61633628E-01 0.16824568E+04</pdfrwt>
<totfact> 0.26102586E+01</totfact>
</mgrwt>
</event>
<event>
12    6  0.9533401E-008  0.2120196E+04  0.7818608E-02  0.8552399E-01
         -1   -1    0    0    0  501 -0.00000000000E+00  0.00000000000E+00  0.41723008384E+03  0.41723008384E+03  0.00000000000E+00 0.  1.
          2   -1    0    0  501    0  0.00000000000E+00 -0.00000000000E+00 -0.26934953399E+04  0.26934953399E+04  0.00000000000E+00 0. -1.
         24    2    1    2    0    0  0.65508428639E+03  0.39382448233E+03 -0.33492566236E+03  0.83826348606E+03  0.79229587883E+02 0.  0.
        254    2    1    2    0    0 -0.65508428639E+03 -0.39382448233E+03 -0.19413395937E+04  0.22724619377E+04  0.90058353025E+03 0.  0.
         23    2    4    4    0    0 -0.34091694999E+03  0.26530629003E+03 -0.64663704825E+03  0.78315658111E+03  0.92644287742E+02 0.  0.
         23    2    4    4    0    0 -0.31416733641E+03 -0.65913077236E+03 -0.12947025455E+04  0.14893053566E+04  0.92850813467E+02 0.  0.
          4    1    3    3  502    0  0.64474242668E+00  0.79847517652E+01 -0.28478007062E-01  0.80107905069E+01  0.00000000000E+00 0. -1.
         -3    1    3    3    0  502  0.65443954397E+03  0.38583973057E+03 -0.33489718435E+03  0.83025269556E+03  0.00000000000E+00 0.  1.
         11    1    5    5    0    0 -0.18495847459E+03  0.88609613962E+02 -0.32778034239E+03  0.38665392002E+03  0.00000000000E+00 0.  1.
        -11    1    5    5    0    0 -0.15595847540E+03  0.17669667607E+03 -0.31885670586E+03  0.39650266109E+03  0.00000000000E+00 0. -1.
          4    1    6    6  503    0 -0.31687374870E+03 -0.63590956496E+03 -0.12292736555E+04  0.14198252243E+04  0.00000000000E+00 0. -1.
         -4    1    6    6    0  503  0.27064122975E+01 -0.23221207405E+02 -0.65428889972E+02  0.69480132296E+02  0.00000000000E+00 0.  1.
<mgrwt>
<rscale>  0 0.21201955E+04</rscale>
<asrwt>0</asrwt>
<pdfrwt beam="1">  1        2 0.41438389E+00 0.21201955E+04</pdfrwt>
<pdfrwt beam="2">  1       -1 0.64189246E-01 0.21201955E+04</pdfrwt>
<totfact> 0.69093378E+00</totfact>
</mgrwt>
</event>
<event>
12    6  0.9533401E-008  0.2882424E+04  0.7818608E-02  0.8278126E-01
          2   -1    0    0  501    0  0.00000000000E+00  0.00000000000E+00  0.20520427270E+04  0.20520427270E+04  0.00000000000E+00 0. -1.
         -1   -1    0    0    0  501 -0.00000000000E+00 -0.00000000000E+00 -0.10122069503E+04  0.10122069503E+04  0.00000000000E+00 0.  1.
         24    2    1    2    0    0 -0.18206966322E+03 -0.68456246366E+03 -0.68935416524E+03  0.99170968468E+03  0.80646169291E+02 0.  0.
        254    2    1    2    0    0  0.18206966322E+03  0.68456246366E+03  0.17291899419E+04  0.20725399926E+04  0.89640896746E+03 0.  0.
         23    2    4    4    0    0  0.53494139613E+03  0.36450682149E+03  0.90351438642E+03  0.11148145744E+04  0.86288867845E+02 0.  0.
         23    2    4    4    0    0 -0.35287173292E+03  0.32005564217E+03  0.82567555550E+03  0.95772541820E+03  0.92432568600E+02 0.  0.
          2    1    3    3  502    0 -0.11294876536E+03 -0.27033843294E+03 -0.28291326575E+03  0.40728394010E+03  0.00000000000E+00 0. -1.
         -1    1    3    3    0  502 -0.69120897853E+02 -0.41422403072E+03 -0.40644089949E+03  0.58442574458E+03  0.00000000000E+00 0.  1.
         11    1    5    5    0    0  0.36399798064E+03  0.29402708909E+03  0.66077838408E+03  0.80967557200E+03  0.00000000000E+00 0.  1.
        -11    1    5    5    0    0  0.17094341549E+03  0.70479732400E+02  0.24273600234E+03  0.30513900244E+03  0.00000000000E+00 0. -1.
          4    1    6    6  503    0 -0.13964385473E+03  0.18624215006E+03  0.42355442230E+03  0.48330621067E+03  0.00000000000E+00 0. -1.
         -4    1    6    6    0  503 -0.21322787818E+03  0.13381349211E+03  0.40212113321E+03  0.47441920753E+03  0.00000000000E+00 0.  1.
<mgrwt>
<rscale>  0 0.28824239E+04</rscale>
<asrwt>0</asrwt>
<pdfrwt beam="1">  1        2 0.31569888E+00 0.28824239E+04</pdfrwt>
<pdfrwt beam="2">  1       -1 0.15572415E+00 0.28824239E+04</pdfrwt>
<totfact> 0.19357467E+00</totfact>
</mgrwt>
</event>
<event>
12    6  0.9533401E-008  0.1546896E+04  0.7818608E-02  0.8853853E-01
          2   -1    0    0  501    0  0.00000000000E+00  0.00000000000E+00  0.16716163176E+04  0.16716163176E+04  0.00000000000E+00 0. -1.
         -1   -1    0    0    0  501 -0.00000000000E+00 -0.00000000000E+00 -0.35787010230E+03  0.35787010230E+03  0.00000000000E+00 0.  1.
         24    2    1    2    0    0 -0.14809019006E+03 -0.42050142094E+03  0.75877718896E+03  0.88381249738E+03  0.81422101566E+02 0.  0.
        254    2    1    2    0    0  0.14809019006E+03  0.42050142094E+03  0.55496902638E+03  0.11456739226E+04  0.89767809776E+03 0.  0.
         23    2    4    4    0    0  0.35775178956E+02  0.25224679959E+02  0.69461199667E+03  0.70188486720E+03  0.90776610296E+02 0.  0.
         23    2    4    4    0    0  0.11231501111E+03  0.39527674098E+03 -0.13964297029E+03  0.44378905537E+03  0.92683347084E+02 0.  0.
          2    1    3    3  502    0 -0.13805680398E+03 -0.34345275992E+03  0.56972367382E+03  0.67941485407E+03  0.00000000000E+00 0. -1.
         -3    1    3    3    0  502 -0.10033386083E+02 -0.77048661027E+02  0.18905351514E+03  0.20439764331E+03  0.00000000000E+00 0.  1.
         11    1    5    5    0    0  0.47478379155E+02  0.62720090317E+01  0.16512750317E+03  0.17193204148E+03  0.00000000000E+00 0.  1.
        -11    1    5    5    0    0 -0.11703200199E+02  0.18952670927E+02  0.52948449351E+03  0.52995282572E+03  0.00000000000E+00 0. -1.
          2    1    6    6  503    0 -0.13969363371E+02  0.19594602809E+02 -0.16749698296E+01  0.24122543318E+02  0.00000000000E+00 0.  1.
         -2    1    6    6    0  503  0.12628437448E+03  0.37568213818E+03 -0.13796800046E+03  0.41966651205E+03  0.00000000000E+00 0. -1.
<mgrwt>
<rscale>  0 0.15468956E+04</rscale>
<asrwt>0</asrwt>
<pdfrwt beam="1">  1        2 0.25717174E+00 0.15468956E+04</pdfrwt>
<pdfrwt beam="2">  1       -1 0.55056940E-01 0.15468956E+04</pdfrwt>
<totfact> 0.37195835E+01</totfact>
</mgrwt>
</event>
<event>
12    6  0.9533401E-008  0.2663833E+04  0.7818608E-02  0.8346836E-01
         -1   -1    0    0    0  501 -0.00000000000E+00  0.00000000000E+00  0.13024351544E+04  0.13024351544E+04  0.00000000000E+00 0.  1.
          2   -1    0    0  501    0  0.00000000000E+00 -0.00000000000E+00 -0.13620648802E+04  0.13620648802E+04  0.00000000000E+00 0. -1.
         24    2    1    2    0    0  0.18667396528E+03  0.79082402220E+03 -0.88324913551E+03  0.12028504770E+04  0.80438990907E+02 0.  0.
        254    2    1    2    0    0 -0.18667396528E+03 -0.79082402220E+03  0.82361940966E+03  0.14616495576E+04  0.89320809110E+03 0.  0.
         23    2    4    4    0    0  0.35038250430E+02 -0.35675662491E+01  0.60061739485E+03  0.60902593431E+03  0.94503582645E+02 0.  0.
         23    2    4    4    0    0 -0.22171221571E+03 -0.78725645595E+03  0.22300201481E+03  0.85262362334E+03  0.91148836763E+02 0.  0.
          2    1    3    3  502    0  0.17934408421E+03  0.74948544179E+03 -0.86034211704E+03  0.11550243661E+04  0.00000000000E+00 0. -1.
         -1    1    3    3    0  502  0.73298810691E+01  0.41338580409E+02 -0.22907018471E+02  0.47826110880E+02  0.00000000000E+00 0.  1.
         11    1    5    5    0    0  0.50892053535E+01 -0.10897190966E+02  0.56987138485E+01  0.13308798654E+02  0.00000000000E+00 0. -1.
        -11    1    5    5    0    0  0.29949045076E+02  0.73296247166E+01  0.59491868101E+03  0.59571713565E+03  0.00000000000E+00 0.  1.
          1    1    6    6  503    0 -0.54195293617E+02 -0.30603271690E+03  0.11753307868E+03  0.33227575634E+03  0.00000000000E+00 0. -1.
         -1    1    6    6    0  503 -0.16751692209E+03 -0.48122373904E+03  0.10546893613E+03  0.52034786700E+03  0.00000000000E+00 0.  1.
<mgrwt>
<rscale>  0 0.26638327E+04</rscale>
<asrwt>0</asrwt>
<pdfrwt beam="1">  1        2 0.20954844E+00 0.26638327E+04</pdfrwt>
<pdfrwt beam="2">  1       -1 0.20037464E+00 0.26638327E+04</pdfrwt>
<totfact> 0.22819160E+00</totfact>
</mgrwt>
</event>
<event>
12    6  0.9533401E-008  0.1579585E+04  0.7818608E-02  0.8833189E-01
         -1   -1    0    0    0  501 -0.00000000000E+00  0.00000000000E+00  0.73321814081E+03  0.73321814081E+03  0.00000000000E+00 0.  1.
          2   -1    0    0  501    0  0.00000000000E+00 -0.00000000000E+00 -0.85073243674E+03  0.85073243674E+03  0.00000000000E+00 0. -1.
         24    2    1    2    0    0  0.28643393242E+03 -0.76906724372E+02  0.38887223959E+03  0.49574257256E+03  0.81117431047E+02 0.  0.
        254    2    1    2    0    0 -0.28643393242E+03  0.76906724372E+02 -0.50638653553E+03  0.10882080050E+04  0.91641164161E+03 0.  0.
         23    2    4    4    0    0 -0.18338574839E+03 -0.71683737636E+02 -0.74476503537E+03  0.77537346613E+03  0.88091788003E+02 0.  0.
         23    2    4    4    0    0 -0.10304818403E+03  0.14859046201E+03  0.23837849984E+03  0.31283453887E+03  0.91340494274E+02 0.  0.
          2    1    3    3  502    0  0.54209267104E+02 -0.28079010822E+00  0.12353021238E+03  0.13490158211E+03  0.00000000000E+00 0. -1.
         -1    1    3    3    0  502  0.23222466532E+03 -0.76625934264E+02  0.26534202721E+03  0.36084099045E+03  0.00000000000E+00 0.  1.
         11    1    5    5    0    0 -0.21067225114E+02 -0.17493143795E+02 -0.30914706930E+02  0.41298391717E+02  0.00000000000E+00 0. -1.
        -11    1    5    5    0    0 -0.16231852327E+03 -0.54190593841E+02 -0.71385032844E+03  0.73407507441E+03  0.00000000000E+00 0.  1.
          2    1    6    6  503    0 -0.23117878288E+02  0.96622066302E+02  0.78216442540E+02  0.12644394757E+03  0.00000000000E+00 0. -1.
         -2    1    6    6    0  503 -0.79930305747E+02  0.51968395706E+02  0.16016205730E+03  0.18639059130E+03  0.00000000000E+00 0.  1.
<mgrwt>
<rscale>  0 0.15795853E+04</rscale>
<asrwt>0</asrwt>
<pdfrwt beam="1">  1        2 0.13088191E+00 0.15795853E+04</pdfrwt>
<pdfrwt beam="2">  1       -1 0.11280279E+00 0.15795853E+04</pdfrwt>
<totfact> 0.24990332E+01</totfact>
</mgrwt>
</event>
<event>
12    6  0.9533401E-008  0.1815304E+04  0.7818608E-02  0.8698203E-01
          2   -1    0    0  501    0  0.00000000000E+00  0.00000000000E+00  0.22834916852E+04  0.22834916852E+04  0.00000000000E+00 0. -1.
         -1   -1    0    0    0  501 -0.00000000000E+00 -0.00000000000E+00 -0.36077735524E+03  0.36077735524E+03  0.00000000000E+00 0.  1.
         24    2    1    2    0    0 -0.12280043959E+03 -0.94109890457E+02 -0.24030066877E+03  0.29660850058E+03  0.79344639153E+02 0.  0.
        254    2    1    2    0    0  0.12280043959E+03  0.94109890457E+02  0.21630149988E+04  0.23476605399E+04  0.89941064384E+03 0.  0.
         23    2    4    4    0    0 -0.30354150797E+03  0.20579804079E+03  0.51293064282E+03  0.63736621920E+03  0.92992324359E+02 0.  0.
         23    2    4    4    0    0  0.42634194755E+03 -0.11168815034E+03  0.16500843559E+04  0.17102943207E+04  0.89925427320E+02 0.  0.
          4    1    3    3  502    0 -0.52188232510E+02  0.38377838406E+01 -0.60042303872E+02  0.79645580239E+02  0.00000000000E+00 0. -1.
         -3    1    3    3    0  502 -0.70612207075E+02 -0.97947674297E+02 -0.18025836489E+03  0.21696292034E+03  0.00000000000E+00 0.  1.
         11    1    5    5    0    0 -0.23425812845E+03  0.18412366280E+03  0.35443288145E+03  0.46303462225E+03  0.00000000000E+00 0. -1.
        -11    1    5    5    0    0 -0.69283379519E+02  0.21674377989E+02  0.15849776137E+03  0.17433159696E+03  0.00000000000E+00 0.  1.
          4    1    6    6  503    0  0.37718162262E+03 -0.79127345572E+02  0.15078401880E+04  0.15563126761E+04  0.00000000000E+00 0. -1.
         -4    1    6    6    0  503  0.49160324932E+02 -0.32560804764E+02  0.14224416795E+03  0.15398164459E+03  0.00000000000E+00 0.  1.
<mgrwt>
<rscale>  0 0.18153039E+04</rscale>
<asrwt>0</asrwt>
<pdfrwt beam="1">  1        2 0.35130641E+00 0.18153039E+04</pdfrwt>
<pdfrwt beam="2">  1       -1 0.55504210E-01 0.18153039E+04</pdfrwt>
<totfact> 0.16332411E+01</totfact>
</mgrwt>
</event>
<event>
12    6  0.9533401E-008  0.1896487E+04  0.7818608E-02  0.8656607E-01
         -1   -1    0    0    0  501 -0.00000000000E+00  0.00000000000E+00  0.12559033299E+04  0.12559033299E+04  0.00000000000E+00 0.  1.
          2   -1    0    0  501    0  0.00000000000E+00 -0.00000000000E+00 -0.71595117162E+03  0.71595117162E+03  0.00000000000E+00 0. -1.
         24    2    1    2    0    0  0.66475361660E+03  0.16913047771E+03  0.48583341795E+03  0.84436539484E+03  0.80101939607E+02 0.  0.
        254    2    1    2    0    0 -0.66475361660E+03 -0.16913047771E+03  0.54118740356E+02  0.11274891067E+04  0.89319670757E+03 0.  0.
         23    2    4    4    0    0 -0.22176571428E+03 -0.46887732124E+03  0.20390141729E+03  0.56469529906E+03  0.90989111483E+02 0.  0.
         23    2    4    4    0    0 -0.44298790232E+03  0.29974684354E+03 -0.14978267693E+03  0.56279380764E+03  0.90639769398E+02 0.  0.
          2    1    3    3  502    0  0.18660340442E+03  0.66348725218E+02  0.17941167153E+03  0.26722936171E+03  0.00000000000E+00 0. -1.
         -1    1    3    3    0  502  0.47815021218E+03  0.10278175249E+03  0.30642174642E+03  0.57713603313E+03  0.00000000000E+00 0.  1.
         11    1    5    5    0    0 -0.13604594970E+03 -0.37049177252E+03  0.13498957041E+03  0.41712688484E+03  0.00000000000E+00 0. -1.
        -11    1    5    5    0    0 -0.85719764585E+02 -0.98385548720E+02  0.68911846875E+02  0.14756841423E+03  0.00000000000E+00 0.  1.
          1    1    6    6  503    0 -0.26195284034E+03  0.12289967099E+03 -0.84326347005E+02  0.30138771125E+03  0.00000000000E+00 0. -1.
         -1    1    6    6    0  503 -0.18103506199E+03  0.17684717255E+03 -0.65456329925E+02  0.26140609640E+03  0.00000000000E+00 0.  1.
<mgrwt>
<rscale>  0 0.18964867E+04</rscale>
<asrwt>0</asrwt>
<pdfrwt beam="1">  1        2 0.11014633E+00 0.18964867E+04</pdfrwt>
<pdfrwt beam="2">  1       -1 0.19321590E+00 0.18964867E+04</pdfrwt>
<totfact> 0.71428751E+00</totfact>
</mgrwt>
</event>
<event>
12    6  0.9533401E-008  0.2997751E+04  0.7818608E-02  0.8244373E-01
          2   -1    0    0  501    0  0.00000000000E+00  0.00000000000E+00  0.28304581824E+04  0.28304581824E+04  0.00000000000E+00 0. -1.
         -1   -1    0    0    0  501 -0.00000000000E+00 -0.00000000000E+00 -0.79373311536E+03  0.79373311536E+03  0.00000000000E+00 0.  1.
         24    2    1    2    0    0  0.51750395441E+03 -0.10927070455E+04  0.17233285792E+03  0.12239229445E+04  0.80434632008E+02 0.  0.
        254    2    1    2    0    0 -0.51750395441E+03  0.10927070455E+04  0.18643922091E+04  0.24002683533E+04  0.90747497380E+03 0.  0.
         23    2    4    4    0    0 -0.29657337219E+03  0.84192728169E+02  0.71439186514E+02  0.32930512458E+03  0.91072098584E+02 0.  0.
         23    2    4    4    0    0 -0.22093058223E+03  0.10085143173E+04  0.17929530226E+04  0.20709632287E+04  0.91086238255E+02 0.  0.
          2    1    3    3  502    0  0.30129664502E+03 -0.67222103083E+03  0.68435536321E+02  0.73982714550E+03  0.00000000000E+00 0. -1.
         -1    1    3    3    0  502  0.21620730939E+03 -0.42048601468E+03  0.10389732160E+03  0.48409579900E+03  0.00000000000E+00 0.  1.
         11    1    5    5    0    0 -0.18005023325E+03  0.77061479410E+02  0.81504310406E+02  0.21213088110E+03  0.00000000000E+00 0.  1.
        -11    1    5    5    0    0 -0.11652313894E+03  0.71312487589E+01 -0.10065123892E+02  0.11717424348E+03  0.00000000000E+00 0. -1.
          1    1    6    6  503    0 -0.18316463859E+03  0.63121884515E+03  0.11348334744E+04  0.13114242372E+04  0.00000000000E+00 0. -1.
         -1    1    6    6    0  503 -0.37765943642E+02  0.37729547218E+03  0.65811954825E+03  0.75953899151E+03  0.00000000000E+00 0.  1.
<mgrwt>
<rscale>  0 0.29977514E+04</rscale>
<asrwt>0</asrwt>
<pdfrwt beam="1">  1        2 0.43545510E+00 0.29977514E+04</pdfrwt>
<pdfrwt beam="2">  1       -1 0.12211279E+00 0.29977514E+04</pdfrwt>
<totfact> 0.12779186E+00</totfact>
</mgrwt>
</event>
<event>
12    6  0.9533401E-008  0.1466078E+04  0.7818608E-02  0.8907329E-01
         -1   -1    0    0    0  501 -0.00000000000E+00  0.00000000000E+00  0.52577863724E+03  0.52577863724E+03  0.00000000000E+00 0.  1.
          2   -1    0    0  501    0  0.00000000000E+00 -0.00000000000E+00 -0.10220005710E+04  0.10220005710E+04  0.00000000000E+00 0. -1.
         24    2    1    2    0    0 -0.21060788050E+03  0.26354066630E+03  0.15811273629E+03  0.38093532876E+03  0.79389704617E+02 0.  0.
        254    2    1    2    0    0  0.21060788050E+03 -0.26354066630E+03 -0.65433467007E+03  0.11668438795E+04  0.90529631424E+03 0.  0.
         23    2    4    4    0    0 -0.16467072846E+03 -0.41225795038E+03 -0.80780712133E+02  0.45978161539E+03  0.88320688032E+02 0.  0.
         23    2    4    4    0    0  0.37527860896E+03  0.14871728409E+03 -0.57355395793E+03  0.70706226412E+03  0.89565829150E+02 0.  0.
          2    1    3    3  502    0 -0.93033129740E+01  0.58481261845E+02  0.26830894728E+02  0.65011587668E+02  0.00000000000E+00 0. -1.
         -1    1    3    3    0  502 -0.20130456753E+03  0.20505940445E+03  0.13128184156E+03  0.31592374109E+03  0.00000000000E+00 0.  1.
         11    1    5    5    0    0 -0.71405514747E+01  0.33654648347E+01  0.60224392904E+00  0.79168508048E+01  0.00000000000E+00 0.  1.
        -11    1    5    5    0    0 -0.15753017698E+03 -0.41562341522E+03 -0.81382956062E+02  0.45186476459E+03  0.00000000000E+00 0. -1.
          2    1    6    6  503    0  0.31757116550E+03  0.12628533634E+03 -0.41988704250E+03  0.54139131854E+03  0.00000000000E+00 0. -1.
         -2    1    6    6    0  503  0.57707443464E+02  0.22431947745E+02 -0.15366691543E+03  0.16567094558E+03  0.00000000000E+00 0.  1.
<mgrwt>
<rscale>  0 0.14660779E+04</rscale>
<asrwt>0</asrwt>
<pdfrwt beam="1">  1        2 0.15723086E+00 0.14660779E+04</pdfrwt>
<pdfrwt beam="2">  1       -1 0.80889021E-01 0.14660779E+04</pdfrwt>
<totfact> 0.41061129E+01</totfact>
</mgrwt>
</event>
<event>
12    6  0.9533401E-008  0.1540078E+04  0.7818608E-02  0.8858230E-01
          2   -1    0    0  501    0  0.00000000000E+00  0.00000000000E+00  0.16313313406E+04  0.16313313406E+04  0.00000000000E+00 0. -1.
         -1   -1    0    0    0  501 -0.00000000000E+00 -0.00000000000E+00 -0.36348231009E+03  0.36348231009E+03  0.00000000000E+00 0.  1.
         24    2    1    2    0    0 -0.39156385484E+03  0.10858483822E+03  0.81176469884E+03  0.91124852658E+03  0.79366437512E+02 0.  0.
        254    2    1    2    0    0  0.39156385484E+03 -0.10858483822E+03  0.45608433164E+03  0.10835651241E+04  0.89497907297E+03 0.  0.
         23    2    4    4    0    0  0.60103320878E+03  0.15686554910E+03  0.23791187714E+03  0.67159998156E+03  0.92718689603E+02 0.  0.
         23    2    4    4    0    0 -0.20946935394E+03 -0.26545038732E+03  0.21817245450E+03  0.41196514252E+03  0.88174488258E+02 0.  0.
          4    1    3    3  502    0 -0.32156211814E+03  0.11878933182E+03  0.65582815727E+03  0.74001599513E+03  0.00000000000E+00 0. -1.
         -3    1    3    3    0  502 -0.70001736698E+02 -0.10204493601E+02  0.15593654157E+03  0.17123253145E+03  0.00000000000E+00 0.  1.
         11    1    5    5    0    0  0.44117746901E+03  0.15470428287E+03  0.19060285825E+03  0.50487664223E+03  0.00000000000E+00 0. -1.
        -11    1    5    5    0    0  0.15985573977E+03  0.21612662313E+01  0.47309018889E+02  0.16672333933E+03  0.00000000000E+00 0.  1.
          2    1    6    6  503    0 -0.59083481727E+02 -0.14537162035E+03  0.10257520952E+03  0.18747116958E+03  0.00000000000E+00 0. -1.
         -2    1    6    6    0  503 -0.15038587221E+03 -0.12007876697E+03  0.11559724498E+03  0.22449397294E+03  0.00000000000E+00 0.  1.
<mgrwt>
<rscale>  0 0.15400780E+04</rscale>
<asrwt>0</asrwt>
<pdfrwt beam="1">  1        2 0.25097405E+00 0.15400780E+04</pdfrwt>
<pdfrwt beam="2">  1       -1 0.55920356E-01 0.15400780E+04</pdfrwt>
<totfact> 0.38023615E+01</totfact>
</mgrwt>
</event>
<event>
12    6  0.9533401E-008  0.2269269E+04  0.7818608E-02  0.8490137E-01
         -1   -1    0    0    0  501 -0.00000000000E+00  0.00000000000E+00  0.56327085289E+03  0.56327085289E+03  0.00000000000E+00 0.  1.
          2   -1    0    0  501    0  0.00000000000E+00 -0.00000000000E+00 -0.22855715801E+04  0.22855715801E+04  0.00000000000E+00 0. -1.
         24    2    1    2    0    0  0.84805877440E+03  0.43568742341E+03 -0.65882508446E+03  0.11615415247E+04  0.78108936259E+02 0.  0.
        254    2    1    2    0    0 -0.84805877440E+03 -0.43568742341E+03 -0.10634756428E+04  0.16873009083E+04  0.89831881683E+03 0.  0.
         23    2    4    4    0    0 -0.31909299614E+03 -0.11158074541E+02 -0.93402214081E+03  0.99108845345E+03  0.88961341110E+02 0.  0.
         23    2    4    4    0    0 -0.52896577826E+03 -0.42452934887E+03 -0.12945350194E+03  0.69621245486E+03  0.89014664593E+02 0.  0.
          2    1    3    3  502    0  0.56758507584E+03  0.29834631917E+03 -0.39838229103E+03  0.75489853244E+03  0.00000000000E+00 0. -1.
         -1    1    3    3    0  502  0.28047369856E+03  0.13734110424E+03 -0.26044279344E+03  0.40664299225E+03  0.00000000000E+00 0.  1.
         11    1    5    5    0    0 -0.28906978936E+03 -0.33215017067E+02 -0.77665838188E+03  0.82937495900E+03  0.00000000000E+00 0. -1.
        -11    1    5    5    0    0 -0.30023206781E+02  0.22056942526E+02 -0.15736375893E+03  0.16171349444E+03  0.00000000000E+00 0.  1.
          4    1    6    6  503    0 -0.17953652194E+03 -0.14879568977E+03 -0.19366629053E+01  0.23318934510E+03  0.00000000000E+00 0. -1.
         -4    1    6    6    0  503 -0.34942925631E+03 -0.27573365910E+03 -0.12751683904E+03  0.46302310975E+03  0.00000000000E+00 0.  1.
<mgrwt>
<rscale>  0 0.22692694E+04</rscale>
<asrwt>0</asrwt>
<pdfrwt beam="1">  1        2 0.35162639E+00 0.22692694E+04</pdfrwt>
<pdfrwt beam="2">  1       -1 0.86657056E-01 0.22692694E+04</pdfrwt>
<totfact> 0.62714973E+00</totfact>
</mgrwt>
</event>
<event>
12    6  0.1234686E-007  0.1957191E+04  0.7818608E-02  0.8626901E-01
          2   -1    0    0  501    0  0.00000000000E+00  0.00000000000E+00  0.13071538558E+04  0.13071538558E+04  0.00000000000E+00 0. -1.
         -3   -1    0    0    0  501 -0.00000000000E+00 -0.00000000000E+00 -0.73262139586E+03  0.73262139586E+03  0.00000000000E+00 0.  1.
         24    2    1    2    0    0 -0.26326977215E+03 -0.72457861088E+03  0.23562277648E+03  0.81004138615E+03  0.79522438319E+02 0.  0.
        254    2    1    2    0    0  0.26326977215E+03  0.72457861088E+03  0.33890968345E+03  0.12297338655E+04  0.89613641269E+03 0.  0.
         23    2    4    4    0    0  0.44023921081E+03  0.54042561633E+03 -0.10284553240E+03  0.71094915770E+03  0.94874083830E+02 0.  0.
         23    2    4    4    0    0 -0.17696943866E+03  0.18415299456E+03  0.44175521585E+03  0.51878470780E+03  0.93591637956E+02 0.  0.
          2    1    3    3  502    0 -0.12611269129E+03 -0.41408481946E+03  0.98346379464E+02  0.44389487377E+03  0.00000000000E+00 0. -1.
         -1    1    3    3    0  502 -0.13715708086E+03 -0.31049379143E+03  0.13727639702E+03  0.36614651237E+03  0.00000000000E+00 0.  1.
         11    1    5    5    0    0  0.44637081470E+02  0.34864426682E+02  0.14268620438E+02  0.58408824840E+02  0.00000000000E+00 0. -1.
        -11    1    5    5    0    0  0.39560212934E+03  0.50556118965E+03 -0.11711415283E+03  0.65254033286E+03  0.00000000000E+00 0.  1.
          2    1    6    6  503    0  0.79156107154E+01  0.12765524632E+02  0.78249693700E+01  0.16936518466E+02  0.00000000000E+00 0. -1.
         -2    1    6    6    0  503 -0.18488504937E+03  0.17138746992E+03  0.43393024648E+03  0.50184818934E+03  0.00000000000E+00 0.  1.
<mgrwt>
<rscale>  0 0.19571907E+04</rscale>
<asrwt>0</asrwt>
<pdfrwt beam="1">  1        2 0.20110059E+00 0.19571907E+04</pdfrwt>
<pdfrwt beam="2">  1       -3 0.11271098E+00 0.19571907E+04</pdfrwt>
<totfact> 0.63742147E+00</totfact>
</mgrwt>
</event>
<event>
12    6  0.9533401E-008  0.1500707E+04  0.7818608E-02  0.8883983E-01
         -1   -1    0    0    0  501 -0.00000000000E+00  0.00000000000E+00  0.20821779389E+03  0.20821779389E+03  0.00000000000E+00 0.  1.
          2   -1    0    0  501    0  0.00000000000E+00 -0.00000000000E+00 -0.27040463164E+04  0.27040463164E+04  0.00000000000E+00 0. -1.
         24    2    1    2    0    0  0.89828931560E+02 -0.34874519569E+03 -0.14079040166E+04  0.14553974651E+04  0.79344898605E+02 0.  0.
        254    2    1    2    0    0 -0.89828931560E+02  0.34874519569E+03 -0.10879245059E+04  0.14568666452E+04  0.89954891078E+03 0.  0.
         23    2    4    4    0    0 -0.28526816024E+03  0.50656891966E+03 -0.10199106624E+04  0.11774280860E+04  0.90161770170E+02 0.  0.
         23    2    4    4    0    0  0.19543922868E+03 -0.15782372396E+03 -0.68013843438E+02  0.27943855915E+03  0.10176053012E+03 0.  0.
          4    1    3    3  502    0  0.36986621959E+02 -0.20570077635E+03 -0.95181017548E+03  0.97448623887E+03  0.00000000000E+00 0. -1.
         -3    1    3    3    0  502  0.52842309601E+02 -0.14304441934E+03 -0.45609384115E+03  0.48091122624E+03  0.00000000000E+00 0.  1.
         11    1    5    5    0    0 -0.24896973277E+03  0.48377390498E+03 -0.96446902266E+03  0.11073498158E+04  0.00000000000E+00 0.  1.
        -11    1    5    5    0    0 -0.36298427468E+02  0.22795014680E+02 -0.55441639782E+02  0.70078270188E+02  0.00000000000E+00 0. -1.
          2    1    6    6  503    0  0.96975105090E+02 -0.53224421351E+02 -0.78129502729E+02  0.13542979448E+03  0.00000000000E+00 0. -1.
         -2    1    6    6    0  503  0.98464123585E+02 -0.10459930261E+03  0.10115659291E+02  0.14400876467E+03  0.00000000000E+00 0.  1.
<mgrwt>
<rscale>  0 0.15007072E+04</rscale>
<asrwt>0</asrwt>
<pdfrwt beam="1">  1        2 0.41600713E+00 0.15007072E+04</pdfrwt>
<pdfrwt beam="2">  1       -1 0.32033506E-01 0.15007072E+04</pdfrwt>
<totfact> 0.26521834E+01</totfact>
</mgrwt>
</event>
<event>
12    6  0.9533401E-008  0.2444668E+04  0.7818608E-02  0.8422967E-01
          2   -1    0    0  501    0  0.00000000000E+00  0.00000000000E+00  0.76459544298E+03  0.76459544298E+03  0.00000000000E+00 0. -1.
         -1   -1    0    0    0  501 -0.00000000000E+00 -0.00000000000E+00 -0.19541054125E+04  0.19541054125E+04  0.00000000000E+00 0.  1.
         24    2    1    2    0    0  0.58476476833E+03  0.38116263275E+03 -0.13897743900E+04  0.15572503082E+04  0.79503966059E+02 0.  0.
        254    2    1    2    0    0 -0.58476476833E+03 -0.38116263275E+03  0.20026442041E+03  0.11614505473E+04  0.90643629055E+03 0.  0.
         23    2    4    4    0    0 -0.62064218590E+03 -0.62263054664E+03  0.15202195442E+03  0.89699446442E+03  0.92859431555E+02 0.  0.
         23    2    4    4    0    0  0.35877417576E+02  0.24146791390E+03  0.48242465989E+02  0.26445608287E+03  0.89530674686E+02 0.  0.
          4    1    3    3  502    0  0.29115563501E+03  0.20462471444E+03 -0.79161631586E+03  0.86792814742E+03  0.00000000000E+00 0. -1.
         -3    1    3    3    0  502  0.29360913332E+03  0.17653791831E+03 -0.59815807412E+03  0.68932216083E+03  0.00000000000E+00 0.  1.
         11    1    5    5    0    0 -0.50270224857E+03 -0.44881858039E+03  0.11126586385E+03  0.68302837517E+03  0.00000000000E+00 0. -1.
        -11    1    5    5    0    0 -0.11793993733E+03 -0.17381196625E+03  0.40756090571E+02  0.21396608925E+03  0.00000000000E+00 0.  1.
          4    1    6    6  503    0  0.51843524391E+01  0.22304244261E+03  0.49914411386E+02  0.22861814709E+03  0.00000000000E+00 0. -1.
         -4    1    6    6    0  503  0.30693065137E+02  0.18425471288E+02 -0.16719453972E+01  0.35837935782E+02  0.00000000000E+00 0.  1.
<mgrwt>
<rscale>  0 0.24446677E+04</rscale>
<asrwt>0</asrwt>
<pdfrwt beam="1">  1        2 0.11763007E+00 0.24446677E+04</pdfrwt>
<pdfrwt beam="2">  1       -1 0.30063160E+00 0.24446677E+04</pdfrwt>
<totfact> 0.12228696E+00</totfact>
</mgrwt>
</event>
<event>
12    6  0.9533401E-008  0.2238481E+04  0.7818608E-02  0.8502580E-01
          2   -1    0    0  501    0  0.00000000000E+00  0.00000000000E+00  0.13847173731E+04  0.13847173731E+04  0.00000000000E+00 0. -1.
         -1   -1    0    0    0  501 -0.00000000000E+00 -0.00000000000E+00 -0.90466069559E+03  0.90466069559E+03  0.00000000000E+00 0.  1.
         24    2    1    2    0    0 -0.42426601786E+03  0.16980482895E+03 -0.63481766667E+03  0.78626979579E+03  0.79946156934E+02 0.  0.
        254    2    1    2    0    0  0.42426601786E+03 -0.16980482895E+03  0.11148743442E+04  0.15031082729E+04  0.89864027450E+03 0.  0.
         23    2    4    4    0    0 -0.82448498287E+02 -0.14776735916E+03 -0.73759165589E+02  0.20732513152E+03  0.94394641512E+02 0.  0.
         23    2    4    4    0    0  0.50671451615E+03 -0.22037469782E+02  0.11886335098E+04  0.12957831414E+04  0.94652406282E+02 0.  0.
          2    1    3    3  502    0 -0.81774053900E+02  0.26813128443E+02 -0.72571676184E+02  0.11257258961E+03  0.00000000000E+00 0. -1.
         -1    1    3    3    0  502 -0.34249196396E+03  0.14299170050E+03 -0.56224599049E+03  0.67369720618E+03  0.00000000000E+00 0.  1.
         11    1    5    5    0    0 -0.10103304529E+02 -0.25175193125E+01 -0.40324476750E+02  0.41647065816E+02  0.00000000000E+00 0.  1.
        -11    1    5    5    0    0 -0.72345193758E+02 -0.14524983985E+03 -0.33434688839E+02  0.16567806570E+03  0.00000000000E+00 0. -1.
          1    1    6    6  503    0  0.19186992768E+03  0.37561871864E+02  0.44870084481E+03  0.48944602511E+03  0.00000000000E+00 0. -1.
         -1    1    6    6    0  503  0.31484458847E+03 -0.59599341646E+02  0.73993266501E+03  0.80633711632E+03  0.00000000000E+00 0.  1.
<mgrwt>
<rscale>  0 0.22384811E+04</rscale>
<asrwt>0</asrwt>
<pdfrwt beam="1">  1        2 0.21303344E+00 0.22384811E+04</pdfrwt>
<pdfrwt beam="2">  1       -1 0.13917857E+00 0.22384811E+04</pdfrwt>
<totfact> 0.65260827E+00</totfact>
</mgrwt>
</event>
<event>
12    6  0.9533401E-008  0.1358648E+04  0.7818608E-02  0.8984307E-01
          2   -1    0    0  501    0  0.00000000000E+00  0.00000000000E+00  0.64727575880E+03  0.64727575880E+03  0.00000000000E+00 0. -1.
         -1   -1    0    0    0  501 -0.00000000000E+00 -0.00000000000E+00 -0.71295898323E+03  0.71295898323E+03  0.00000000000E+00 0.  1.
         24    2    1    2    0    0 -0.25404255228E+03  0.25378980375E+03  0.80514059209E+02  0.37670344275E+03  0.80474139914E+02 0.  0.
        254    2    1    2    0    0  0.25404255228E+03 -0.25378980375E+03 -0.14619728364E+03  0.98353129927E+03  0.90388787360E+03 0.  0.
         23    2    4    4    0    0  0.27892046711E+03 -0.33880067559E+03 -0.46149696304E+03  0.64321038064E+03  0.90319555521E+02 0.  0.
         23    2    4    4    0    0 -0.24877914833E+02  0.85010871836E+02  0.31529967940E+03  0.34032091864E+03  0.92513138829E+02 0.  0.
          2    1    3    3  502    0 -0.96878177819E+02  0.14647515252E+03  0.58623831359E+02  0.18514077143E+03  0.00000000000E+00 0. -1.
         -3    1    3    3    0  502 -0.15716437446E+03  0.10731465123E+03  0.21890227850E+02  0.19156267132E+03  0.00000000000E+00 0.  1.
         11    1    5    5    0    0  0.20359990520E+03 -0.19481721082E+03 -0.33171918852E+03  0.43525198111E+03  0.00000000000E+00 0. -1.
        -11    1    5    5    0    0  0.75320561911E+02 -0.14398346477E+03 -0.12977777452E+03  0.20795839953E+03  0.00000000000E+00 0.  1.
          4    1    6    6  503    0 -0.18394956024E+02  0.87782516956E+02  0.31967810464E+03  0.33202143798E+03  0.00000000000E+00 0. -1.
         -4    1    6    6    0  503 -0.64829588090E+01 -0.27716451195E+01 -0.43784252427E+01  0.82994806581E+01  0.00000000000E+00 0.  1.
<mgrwt>
<rscale>  0 0.13586480E+04</rscale>
<asrwt>0</asrwt>
<pdfrwt beam="1">  1        2 0.99580886E-01 0.13586480E+04</pdfrwt>
<pdfrwt beam="2">  1       -1 0.10968600E+00 0.13586480E+04</pdfrwt>
<totfact> 0.38749143E+01</totfact>
</mgrwt>
</event>
<event>
12    6  0.9533401E-008  0.2704231E+04  0.7818608E-02  0.8333633E-01
         -1   -1    0    0    0  501 -0.00000000000E+00  0.00000000000E+00  0.32582117023E+04  0.32582117023E+04  0.00000000000E+00 0.  1.
          2   -1    0    0  501    0  0.00000000000E+00 -0.00000000000E+00 -0.56111049796E+03  0.56111049796E+03  0.00000000000E+00 0. -1.
         24    2    1    2    0    0  0.57500915705E+03 -0.35938399110E+03  0.25599601812E+04  0.26494877254E+04  0.81220035364E+02 0.  0.
        254    2    1    2    0    0 -0.57500915705E+03  0.35938399110E+03  0.13714102312E+03  0.11698344748E+04  0.94335181904E+03 0.  0.
         23    2    4    4    0    0 -0.51647217335E+03 -0.11092643077E+03 -0.20919863290E+03  0.57578854000E+03  0.93381989192E+02 0.  0.
         23    2    4    4    0    0 -0.58536983701E+02  0.47031042187E+03  0.34633965602E+03  0.59404593481E+03  0.91219208239E+02 0.  0.
          4    1    3    3  502    0  0.12101853466E+03 -0.11044371624E+03  0.54739777878E+03  0.57139095933E+03  0.00000000000E+00 0. -1.
         -3    1    3    3    0  502  0.45399062239E+03 -0.24894027486E+03  0.20125624024E+04  0.20780967661E+04  0.00000000000E+00 0.  1.
         11    1    5    5    0    0 -0.67071015136E+02 -0.46658461591E+02 -0.21061237203E+02  0.84374811537E+02  0.00000000000E+00 0. -1.
        -11    1    5    5    0    0 -0.44940115822E+03 -0.64267969174E+02 -0.18813739569E+03  0.49141372847E+03  0.00000000000E+00 0.  1.
          4    1    6    6  503    0 -0.53649610630E+02  0.24156984298E+03  0.13164203640E+03  0.28029251775E+03  0.00000000000E+00 0. -1.
         -4    1    6    6    0  503 -0.48873730714E+01  0.22874057888E+03  0.21469761962E+03  0.31375341706E+03  0.00000000000E+00 0.  1.
<mgrwt>
<rscale>  0 0.27042313E+04</rscale>
<asrwt>0</asrwt>
<pdfrwt beam="1">  1        2 0.86324694E-01 0.27042313E+04</pdfrwt>
<pdfrwt beam="2">  1       -1 0.50126333E+00 0.27042313E+04</pdfrwt>
<totfact> 0.78361060E-02</totfact>
</mgrwt>
</event>
<event>
12    6  0.9533401E-008  0.2342601E+04  0.7818608E-02  0.8461311E-01
         -1   -1    0    0    0  501 -0.00000000000E+00  0.00000000000E+00  0.67023279574E+03  0.67023279574E+03  0.00000000000E+00 0.  1.
          2   -1    0    0  501    0  0.00000000000E+00 -0.00000000000E+00 -0.20469680143E+04  0.20469680143E+04  0.00000000000E+00 0. -1.
         24    2    1    2    0    0  0.20345668695E+02  0.44999867776E+02 -0.17269518557E+04  0.17294224987E+04  0.78105909079E+02 0.  0.
        254    2    1    2    0    0 -0.20345668695E+02 -0.44999867776E+02  0.35021663709E+03  0.98777831130E+03  0.92228811391E+03 0.  0.
         23    2    4    4    0    0 -0.74278313698E+02  0.41091060793E+03  0.28479771300E+03  0.51412999763E+03  0.94101655343E+02 0.  0.
         23    2    4    4    0    0  0.53932645002E+02 -0.45591047570E+03  0.65418924085E+02  0.47364831368E+03  0.96436493964E+02 0.  0.
          2    1    3    3  502    0  0.43846392323E+02  0.25798977517E+02 -0.14341827563E+04  0.14350847612E+04  0.00000000000E+00 0. -1.
         -1    1    3    3    0  502 -0.23500723628E+02  0.19200890258E+02 -0.29276909935E+03  0.29433773752E+03  0.00000000000E+00 0.  1.
         11    1    5    5    0    0 -0.83294628066E+02  0.40697752636E+03  0.26707405273E+03  0.49385954650E+03  0.00000000000E+00 0. -1.
        -11    1    5    5    0    0  0.90163143678E+01  0.39330815626E+01  0.17723660278E+02  0.20270451129E+02  0.00000000000E+00 0.  1.
          3    1    6    6  503    0  0.50578622569E+02 -0.34273164161E+03  0.76353394726E+01  0.34652773862E+03  0.00000000000E+00 0. -1.
         -3    1    6    6    0  503  0.33540224332E+01 -0.11317883409E+03  0.57783584612E+02  0.12712057506E+03  0.00000000000E+00 0.  1.
<mgrwt>
<rscale>  0 0.23426012E+04</rscale>
<asrwt>0</asrwt>
<pdfrwt beam="1">  1        2 0.31491815E+00 0.23426012E+04</pdfrwt>
<pdfrwt beam="2">  1       -1 0.10311274E+00 0.23426012E+04</pdfrwt>
<totfact> 0.57430062E+00</totfact>
</mgrwt>
</event>
<event>
12    6  0.9533401E-008  0.2330983E+04  0.7818608E-02  0.8465804E-01
          2   -1    0    0  501    0  0.00000000000E+00  0.00000000000E+00  0.22347662747E+04  0.22347662747E+04  0.00000000000E+00 0. -1.
         -1   -1    0    0    0  501 -0.00000000000E+00 -0.00000000000E+00 -0.60783570709E+03  0.60783570709E+03  0.00000000000E+00 0.  1.
         24    2    1    2    0    0 -0.40795139811E+03 -0.89169364821E+03  0.85222326046E+03  0.13016983918E+04  0.81193054728E+02 0.  0.
        254    2    1    2    0    0  0.40795139811E+03  0.89169364821E+03  0.77470730718E+03  0.15409035900E+04  0.90148242157E+03 0.  0.
         23    2    4    4    0    0 -0.26067225097E+02 -0.77711660494E+02  0.38855867748E+03  0.40697684857E+03  0.89071359192E+02 0.  0.
         23    2    4    4    0    0  0.43401862320E+03  0.96940530870E+03  0.38614862970E+03  0.11339267414E+04  0.92521742713E+02 0.  0.
          4    1    3    3  502    0 -0.27595457134E+03 -0.68037541710E+03  0.61670556647E+03  0.95884690611E+03  0.00000000000E+00 0. -1.
         -3    1    3    3    0  502 -0.13199682677E+03 -0.21131823111E+03  0.23551769400E+03  0.34285148572E+03  0.00000000000E+00 0.  1.
         11    1    5    5    0    0 -0.51446506871E+02 -0.34934952141E+02  0.13567058513E+03  0.14924376577E+03  0.00000000000E+00 0. -1.
        -11    1    5    5    0    0  0.25379281775E+02 -0.42776708353E+02  0.25288809235E+03  0.25773308281E+03  0.00000000000E+00 0.  1.
          2    1    6    6  503    0  0.17007621531E+03  0.32091911601E+03  0.17122879818E+03  0.40153991004E+03  0.00000000000E+00 0. -1.
         -2    1    6    6    0  503  0.26394240790E+03  0.64848619270E+03  0.21491983153E+03  0.73238683139E+03  0.00000000000E+00 0.  1.
<mgrwt>
<rscale>  0 0.23309833E+04</rscale>
<asrwt>0</asrwt>
<pdfrwt beam="1">  1        2 0.34381019E+00 0.23309833E+04</pdfrwt>
<pdfrwt beam="2">  1       -1 0.93513187E-01 0.23309833E+04</pdfrwt>
<totfact> 0.56335584E+00</totfact>
</mgrwt>
</event>
<event>
12    6  0.9533401E-008  0.1794067E+04  0.7818608E-02  0.8709461E-01
          2   -1    0    0  501    0  0.00000000000E+00  0.00000000000E+00  0.13162530697E+04  0.13162530697E+04  0.00000000000E+00 0. -1.
         -1   -1    0    0    0  501 -0.00000000000E+00 -0.00000000000E+00 -0.61133319851E+03  0.61133319851E+03  0.00000000000E+00 0.  1.
         24    2    1    2    0    0 -0.20255415143E+03 -0.24198711947E+03  0.88604947557E+03  0.94470053859E+03  0.88258054641E+02 0.  0.
        254    2    1    2    0    0  0.20255415143E+03  0.24198711947E+03 -0.18112960433E+03  0.98288572966E+03  0.91305556992E+03 0.  0.
         23    2    4    4    0    0  0.29536373875E+03 -0.28632619246E+03 -0.89472017278E+02  0.43091585000E+03  0.91982613834E+02 0.  0.
         23    2    4    4    0    0 -0.92809587319E+02  0.52831331193E+03 -0.91657587048E+02  0.55196987966E+03  0.92417853990E+02 0.  0.
          4    1    3    3  502    0 -0.15853088762E+03 -0.20504439434E+03  0.80232749621E+03  0.84315162168E+03  0.00000000000E+00 0. -1.
         -1    1    3    3    0  502 -0.44023263815E+02 -0.36942725127E+02  0.83721979359E+02  0.10154891690E+03  0.00000000000E+00 0.  1.
         11    1    5    5    0    0  0.60609133909E+02 -0.64149023913E+02 -0.59221398599E+02  0.10628141152E+03  0.00000000000E+00 0.  1.
        -11    1    5    5    0    0  0.23475460484E+03 -0.22217716855E+03 -0.30250618679E+02  0.32463443848E+03  0.00000000000E+00 0. -1.
          1    1    6    6  503    0 -0.12340224365E+02  0.33007002693E+03 -0.59397878930E+02  0.33559888533E+03  0.00000000000E+00 0. -1.
         -1    1    6    6    0  503 -0.80469362954E+02  0.19824328500E+03 -0.32259708118E+02  0.21637099433E+03  0.00000000000E+00 0.  1.
<mgrwt>
<rscale>  0 0.17940671E+04</rscale>
<asrwt>0</asrwt>
<pdfrwt beam="1">  1        2 0.20250047E+00 0.17940671E+04</pdfrwt>
<pdfrwt beam="2">  1       -1 0.94051262E-01 0.17940671E+04</pdfrwt>
<totfact> 0.19073537E+01</totfact>
</mgrwt>
</event>
<event>
12    6  0.9533401E-008  0.4070995E+04  0.7818608E-02  0.7990376E-01
         -1   -1    0    0    0  501 -0.00000000000E+00  0.00000000000E+00  0.97997474901E+03  0.97997474901E+03  0.00000000000E+00 0.  1.
          2   -1    0    0  501    0  0.00000000000E+00 -0.00000000000E+00 -0.42279159676E+04  0.42279159676E+04  0.00000000000E+00 0. -1.
         24    2    1    2    0    0 -0.13803098998E+04 -0.13769697072E+04 -0.12865977330E+04  0.23371654119E+04  0.75547612194E+02 0.  0.
        254    2    1    2    0    0  0.13803098998E+04  0.13769697072E+04 -0.19613434856E+04  0.28707253047E+04  0.76999643688E+03 0.  0.
         23    2    4    4    0    0  0.10315713403E+03  0.22288626537E+03 -0.30587462190E+01  0.26185168465E+03  0.90759391982E+02 0.  0.
         23    2    4    4    0    0  0.12771527658E+04  0.11540834418E+04 -0.19582847393E+04  0.26088736201E+04  0.91184797887E+02 0.  0.
          4    1    3    3  502    0 -0.79306235020E+03 -0.74098080468E+03 -0.70118191904E+03  0.12921518981E+04  0.00000000000E+00 0. -1.
         -3    1    3    3    0  502 -0.58724754964E+03 -0.63598890250E+03 -0.58541581397E+03  0.10450135137E+04  0.00000000000E+00 0.  1.
         11    1    5    5    0    0  0.97677666778E+02  0.21646101176E+03 -0.24565779652E+02  0.23874625385E+03  0.00000000000E+00 0.  1.
        -11    1    5    5    0    0  0.54794672489E+01  0.64252536175E+01  0.21507033433E+02  0.23105430800E+02  0.00000000000E+00 0. -1.
          1    1    6    6  503    0  0.59720022680E+03  0.52596053637E+03 -0.97252981358E+03  0.12566211979E+04  0.00000000000E+00 0. -1.
         -1    1    6    6    0  503  0.67995253901E+03  0.62812290545E+03 -0.98575492576E+03  0.13522524222E+04  0.00000000000E+00 0.  1.
<mgrwt>
<rscale>  0 0.40709954E+04</rscale>
<asrwt>0</asrwt>
<pdfrwt beam="1">  1        2 0.65044861E+00 0.40709954E+04</pdfrwt>
<pdfrwt beam="2">  1       -1 0.15076535E+00 0.40709954E+04</pdfrwt>
<totfact> 0.66957560E-02</totfact>
</mgrwt>
</event>
<event>
12    6  0.9533401E-008  0.1268381E+04  0.7818608E-02  0.9055022E-01
         -1   -1    0    0    0  501 -0.00000000000E+00  0.00000000000E+00  0.42278518562E+03  0.42278518562E+03  0.00000000000E+00 0.  1.
          2   -1    0    0  501    0  0.00000000000E+00 -0.00000000000E+00 -0.95130411657E+03  0.95130411657E+03  0.00000000000E+00 0. -1.
         24    2    1    2    0    0  0.11270046764E+03 -0.20929866963E+03 -0.33816519053E+03  0.42190943760E+03  0.84525433664E+02 0.  0.
        254    2    1    2    0    0 -0.11270046764E+03  0.20929866963E+03 -0.19035374041E+03  0.95217986459E+03  0.90216662515E+03 0.  0.
         23    2    4    4    0    0  0.85899243447E+02  0.14026296335E+02 -0.50601028002E+03  0.52134799603E+03  0.90453924538E+02 0.  0.
         23    2    4    4    0    0 -0.19859971108E+03  0.19527237329E+03  0.31565653962E+03  0.43083186855E+03  0.91672803745E+02 0.  0.
          4    1    3    3  502    0  0.66825998203E+02 -0.19156864560E+03 -0.27902002163E+03  0.34498758308E+03  0.00000000000E+00 0. -1.
         -3    1    3    3    0  502  0.45874469434E+02 -0.17730024030E+02 -0.59145168903E+02  0.76921854518E+02  0.00000000000E+00 0.  1.
         11    1    5    5    0    0  0.87288185872E+02  0.31147359234E+02 -0.48694356963E+03  0.49568480447E+03  0.00000000000E+00 0. -1.
        -11    1    5    5    0    0 -0.13889424254E+01 -0.17121062899E+02 -0.19066710393E+02  0.25663191560E+02  0.00000000000E+00 0.  1.
          3    1    6    6  503    0 -0.59991047280E+02  0.40915635012E+02  0.14513643571E+03  0.16228863150E+03  0.00000000000E+00 0. -1.
         -3    1    6    6    0  503 -0.13860866380E+03  0.15435673828E+03  0.17052010390E+03  0.26854323706E+03  0.00000000000E+00 0.  1.
<mgrwt>
<rscale>  0 0.12683805E+04</rscale>
<asrwt>0</asrwt>
<pdfrwt beam="1">  1        2 0.14635448E+00 0.12683805E+04</pdfrwt>
<pdfrwt beam="2">  1       -1 0.65043875E-01 0.12683805E+04</pdfrwt>
<totfact> 0.72785480E+01</totfact>
</mgrwt>
</event>
<event>
12    6  0.9533401E-008  0.1756511E+04  0.7818608E-02  0.8729775E-01
         -1   -1    0    0    0  501 -0.00000000000E+00  0.00000000000E+00  0.32792878776E+03  0.32792878776E+03  0.00000000000E+00 0.  1.
          2   -1    0    0  501    0  0.00000000000E+00 -0.00000000000E+00 -0.23521339610E+04  0.23521339610E+04  0.00000000000E+00 0. -1.
         24    2    1    2    0    0 -0.51421724694E+03  0.35962581482E+03 -0.90152572523E+03  0.11013133831E+04  0.79952679135E+02 0.  0.
        254    2    1    2    0    0  0.51421724694E+03 -0.35962581482E+03 -0.11226794480E+04  0.15787493656E+04  0.91558195301E+03 0.  0.
         23    2    4    4    0    0  0.14512852082E+03 -0.60140382171E+03 -0.45570631799E+03  0.77391636119E+03  0.92354975718E+02 0.  0.
         23    2    4    4    0    0  0.36908872613E+03  0.24177800689E+03 -0.66697313001E+03  0.80483300441E+03  0.90663754979E+02 0.  0.
          2    1    3    3  502    0 -0.49985994131E+03  0.35735524991E+03 -0.89437858637E+03  0.10851155659E+04  0.00000000000E+00 0. -1.
         -1    1    3    3    0  502 -0.14357305632E+02  0.22705649098E+01 -0.71471388540E+01  0.16197817255E+02  0.00000000000E+00 0.  1.
         11    1    5    5    0    0  0.14070026227E+03 -0.40339140531E+03 -0.30141777034E+03  0.52285166343E+03  0.00000000000E+00 0. -1.
        -11    1    5    5    0    0  0.44282585463E+01 -0.19801241640E+03 -0.15428854765E+03  0.25106469776E+03  0.00000000000E+00 0.  1.
          1    1    6    6  503    0  0.13218060063E+03  0.10973313224E+03 -0.33209283869E+03  0.37389667690E+03  0.00000000000E+00 0. -1.
         -1    1    6    6    0  503  0.23690812550E+03  0.13204487464E+03 -0.33488029132E+03  0.43093632750E+03  0.00000000000E+00 0.  1.
<mgrwt>
<rscale>  0 0.17565107E+04</rscale>
<asrwt>0</asrwt>
<pdfrwt beam="1">  1        2 0.36186677E+00 0.17565107E+04</pdfrwt>
<pdfrwt beam="2">  1       -1 0.50450582E-01 0.17565107E+04</pdfrwt>
<totfact> 0.18037145E+01</totfact>
</mgrwt>
</event>
<event>
12    6  0.9533401E-008  0.1300018E+04  0.7818608E-02  0.9029551E-01
         -1   -1    0    0    0  501 -0.00000000000E+00  0.00000000000E+00  0.16151781165E+04  0.16151781165E+04  0.00000000000E+00 0.  1.
          2   -1    0    0  501    0  0.00000000000E+00 -0.00000000000E+00 -0.26158814037E+03  0.26158814037E+03  0.00000000000E+00 0. -1.
         24    2    1    2    0    0  0.39777480912E+02  0.30186648967E+03  0.53243169400E+03  0.61839727361E+03  0.78905346221E+02 0.  0.
        254    2    1    2    0    0 -0.39777480912E+02 -0.30186648967E+03  0.82115828212E+03  0.12583689832E+04  0.90359612001E+03 0.  0.
         23    2    4    4    0    0 -0.71281558484E+02  0.30829338677E+03  0.35119363208E+03  0.48237033654E+03  0.96011985996E+02 0.  0.
         23    2    4    4    0    0  0.31504077572E+02 -0.61015987645E+03  0.46996465005E+03  0.77599864670E+03  0.89551915984E+02 0.  0.
          4    1    3    3  502    0  0.41077094260E+02  0.17602006705E+03  0.37944681504E+03  0.42029784335E+03  0.00000000000E+00 0. -1.
         -3    1    3    3    0  502 -0.12996133474E+01  0.12584642262E+03  0.15298487896E+03  0.19809943026E+03  0.00000000000E+00 0.  1.
         11    1    5    5    0    0 -0.25277995173E+02  0.26812353483E+02  0.83233611226E+02  0.91025893992E+02  0.00000000000E+00 0. -1.
        -11    1    5    5    0    0 -0.46003563311E+02  0.28148103329E+03  0.26796002085E+03  0.39134444255E+03  0.00000000000E+00 0.  1.
          3    1    6    6  503    0  0.45644200802E+02 -0.26200973656E+03  0.24228240524E+03  0.35976834076E+03  0.00000000000E+00 0. -1.
         -3    1    6    6    0  503 -0.14140123230E+02 -0.34815013988E+03  0.22768224480E+03  0.41623030594E+03  0.00000000000E+00 0.  1.
<mgrwt>
<rscale>  0 0.13000176E+04</rscale>
<asrwt>0</asrwt>
<pdfrwt beam="1">  1        2 0.40244330E-01 0.13000176E+04</pdfrwt>
<pdfrwt beam="2">  1       -1 0.24848894E+00 0.13000176E+04</pdfrwt>
<totfact> 0.10266313E+01</totfact>
</mgrwt>
</event>
<event>
12    6  0.9533401E-008  0.1426634E+04  0.7818608E-02  0.8934762E-01
          2   -1    0    0  501    0  0.00000000000E+00  0.00000000000E+00  0.12860366855E+04  0.12860366855E+04  0.00000000000E+00 0. -1.
         -1   -1    0    0    0  501 -0.00000000000E+00 -0.00000000000E+00 -0.39565080808E+03  0.39565080808E+03  0.00000000000E+00 0.  1.
         24    2    1    2    0    0 -0.21775443854E+03  0.40432500587E+02  0.68709888683E+03  0.72635701219E+03  0.80236190555E+02 0.  0.
        254    2    1    2    0    0  0.21775443854E+03 -0.40432500587E+02  0.20328699061E+03  0.95533048140E+03  0.90679597790E+03 0.  0.
         23    2    4    4    0    0 -0.99449012103E+02  0.33823486948E+03  0.26378858920E+03  0.44938547456E+03  0.89832911586E+02 0.  0.
         23    2    4    4    0    0  0.31720345064E+03 -0.37866737007E+03 -0.60501598594E+02  0.50594500685E+03  0.91175107720E+02 0.  0.
          2    1    3    3  502    0 -0.20550984921E+03  0.38970434962E+02  0.54560535926E+03  0.58432713524E+03  0.00000000000E+00 0. -1.
         -1    1    3    3    0  502 -0.12244589324E+02  0.14620656248E+01  0.14149352756E+03  0.14202987695E+03  0.00000000000E+00 0.  1.
         11    1    5    5    0    0 -0.50633300137E+01  0.14763023313E+02  0.44989421656E+02  0.47619662211E+02  0.00000000000E+00 0. -1.
        -11    1    5    5    0    0 -0.94385682089E+02  0.32347184617E+03  0.21879916755E+03  0.40176581234E+03  0.00000000000E+00 0.  1.
          3    1    6    6  503    0  0.42649940357E+02 -0.84469212035E+02 -0.40822816950E+02  0.10305613799E+03  0.00000000000E+00 0. -1.
         -3    1    6    6    0  503  0.27455351028E+03 -0.29419815804E+03 -0.19678781644E+02  0.40288886885E+03  0.00000000000E+00 0.  1.
<mgrwt>
<rscale>  0 0.14266344E+04</rscale>
<asrwt>0</asrwt>
<pdfrwt beam="1">  1        2 0.19785180E+00 0.14266344E+04</pdfrwt>
<pdfrwt beam="2">  1       -1 0.60869356E-01 0.14266344E+04</pdfrwt>
<totfact> 0.51059741E+01</totfact>
</mgrwt>
</event>
<event>
12    6  0.9533401E-008  0.2038083E+04  0.7818608E-02  0.8589020E-01
         -1   -1    0    0    0  501 -0.00000000000E+00  0.00000000000E+00  0.77443661690E+03  0.77443661690E+03  0.00000000000E+00 0.  1.
          2   -1    0    0  501    0  0.00000000000E+00 -0.00000000000E+00 -0.13409039152E+04  0.13409039152E+04  0.00000000000E+00 0. -1.
         24    2    1    2    0    0  0.77195218575E+03  0.55330859633E+02 -0.50248808091E+03  0.92728979082E+03  0.91653715645E+02 0.  0.
        254    2    1    2    0    0 -0.77195218575E+03 -0.55330859633E+02 -0.63979217349E+02  0.11880507413E+04  0.89911041726E+03 0.  0.
         23    2    4    4    0    0 -0.24183219024E+03 -0.34373744317E+03 -0.31087089968E+03  0.52963337257E+03  0.85044429582E+02 0.  0.
         23    2    4    4    0    0 -0.53011999551E+03  0.28840658354E+03  0.24689168233E+03  0.65841736868E+03  0.91391255064E+02 0.  0.
          2    1    3    3  502    0  0.21329491963E+03  0.15783124969E+02 -0.91569163906E+02  0.23265584358E+03  0.00000000000E+00 0. -1.
         -3    1    3    3    0  502  0.55865726612E+03  0.39547734664E+02 -0.41091891701E+03  0.69463394724E+03  0.00000000000E+00 0.  1.
         11    1    5    5    0    0 -0.14115409040E+03 -0.12874760907E+03 -0.14936114851E+03  0.24250603449E+03  0.00000000000E+00 0. -1.
        -11    1    5    5    0    0 -0.10067809983E+03 -0.21498983410E+03 -0.16150975116E+03  0.28712733808E+03  0.00000000000E+00 0.  1.
          2    1    6    6  503    0 -0.30319761159E+03  0.17534539660E+03  0.19045789145E+03  0.39868409574E+03  0.00000000000E+00 0. -1.
         -2    1    6    6    0  503 -0.22692238392E+03  0.11306118694E+03  0.56433790883E+02  0.25973327293E+03  0.00000000000E+00 0.  1.
<mgrwt>
<rscale>  0 0.20380825E+04</rscale>
<asrwt>0</asrwt>
<pdfrwt beam="1">  1        2 0.20629291E+00 0.20380825E+04</pdfrwt>
<pdfrwt beam="2">  1       -1 0.11914410E+00 0.20380825E+04</pdfrwt>
<totfact> 0.10409677E+01</totfact>
</mgrwt>
</event>
<event>
12    6  0.9533401E-008  0.2078657E+04  0.7818608E-02  0.8570704E-01
          2   -1    0    0  501    0  0.00000000000E+00  0.00000000000E+00  0.12283547646E+04  0.12283547646E+04  0.00000000000E+00 0. -1.
         -1   -1    0    0    0  501 -0.00000000000E+00 -0.00000000000E+00 -0.87939073960E+03  0.87939073960E+03  0.00000000000E+00 0.  1.
         24    2    1    2    0    0 -0.78352086058E+03 -0.27052167626E+03  0.28177634456E+03  0.87832135608E+03  0.70452678451E+02 0.  0.
        254    2    1    2    0    0  0.78352086058E+03  0.27052167626E+03  0.67187680461E+02  0.12294241481E+04  0.90547370770E+03 0.  0.
         23    2    4    4    0    0 -0.55074364275E+01  0.26739241733E+03  0.28965910029E+03  0.40470022885E+03  0.91382953257E+02 0.  0.
         23    2    4    4    0    0  0.78902829701E+03  0.31292589319E+01 -0.22247141983E+03  0.82472391930E+03  0.90003137049E+02 0.  0.
          2    1    3    3  502    0 -0.57433280877E+03 -0.18511767296E+03  0.17420773102E+03  0.62807249711E+03  0.00000000000E+00 0. -1.
         -1    1    3    3    0  502 -0.20918805181E+03 -0.85404003298E+02  0.10756861353E+03  0.25024885897E+03  0.00000000000E+00 0.  1.
         11    1    5    5    0    0 -0.26307126515E+02  0.11680792055E+03  0.18417056744E+03  0.21967010065E+03  0.00000000000E+00 0. -1.
        -11    1    5    5    0    0  0.20799690088E+02  0.15058449677E+03  0.10548853285E+03  0.18503012820E+03  0.00000000000E+00 0.  1.
          3    1    6    6  503    0  0.49238920020E+03 -0.30248078714E+02 -0.16899481030E+03  0.52146075274E+03  0.00000000000E+00 0. -1.
         -3    1    6    6    0  503  0.29663909681E+03  0.33377337646E+02 -0.53476609529E+02  0.30326316656E+03  0.00000000000E+00 0.  1.
<mgrwt>
<rscale>  0 0.20786571E+04</rscale>
<asrwt>0</asrwt>
<pdfrwt beam="1">  1        2 0.18897766E+00 0.20786571E+04</pdfrwt>
<pdfrwt beam="2">  1       -1 0.13529088E+00 0.20786571E+04</pdfrwt>
<totfact> 0.87836405E+00</totfact>
</mgrwt>
</event>
<event>
12    6  0.9533401E-008  0.1444507E+04  0.7818608E-02  0.8922218E-01
         -1   -1    0    0    0  501 -0.00000000000E+00  0.00000000000E+00  0.67914748953E+03  0.67914748953E+03  0.00000000000E+00 0.  1.
          2   -1    0    0  501    0  0.00000000000E+00 -0.00000000000E+00 -0.76809514694E+03  0.76809514694E+03  0.00000000000E+00 0. -1.
         24    2    1    2    0    0 -0.50374520949E+01 -0.38455527967E+03  0.19295281463E+03  0.43734538984E+03  0.78307485541E+02 0.  0.
        254    2    1    2    0    0  0.50374520949E+01  0.38455527967E+03 -0.28190047204E+03  0.10098972466E+04  0.89023392070E+03 0.  0.
         23    2    4    4    0    0  0.79904628565E+02  0.65419761659E+03 -0.13398417008E+03  0.67874156222E+03  0.91537310590E+02 0.  0.
         23    2    4    4    0    0 -0.74867176470E+02 -0.26964233692E+03 -0.14791630196E+03  0.33115568441E+03  0.97328161187E+02 0.  0.
          4    1    3    3  502    0 -0.19259210112E+02 -0.32780506819E+02  0.34228931175E+02  0.51157585272E+02  0.00000000000E+00 0. -1.
         -3    1    3    3    0  502  0.14221758017E+02 -0.35177477286E+03  0.15872388346E+03  0.38618780457E+03  0.00000000000E+00 0.  1.
         11    1    5    5    0    0  0.86310269241E+02  0.34591771916E+03 -0.85174027500E+02  0.36655578834E+03  0.00000000000E+00 0. -1.
        -11    1    5    5    0    0 -0.64056406765E+01  0.30827989743E+03 -0.48810142580E+02  0.31218577388E+03  0.00000000000E+00 0.  1.
          3    1    6    6  503    0 -0.98007069800E+02 -0.21451947611E+03 -0.10896045383E+03  0.25980063868E+03  0.00000000000E+00 0. -1.
         -3    1    6    6    0  503  0.23139893330E+02 -0.55122860805E+02 -0.38955848135E+02  0.71355045726E+02  0.00000000000E+00 0.  1.
<mgrwt>
<rscale>  0 0.14445067E+04</rscale>
<asrwt>0</asrwt>
<pdfrwt beam="1">  1        2 0.11816848E+00 0.14445067E+04</pdfrwt>
<pdfrwt beam="2">  1       -1 0.10448423E+00 0.14445067E+04</pdfrwt>
<totfact> 0.34693339E+01</totfact>
</mgrwt>
</event>
<event>
12    6  0.9533401E-008  0.1612382E+04  0.7818608E-02  0.8812977E-01
          2   -1    0    0  501    0  0.00000000000E+00  0.00000000000E+00  0.15865695043E+04  0.15865695043E+04  0.00000000000E+00 0. -1.
         -1   -1    0    0    0  501 -0.00000000000E+00 -0.00000000000E+00 -0.40965371640E+03  0.40965371640E+03  0.00000000000E+00 0.  1.
         24    2    1    2    0    0 -0.24495214338E+02 -0.16972982454E+03  0.10643064595E+04  0.10809496173E+04  0.79344858248E+02 0.  0.
        254    2    1    2    0    0  0.24495214338E+02  0.16972982454E+03  0.11260932844E+03  0.91527360344E+03  0.89198468565E+03 0.  0.
         23    2    4    4    0    0  0.32822653027E+03 -0.65115180054E+02 -0.20991420612E+03  0.40522979648E+03  0.90413340701E+02 0.  0.
         23    2    4    4    0    0 -0.30373131593E+03  0.23484500460E+03  0.32252353456E+03  0.51004380695E+03  0.93372191818E+02 0.  0.
          4    1    3    3  502    0 -0.23492903428E+02 -0.11385326669E+03  0.89824775342E+03  0.90573920605E+03  0.00000000000E+00 0. -1.
         -3    1    3    3    0  502 -0.10023109105E+01 -0.55876557851E+02  0.16605870610E+03  0.17521041126E+03  0.00000000000E+00 0.  1.
         11    1    5    5    0    0  0.17257047284E+03  0.43997995595E+01 -0.76789784319E+02  0.18893543158E+03  0.00000000000E+00 0. -1.
        -11    1    5    5    0    0  0.15565605744E+03 -0.69514979613E+02 -0.13312442180E+03  0.21629436490E+03  0.00000000000E+00 0.  1.
          1    1    6    6  503    0 -0.18573709903E+03  0.85095388570E+02  0.17433902571E+03  0.26857697406E+03  0.00000000000E+00 0. -1.
         -1    1    6    6    0  503 -0.11799421690E+03  0.14974961603E+03  0.14818450885E+03  0.24146683289E+03  0.00000000000E+00 0.  1.
<mgrwt>
<rscale>  0 0.16123822E+04</rscale>
<asrwt>0</asrwt>
<pdfrwt beam="1">  1        2 0.24408761E+00 0.16123822E+04</pdfrwt>
<pdfrwt beam="2">  1       -1 0.63023649E-01 0.16123822E+04</pdfrwt>
<totfact> 0.31625341E+01</totfact>
</mgrwt>
</event>
<event>
12    6  0.9533401E-008  0.1330463E+04  0.7818608E-02  0.9005750E-01
          2   -1    0    0  501    0  0.00000000000E+00  0.00000000000E+00  0.90500013131E+03  0.90500013131E+03  0.00000000000E+00 0. -1.
         -1   -1    0    0    0  501 -0.00000000000E+00 -0.00000000000E+00 -0.48898681641E+03  0.48898681641E+03  0.00000000000E+00 0.  1.
         24    2    1    2    0    0  0.21873714758E+03 -0.19722935023E+03 -0.95861159696E+02  0.31997364370E+03  0.80302019893E+02 0.  0.
        254    2    1    2    0    0 -0.21873714758E+03  0.19722935023E+03  0.51187447459E+03  0.10740133040E+04  0.89707510452E+03 0.  0.
         23    2    4    4    0    0 -0.34991913876E+03 -0.19231017150E+03  0.50716919760E+03  0.65265270005E+03  0.96479770711E+02 0.  0.
         23    2    4    4    0    0  0.13118199118E+03  0.38953952173E+03  0.47052769909E+01  0.42136060397E+03  0.92589768043E+02 0.  0.
          2    1    3    3  502    0  0.96791606458E+02 -0.65885264314E+02 -0.76138036988E+02  0.13966561428E+03  0.00000000000E+00 0. -1.
         -1    1    3    3    0  502  0.12194554112E+03 -0.13134408592E+03 -0.19723122708E+02  0.18030802942E+03  0.00000000000E+00 0.  1.
         11    1    5    5    0    0 -0.13209581389E+03 -0.30625040134E+02  0.12827493964E+03  0.18665920087E+03  0.00000000000E+00 0.  1.
        -11    1    5    5    0    0 -0.21782332487E+03 -0.16168513137E+03  0.37889425796E+03  0.46599349918E+03  0.00000000000E+00 0. -1.
          1    1    6    6  503    0  0.11535519206E+03  0.37682417264E+03 -0.13177783094E+02  0.39430563196E+03  0.00000000000E+00 0. -1.
         -1    1    6    6    0  503  0.15826799119E+02  0.12715349087E+02  0.17883060085E+02  0.27054972016E+02  0.00000000000E+00 0.  1.
<mgrwt>
<rscale>  0 0.13304633E+04</rscale>
<asrwt>0</asrwt>
<pdfrwt beam="1">  1        2 0.13923079E+00 0.13304633E+04</pdfrwt>
<pdfrwt beam="2">  1       -1 0.75228741E-01 0.13304633E+04</pdfrwt>
<totfact> 0.57711794E+01</totfact>
</mgrwt>
</event>
<event>
12    6  0.9533401E-008  0.2603129E+04  0.7818608E-02  0.8367139E-01
          2   -1    0    0  501    0  0.00000000000E+00  0.00000000000E+00  0.15767838386E+04  0.15767838386E+04  0.00000000000E+00 0. -1.
         -1   -1    0    0    0  501 -0.00000000000E+00 -0.00000000000E+00 -0.10743832489E+04  0.10743832489E+04  0.00000000000E+00 0.  1.
         24    2    1    2    0    0 -0.33101406497E+03  0.95447470413E+03  0.76703111342E+03  0.12709753069E+04  0.80307096290E+02 0.  0.
        254    2    1    2    0    0  0.33101406497E+03 -0.95447470413E+03 -0.26463052373E+03  0.13801917806E+04  0.90239002937E+03 0.  0.
         23    2    4    4    0    0 -0.16683602109E+03 -0.20387857942E+03 -0.37614026788E+03  0.46800677755E+03  0.90266880023E+02 0.  0.
         23    2    4    4    0    0  0.49785008605E+03 -0.75059612471E+03  0.11150974415E+03  0.91218500305E+03  0.91639544616E+02 0.  0.
          2    1    3    3  502    0 -0.23250662771E+03  0.55272076905E+03  0.46439158965E+03  0.75843202003E+03  0.00000000000E+00 0. -1.
         -1    1    3    3    0  502 -0.98507437253E+02  0.40175393508E+03  0.30263952377E+03  0.51254328685E+03  0.00000000000E+00 0.  1.
         11    1    5    5    0    0  0.19139585052E+01 -0.37033140752E+02 -0.27069570433E+02  0.45911636809E+02  0.00000000000E+00 0.  1.
        -11    1    5    5    0    0 -0.16874997959E+03 -0.16684543867E+03 -0.34907069745E+03  0.42209514074E+03  0.00000000000E+00 0. -1.
          3    1    6    6  503    0  0.50149823397E+03 -0.74624859638E+03  0.10813748296E+03  0.90558332665E+03  0.00000000000E+00 0. -1.
         -3    1    6    6    0  503 -0.36481479205E+01 -0.43475283266E+01  0.33722611873E+01  0.66016764019E+01  0.00000000000E+00 0.  1.
<mgrwt>
<rscale>  0 0.26031290E+04</rscale>
<asrwt>0</asrwt>
<pdfrwt beam="1">  1        2 0.24258213E+00 0.26031290E+04</pdfrwt>
<pdfrwt beam="2">  1       -1 0.16528973E+00 0.26031290E+04</pdfrwt>
<totfact> 0.30857883E+00</totfact>
</mgrwt>
</event>
<event>
12    6  0.9533401E-008  0.1672666E+04  0.7818608E-02  0.8777109E-01
          2   -1    0    0  501    0  0.00000000000E+00  0.00000000000E+00  0.15619701477E+04  0.15619701477E+04  0.00000000000E+00 0. -1.
         -1   -1    0    0    0  501 -0.00000000000E+00 -0.00000000000E+00 -0.44780178388E+03  0.44780178388E+03  0.00000000000E+00 0.  1.
         24    2    1    2    0    0 -0.28707706468E+03 -0.33086962726E+03  0.87998380254E+03  0.98616138606E+03  0.79087516822E+02 0.  0.
        254    2    1    2    0    0  0.28707706468E+03  0.33086962726E+03  0.23418456123E+03  0.10236105455E+04  0.89501295454E+03 0.  0.
         23    2    4    4    0    0  0.72815824162E+02 -0.56371105082E+02  0.48838472195E+03  0.50514283497E+03  0.90386953388E+02 0.  0.
         23    2    4    4    0    0  0.21426124052E+03  0.38724073234E+03 -0.25420016072E+03  0.51846771051E+03  0.91256677381E+02 0.  0.
          2    1    3    3  502    0 -0.28152423156E+03 -0.29191190313E+03  0.79268500185E+03  0.89040325937E+03  0.00000000000E+00 0. -1.
         -3    1    3    3    0  502 -0.55528331223E+01 -0.38957724129E+02  0.87298800686E+02  0.95758126684E+02  0.00000000000E+00 0.  1.
         11    1    5    5    0    0 -0.90188903514E+01  0.12545257913E+02  0.23632446788E+02  0.28235021170E+02  0.00000000000E+00 0. -1.
        -11    1    5    5    0    0  0.81834714514E+02 -0.68916362994E+02  0.46475227516E+03  0.47690781380E+03  0.00000000000E+00 0.  1.
          1    1    6    6  503    0  0.43902322722E+02  0.40252589684E+02 -0.78225557015E+01  0.60073931903E+02  0.00000000000E+00 0. -1.
         -1    1    6    6    0  503  0.17035891780E+03  0.34698814265E+03 -0.24637760502E+03  0.45839377861E+03  0.00000000000E+00 0.  1.
<mgrwt>
<rscale>  0 0.16726662E+04</rscale>
<asrwt>0</asrwt>
<pdfrwt beam="1">  1        2 0.24030310E+00 0.16726662E+04</pdfrwt>
<pdfrwt beam="2">  1       -1 0.68892583E-01 0.16726662E+04</pdfrwt>
<totfact> 0.27130701E+01</totfact>
</mgrwt>
</event>
<event>
12    6  0.1075887E-007  0.1912930E+04  0.7818608E-02  0.8648447E-01
          2   -1    0    0  501    0  0.00000000000E+00  0.00000000000E+00  0.17355953112E+04  0.17355953112E+04  0.00000000000E+00 0. -1.
         -1   -1    0    0    0  501 -0.00000000000E+00 -0.00000000000E+00 -0.52709584142E+03  0.52709584142E+03  0.00000000000E+00 0.  1.
         24    2    1    2    0    0  0.29415202888E+03  0.30625222823E+02  0.12763139421E+04  0.13125646017E+04  0.79907661372E+02 0.  0.
        254    2    1    2    0    0 -0.29415202888E+03 -0.30625222823E+02 -0.67814472344E+02  0.95012655094E+03  0.90037677656E+03 0.  0.
         23    2    4    4    0    0 -0.17891714885E+03  0.26880966864E+03 -0.37061728454E+03  0.49991751557E+03  0.91051450683E+02 0.  0.
         23    2    4    4    0    0 -0.11523488003E+03 -0.29943489147E+03  0.30280281219E+03  0.45020903537E+03  0.89768038020E+02 0.  0.
          2    1    3    3  502    0  0.29282906522E+03  0.40778880045E+02  0.12447903542E+04  0.12794197140E+04  0.00000000000E+00 0. -1.
         -1    1    3    3    0  502  0.13229636628E+01 -0.10153657221E+02  0.31523587914E+02  0.33144887732E+02  0.00000000000E+00 0.  1.
         11    1    5    5    0    0 -0.11352736852E+03  0.11657369112E+03 -0.13257565847E+03  0.20989090996E+03  0.00000000000E+00 0. -1.
        -11    1    5    5    0    0 -0.65389780330E+02  0.15223597752E+03 -0.23804162607E+03  0.29002660561E+03  0.00000000000E+00 0.  1.
          3    1    6    6  503    0  0.21429725262E+01 -0.21758156604E+02 -0.14306066767E+01  0.21910188167E+02  0.00000000000E+00 0. -1.
         -3    1    6    6    0  503 -0.11737785256E+03 -0.27767673486E+03  0.30423341887E+03  0.42829884720E+03  0.00000000000E+00 0.  1.
<mgrwt>
<rscale>  0 0.19129298E+04</rscale>
<asrwt>0</asrwt>
<pdfrwt beam="1">  1        2 0.26701466E+00 0.19129298E+04</pdfrwt>
<pdfrwt beam="2">  1       -1 0.81091669E-01 0.19129298E+04</pdfrwt>
<totfact> 0.15129434E+01</totfact>
</mgrwt>
</event>
<event>
12    6  0.9533401E-008  0.1764993E+04  0.7818608E-02  0.8725141E-01
         -1   -1    0    0    0  501 -0.00000000000E+00  0.00000000000E+00  0.75426421734E+03  0.75426421734E+03  0.00000000000E+00 0.  1.
          2   -1    0    0  501    0  0.00000000000E+00 -0.00000000000E+00 -0.10325292047E+04  0.10325292047E+04  0.00000000000E+00 0. -1.
         24    2    1    2    0    0  0.58512660216E+03 -0.28016035886E+03  0.13509246688E+03  0.66737204692E+03  0.79199161373E+02 0.  0.
        254    2    1    2    0    0 -0.58512660216E+03  0.28016035886E+03 -0.41335745428E+03  0.11194213752E+04  0.81325079952E+03 0.  0.
         23    2    4    4    0    0  0.75160065055E+02 -0.13021567090E+03  0.82106922229E+02  0.19326677643E+03  0.89472587225E+02 0.  0.
         23    2    4    4    0    0 -0.66028666722E+03  0.41037602976E+03 -0.49546437651E+03  0.92615459873E+03  0.88828056656E+02 0.  0.
          2    1    3    3  502    0  0.53013724188E+03 -0.23096281685E+03  0.10516711162E+03  0.58774946989E+03  0.00000000000E+00 0. -1.
         -1    1    3    3    0  502  0.54989360287E+02 -0.49197542006E+02  0.29925355267E+02  0.79622577025E+02  0.00000000000E+00 0.  1.
         11    1    5    5    0    0  0.33905254689E+02 -0.56491379288E+01 -0.64327650412E+01  0.34969408358E+02  0.00000000000E+00 0. -1.
        -11    1    5    5    0    0  0.41254810366E+02 -0.12456653298E+03  0.88539687270E+02  0.15829736807E+03  0.00000000000E+00 0.  1.
          3    1    6    6  503    0 -0.11312551119E+03  0.10032451391E+03 -0.68388172733E+02  0.16594978621E+03  0.00000000000E+00 0. -1.
         -3    1    6    6    0  503 -0.54716115603E+03  0.31005151586E+03 -0.42707620378E+03  0.76020481252E+03  0.00000000000E+00 0.  1.
<mgrwt>
<rscale>  0 0.17649927E+04</rscale>
<asrwt>0</asrwt>
<pdfrwt beam="1">  1        2 0.15885065E+00 0.17649927E+04</pdfrwt>
<pdfrwt beam="2">  1       -1 0.11604065E+00 0.17649927E+04</pdfrwt>
<totfact> 0.17420347E+01</totfact>
</mgrwt>
</event>
<event>
12    6  0.9533401E-008  0.1600005E+04  0.7818608E-02  0.8820545E-01
          2   -1    0    0  501    0  0.00000000000E+00  0.00000000000E+00  0.97330518731E+03  0.97330518731E+03  0.00000000000E+00 0. -1.
         -1   -1    0    0    0  501 -0.00000000000E+00 -0.00000000000E+00 -0.65755764624E+03  0.65755764624E+03  0.00000000000E+00 0.  1.
         24    2    1    2    0    0  0.24142942058E+03  0.13446396026E+03  0.57217240468E+03  0.64279068266E+03  0.97107565704E+02 0.  0.
        254    2    1    2    0    0 -0.24142942058E+03 -0.13446396026E+03 -0.25642486361E+03  0.98807215089E+03  0.91332586898E+03 0.  0.
         23    2    4    4    0    0 -0.17669545036E+03  0.24378334466E+03 -0.44992742583E+03  0.54891344608E+03  0.90662458897E+02 0.  0.
         23    2    4    4    0    0 -0.64733970213E+02 -0.37824730492E+03  0.19350256223E+03  0.43915870481E+03  0.90308448347E+02 0.  0.
          2    1    3    3  502    0  0.23860301445E+03  0.14649874550E+03  0.55507166249E+03  0.62168949761E+03  0.00000000000E+00 0. -1.
         -1    1    3    3    0  502  0.28264061303E+01 -0.12034785242E+02  0.17100742191E+02  0.21101185059E+02  0.00000000000E+00 0.  1.
         11    1    5    5    0    0 -0.98601620272E+02  0.15430936906E+03 -0.19401760837E+03  0.26678923003E+03  0.00000000000E+00 0. -1.
        -11    1    5    5    0    0 -0.78093830092E+02  0.89473975596E+02 -0.25590981746E+03  0.28212421605E+03  0.00000000000E+00 0.  1.
          3    1    6    6  503    0 -0.57983498356E+02 -0.38184662810E+03  0.19217860162E+03  0.43139488685E+03  0.00000000000E+00 0. -1.
         -3    1    6    6    0  503 -0.67504718575E+01  0.35993231845E+01  0.13239606082E+01  0.77638179639E+01  0.00000000000E+00 0.  1.
<mgrwt>
<rscale>  0 0.16000053E+04</rscale>
<asrwt>0</asrwt>
<pdfrwt beam="1">  1        2 0.14973926E+00 0.16000053E+04</pdfrwt>
<pdfrwt beam="2">  1       -1 0.10116272E+00 0.16000053E+04</pdfrwt>
<totfact> 0.26624296E+01</totfact>
</mgrwt>
</event>
<event>
12    6  0.9533401E-008  0.1249308E+04  0.7818608E-02  0.9070759E-01
          2   -1    0    0  501    0  0.00000000000E+00  0.00000000000E+00  0.12170391626E+04  0.12170391626E+04  0.00000000000E+00 0. -1.
         -1   -1    0    0    0  501 -0.00000000000E+00 -0.00000000000E+00 -0.32060805360E+03  0.32060805360E+03  0.00000000000E+00 0.  1.
         24    2    1    2    0    0 -0.14721766151E+03 -0.21981647335E+03  0.65312327631E+02  0.28401176053E+03  0.80029108227E+02 0.  0.
        254    2    1    2    0    0  0.14721766151E+03  0.21981647335E+03  0.83111878136E+03  0.12536354557E+04  0.90047271205E+03 0.  0.
         23    2    4    4    0    0 -0.20945392055E+03  0.39244842419E+03  0.68474397879E+03  0.82157231964E+03  0.90664488183E+02 0.  0.
         23    2    4    4    0    0  0.35667158206E+03 -0.17263195085E+03  0.14637480257E+03  0.43206313603E+03  0.90755511025E+02 0.  0.
          2    1    3    3  502    0  0.57746164384E+01  0.13662830383E+01  0.63375253855E+01  0.86820016334E+01  0.00000000000E+00 0. -1.
         -3    1    3    3    0  502 -0.15299227795E+03 -0.22118275638E+03  0.58974802245E+02  0.27532975890E+03  0.00000000000E+00 0.  1.
         11    1    5    5    0    0 -0.21789943807E+03  0.38625789968E+03  0.66730758485E+03  0.80123326377E+03  0.00000000000E+00 0. -1.
        -11    1    5    5    0    0  0.84455175169E+01  0.61905245176E+01  0.17436393939E+02  0.20339055866E+02  0.00000000000E+00 0.  1.
          2    1    6    6  503    0  0.26218115908E+03 -0.13163209983E+03  0.14897520745E+03  0.32902823939E+03  0.00000000000E+00 0. -1.
         -2    1    6    6    0  503  0.94490422985E+02 -0.40999851020E+02 -0.26004048814E+01  0.10303489664E+03  0.00000000000E+00 0.  1.
<mgrwt>
<rscale>  0 0.12493079E+04</rscale>
<asrwt>0</asrwt>
<pdfrwt beam="1">  1        2 0.18723679E+00 0.12493079E+04</pdfrwt>
<pdfrwt beam="2">  1       -1 0.49324317E-01 0.12493079E+04</pdfrwt>
<totfact> 0.85431703E+01</totfact>
</mgrwt>
</event>
<event>
12    6  0.9533401E-008  0.1434874E+04  0.7818608E-02  0.8928954E-01
          2   -1    0    0  501    0  0.00000000000E+00  0.00000000000E+00  0.68827996011E+03  0.68827996011E+03  0.00000000000E+00 0. -1.
         -1   -1    0    0    0  501 -0.00000000000E+00 -0.00000000000E+00 -0.74782966154E+03  0.74782966154E+03  0.00000000000E+00 0.  1.
         24    2    1    2    0    0 -0.32630684192E+03  0.17891538982E+03  0.21131156590E+03  0.43531533021E+03  0.79749526893E+02 0.  0.
        254    2    1    2    0    0  0.32630684192E+03 -0.17891538982E+03 -0.27086126732E+03  0.10007942914E+04  0.88867120795E+03 0.  0.
         23    2    4    4    0    0  0.53933560294E+03 -0.28719841651E+03  0.13112246225E+02  0.61862162268E+03  0.95681544733E+02 0.  0.
         23    2    4    4    0    0 -0.21302876102E+03  0.10828302669E+03 -0.28397351355E+03  0.38217266876E+03  0.91151113307E+02 0.  0.
          2    1    3    3  502    0 -0.25415026373E+03  0.16387408763E+03  0.19500652160E+03  0.35982581428E+03  0.00000000000E+00 0. -1.
         -1    1    3    3    0  502 -0.72156578181E+02  0.15041302187E+02  0.16305044295E+02  0.75489515933E+02  0.00000000000E+00 0.  1.
         11    1    5    5    0    0  0.19089393135E+03 -0.78529704876E+02  0.44870477007E+02  0.21123628306E+03  0.00000000000E+00 0.  1.
        -11    1    5    5    0    0  0.34844167159E+03 -0.20866871163E+03 -0.31758230782E+02  0.40738533962E+03  0.00000000000E+00 0. -1.
          2    1    6    6  503    0 -0.79382195307E+02  0.85097391005E+02 -0.98955208759E+02  0.15275873863E+03  0.00000000000E+00 0. -1.
         -2    1    6    6    0  503 -0.13364656571E+03  0.23185635687E+02 -0.18501830479E+03  0.22941393013E+03  0.00000000000E+00 0.  1.
<mgrwt>
<rscale>  0 0.14348744E+04</rscale>
<asrwt>0</asrwt>
<pdfrwt beam="1">  1        2 0.10588923E+00 0.14348744E+04</pdfrwt>
<pdfrwt beam="2">  1       -1 0.11505072E+00 0.14348744E+04</pdfrwt>
<totfact> 0.31839984E+01</totfact>
</mgrwt>
</event>
<event>
12    6  0.9533401E-008  0.3435299E+04  0.7818608E-02  0.8129297E-01
         -1   -1    0    0    0  501 -0.00000000000E+00  0.00000000000E+00  0.14710638120E+04  0.14710638120E+04  0.00000000000E+00 0.  1.
          2   -1    0    0  501    0  0.00000000000E+00 -0.00000000000E+00 -0.20055693729E+04  0.20055693729E+04  0.00000000000E+00 0. -1.
         24    2    1    2    0    0 -0.12844767142E+04 -0.86314931701E+03  0.15333866017E+03  0.15571649091E+04  0.79640672207E+02 0.  0.
        254    2    1    2    0    0  0.12844767142E+04  0.86314931701E+03 -0.68784422106E+03  0.19194682757E+04  0.90350518340E+03 0.  0.
         23    2    4    4    0    0  0.12328011075E+03 -0.69969592767E+02  0.13483389071E+03  0.21557407458E+03  0.90544320242E+02 0.  0.
         23    2    4    4    0    0  0.11611966034E+04  0.93311890977E+03 -0.82267811177E+03  0.17038942012E+04  0.85835433174E+02 0.  0.
          2    1    3    3  502    0 -0.32695657358E+03 -0.18769705891E+03  0.58962023323E+02  0.38158525538E+03  0.00000000000E+00 0. -1.
         -1    1    3    3    0  502 -0.95752014059E+03 -0.67545225810E+03  0.94376636845E+02  0.11755796537E+04  0.00000000000E+00 0.  1.
         11    1    5    5    0    0  0.28487626666E+02 -0.25568433394E+02  0.96984171005E+02  0.10426513840E+03  0.00000000000E+00 0.  1.
        -11    1    5    5    0    0  0.94792484085E+02 -0.44401159373E+02  0.37849719708E+02  0.11130893618E+03  0.00000000000E+00 0. -1.
          2    1    6    6  503    0  0.10695469082E+04  0.88607402219E+03 -0.77297678280E+03  0.15895127770E+04  0.00000000000E+00 0. -1.
         -2    1    6    6    0  503  0.91649695208E+02  0.47044887588E+02 -0.49701328972E+02  0.11438142411E+03  0.00000000000E+00 0.  1.
<mgrwt>
<rscale>  0 0.34352994E+04</rscale>
<asrwt>0</asrwt>
<pdfrwt beam="1">  1        2 0.30854913E+00 0.34352994E+04</pdfrwt>
<pdfrwt beam="2">  1       -1 0.22631751E+00 0.34352994E+04</pdfrwt>
<totfact> 0.62245914E-01</totfact>
</mgrwt>
</event>
<event>
12    6  0.9533401E-008  0.2251980E+04  0.7818608E-02  0.8497099E-01
          2   -1    0    0  501    0  0.00000000000E+00  0.00000000000E+00  0.22062609006E+04  0.22062609006E+04  0.00000000000E+00 0. -1.
         -1   -1    0    0    0  501 -0.00000000000E+00 -0.00000000000E+00 -0.57466146509E+03  0.57466146509E+03  0.00000000000E+00 0.  1.
         24    2    1    2    0    0  0.89559854341E+03 -0.21390006147E+03  0.44221315138E+03  0.10246760560E+04  0.80984944983E+02 0.  0.
        254    2    1    2    0    0 -0.89559854341E+03  0.21390006147E+03  0.11893862841E+04  0.17562463096E+04  0.90659328258E+03 0.  0.
         23    2    4    4    0    0 -0.10237179646E+04  0.80789700405E+02  0.11499342191E+04  0.15443521043E+04  0.90273290254E+02 0.  0.
         23    2    4    4    0    0  0.12811942122E+03  0.13311036107E+03  0.39452064989E+02  0.21189420534E+03  0.95967361676E+02 0.  0.
          2    1    3    3  502    0  0.83401815859E+03 -0.21222643971E+03  0.39425601754E+03  0.94660665429E+03  0.00000000000E+00 0. -1.
         -1    1    3    3    0  502  0.61580384821E+02 -0.16736217584E+01  0.47957133837E+02  0.78069401755E+02  0.00000000000E+00 0.  1.
         11    1    5    5    0    0 -0.96884222903E+03  0.68579282698E+02  0.10549080711E+04  0.14339419170E+04  0.00000000000E+00 0.  1.
        -11    1    5    5    0    0 -0.54875735605E+02  0.12210417707E+02  0.95026148002E+02  0.11041018732E+03  0.00000000000E+00 0. -1.
          4    1    6    6  503    0  0.60539141596E+02  0.46944748823E+02 -0.29942300980E+02  0.82251677765E+02  0.00000000000E+00 0. -1.
         -4    1    6    6    0  503  0.67580279628E+02  0.86165612243E+02  0.69394365969E+02  0.12964252757E+03  0.00000000000E+00 0.  1.
<mgrwt>
<rscale>  0 0.22519797E+04</rscale>
<asrwt>0</asrwt>
<pdfrwt beam="1">  1        2 0.33942475E+00 0.22519797E+04</pdfrwt>
<pdfrwt beam="2">  1       -1 0.88409457E-01 0.22519797E+04</pdfrwt>
<totfact> 0.66645662E+00</totfact>
</mgrwt>
</event>
<event>
12    6  0.9533401E-008  0.3512778E+04  0.7818608E-02  0.8110768E-01
          2   -1    0    0  501    0  0.00000000000E+00  0.00000000000E+00  0.30087476074E+04  0.30087476074E+04  0.00000000000E+00 0. -1.
         -1   -1    0    0    0  501 -0.00000000000E+00 -0.00000000000E+00 -0.10253113243E+04  0.10253113243E+04  0.00000000000E+00 0.  1.
         24    2    1    2    0    0 -0.91327162725E+03 -0.13333283274E+04  0.12038938029E+04  0.20168075086E+04  0.79515685516E+02 0.  0.
        254    2    1    2    0    0  0.91327162725E+03  0.13333283274E+04  0.77954248018E+03  0.20172514231E+04  0.92183910296E+03 0.  0.
         23    2    4    4    0    0  0.89015312279E+02  0.74377199788E+03  0.64131523991E+03  0.99053650350E+03  0.93577866877E+02 0.  0.
         23    2    4    4    0    0  0.82425631497E+03  0.58955632953E+03  0.13822724026E+03  0.10267149196E+04  0.89786511774E+02 0.  0.
          4    1    3    3  502    0 -0.83173128040E+03 -0.11992369115E+04  0.10585701047E+04  0.18029189552E+04  0.00000000000E+00 0. -1.
         -3    1    3    3    0  502 -0.81540346854E+02 -0.13409141596E+03  0.14532369822E+03  0.21388855338E+03  0.00000000000E+00 0.  1.
         11    1    5    5    0    0  0.86645335166E+02  0.71513797676E+03  0.58762288402E+03  0.92963992693E+03  0.00000000000E+00 0. -1.
        -11    1    5    5    0    0  0.23699771131E+01  0.28634021121E+02  0.53692355895E+02  0.60896576575E+02  0.00000000000E+00 0.  1.
          3    1    6    6  503    0  0.42307013615E+03  0.25720791142E+03  0.41616150746E+02  0.49686633394E+03  0.00000000000E+00 0. -1.
         -3    1    6    6    0  503  0.40118617882E+03  0.33234841811E+03  0.96611089518E+02  0.52984858565E+03  0.00000000000E+00 0.  1.
<mgrwt>
<rscale>  0 0.35127784E+04</rscale>
<asrwt>0</asrwt>
<pdfrwt beam="1">  1        2 0.46288424E+00 0.35127784E+04</pdfrwt>
<pdfrwt beam="2">  1       -1 0.15774021E+00 0.35127784E+04</pdfrwt>
<totfact> 0.48693239E-01</totfact>
</mgrwt>
</event>
<event>
12    6  0.9533401E-008  0.2367163E+04  0.7818608E-02  0.8451901E-01
         -1   -1    0    0    0  501 -0.00000000000E+00  0.00000000000E+00  0.43676935593E+03  0.43676935593E+03  0.00000000000E+00 0.  1.
          2   -1    0    0  501    0  0.00000000000E+00 -0.00000000000E+00 -0.32073327908E+04  0.32073327908E+04  0.00000000000E+00 0. -1.
         24    2    1    2    0    0 -0.48384584758E+03 -0.70462417085E+03 -0.20114496871E+04  0.21870091226E+04  0.80480010676E+02 0.  0.
        254    2    1    2    0    0  0.48384584758E+03  0.70462417085E+03 -0.75911374780E+03  0.14570930242E+04  0.90347350413E+03 0.  0.
         23    2    4    4    0    0  0.59298732504E+03  0.31383343160E+03 -0.78999864861E+03  0.10403599368E+04  0.90141793326E+02 0.  0.
         23    2    4    4    0    0 -0.10914147746E+03  0.39079073925E+03  0.30884900808E+02  0.41673308736E+03  0.89907313464E+02 0.  0.
          4    1    3    3  502    0 -0.29443909741E+02 -0.75362080176E+02 -0.15541547824E+03  0.17521517579E+03  0.00000000000E+00 0. -1.
         -3    1    3    3    0  502 -0.45440193784E+03 -0.62926209067E+03 -0.18560342089E+04  0.20117939468E+04  0.00000000000E+00 0.  1.
         11    1    5    5    0    0  0.25955409693E+03  0.90973674065E+02 -0.34720827497E+03  0.44294257508E+03  0.00000000000E+00 0.  1.
        -11    1    5    5    0    0  0.33343322811E+03  0.22285975753E+03 -0.44279037364E+03  0.59741736175E+03  0.00000000000E+00 0. -1.
          4    1    6    6  503    0 -0.15833623099E+02  0.87883907433E+01  0.14431358986E+02  0.23156069495E+02  0.00000000000E+00 0. -1.
         -4    1    6    6    0  503 -0.93307854360E+02  0.38200234851E+03  0.16453541822E+02  0.39357701786E+03  0.00000000000E+00 0.  1.
<mgrwt>
<rscale>  0 0.23671626E+04</rscale>
<asrwt>0</asrwt>
<pdfrwt beam="1">  1        2 0.49343579E+00 0.23671626E+04</pdfrwt>
<pdfrwt beam="2">  1       -1 0.67195289E-01 0.23671626E+04</pdfrwt>
<totfact> 0.29542583E+00</totfact>
</mgrwt>
</event>
<event>
12    6  0.9533401E-008  0.2863629E+04  0.7818608E-02  0.8283782E-01
         -1   -1    0    0    0  501 -0.00000000000E+00  0.00000000000E+00  0.63172014336E+03  0.63172014336E+03  0.00000000000E+00 0.  1.
          2   -1    0    0  501    0  0.00000000000E+00 -0.00000000000E+00 -0.32452553144E+04  0.32452553144E+04  0.00000000000E+00 0. -1.
         24    2    1    2    0    0  0.46289374866E+03 -0.78666034853E+02 -0.27970779122E+04  0.28372708532E+04  0.77473092959E+02 0.  0.
        254    2    1    2    0    0 -0.46289374866E+03  0.78666034853E+02  0.18354274112E+03  0.10397046046E+04  0.90930674655E+03 0.  0.
         23    2    4    4    0    0 -0.13223701716E+03 -0.19322754399E+03 -0.29799679942E+03  0.38886454079E+03  0.87120756151E+02 0.  0.
         23    2    4    4    0    0 -0.33065673150E+03  0.27189357884E+03  0.48153954054E+03  0.65084006377E+03  0.91937300337E+02 0.  0.
          4    1    3    3  502    0  0.37064344938E+03 -0.36223826770E+02 -0.20865539267E+04  0.21195273108E+04  0.00000000000E+00 0. -1.
         -3    1    3    3    0  502  0.92250299286E+02 -0.42442208083E+02 -0.71052398546E+03  0.71774354241E+03  0.00000000000E+00 0.  1.
         11    1    5    5    0    0 -0.16852646322E+02  0.73264459119E+01 -0.24463602477E+02  0.30596672105E+02  0.00000000000E+00 0.  1.
        -11    1    5    5    0    0 -0.11538437084E+03 -0.20055398990E+03 -0.27353319695E+03  0.35826786869E+03  0.00000000000E+00 0. -1.
          2    1    6    6  503    0 -0.24263533254E+03  0.16931189398E+03  0.38094917375E+03  0.48234914224E+03  0.00000000000E+00 0. -1.
         -2    1    6    6    0  503 -0.88021398964E+02  0.10258168487E+03  0.10059036679E+03  0.16849092153E+03  0.00000000000E+00 0.  1.
<mgrwt>
<rscale>  0 0.28636293E+04</rscale>
<asrwt>0</asrwt>
<pdfrwt beam="1">  1        2 0.49927005E+00 0.28636293E+04</pdfrwt>
<pdfrwt beam="2">  1       -1 0.97187714E-01 0.28636293E+04</pdfrwt>
<totfact> 0.12110671E+00</totfact>
</mgrwt>
</event>
<event>
12    6  0.9533401E-008  0.1814061E+04  0.7818608E-02  0.8698857E-01
         -1   -1    0    0    0  501 -0.00000000000E+00  0.00000000000E+00  0.60292473289E+03  0.60292473289E+03  0.00000000000E+00 0.  1.
          2   -1    0    0  501    0  0.00000000000E+00 -0.00000000000E+00 -0.13645226463E+04  0.13645226463E+04  0.00000000000E+00 0. -1.
         24    2    1    2    0    0 -0.61399296488E+03 -0.27725553669E+03 -0.39610477867E+03  0.78541271300E+03  0.78205757465E+02 0.  0.
        254    2    1    2    0    0  0.61399296488E+03  0.27725553669E+03 -0.36549313474E+03  0.11820346662E+04  0.89986817200E+03 0.  0.
         23    2    4    4    0    0  0.71086086125E+03  0.47982719969E+03 -0.18937865237E+03  0.88227667383E+03  0.83609506567E+02 0.  0.
         23    2    4    4    0    0 -0.96867896364E+02 -0.20257166300E+03 -0.17611448237E+03  0.29975799236E+03  0.91759877320E+02 0.  0.
          2    1    3    3  502    0 -0.50748598795E+03 -0.19916510502E+03 -0.33523037786E+03  0.63999076030E+03  0.00000000000E+00 0. -1.
         -3    1    3    3    0  502 -0.10650697693E+03 -0.78090431667E+02 -0.60874400818E+02  0.14542195270E+03  0.00000000000E+00 0.  1.
         11    1    5    5    0    0  0.42507452585E+03  0.25224410727E+03 -0.13923396356E+03  0.51351878134E+03  0.00000000000E+00 0.  1.
        -11    1    5    5    0    0  0.28578633540E+03  0.22758309242E+03 -0.50144688802E+02  0.36875789248E+03  0.00000000000E+00 0. -1.
          4    1    6    6  503    0  0.14812220646E+02 -0.13061768844E+02 -0.29154906727E+02  0.35213921566E+02  0.00000000000E+00 0. -1.
         -4    1    6    6    0  503 -0.11168011701E+03 -0.18950989416E+03 -0.14695957564E+03  0.26454407079E+03  0.00000000000E+00 0.  1.
<mgrwt>
<rscale>  0 0.18140611E+04</rscale>
<asrwt>0</asrwt>
<pdfrwt beam="1">  1        2 0.20992656E+00 0.18140611E+04</pdfrwt>
<pdfrwt beam="2">  1       -1 0.92757652E-01 0.18140611E+04</pdfrwt>
<totfact> 0.18415200E+01</totfact>
</mgrwt>
</event>
<event>
12    6  0.9533401E-008  0.1964898E+04  0.7818608E-02  0.8623210E-01
          2   -1    0    0  501    0  0.00000000000E+00  0.00000000000E+00  0.18019421523E+04  0.18019421523E+04  0.00000000000E+00 0. -1.
         -1   -1    0    0    0  501 -0.00000000000E+00 -0.00000000000E+00 -0.53564746403E+03  0.53564746403E+03  0.00000000000E+00 0.  1.
         24    2    1    2    0    0 -0.18287221403E+03  0.56884645955E+03  0.10821476552E+04  0.12386869694E+04  0.79204287959E+02 0.  0.
        254    2    1    2    0    0  0.18287221403E+03 -0.56884645955E+03  0.18414703305E+03  0.10989026469E+04  0.90368598333E+03 0.  0.
         23    2    4    4    0    0  0.47743323953E+02 -0.14043356350E+03 -0.35151269146E+03  0.39368589244E+03  0.97089643692E+02 0.  0.
         23    2    4    4    0    0  0.13512889008E+03 -0.42841289606E+03  0.53565972451E+03  0.70521675450E+03  0.92746449666E+02 0.  0.
          4    1    3    3  502    0 -0.92162715970E+02  0.23965901724E+03  0.54057309477E+03  0.59845608156E+03  0.00000000000E+00 0. -1.
         -3    1    3    3    0  502 -0.90709498063E+02  0.32918744231E+03  0.54157456045E+03  0.64023088784E+03  0.00000000000E+00 0.  1.
         11    1    5    5    0    0 -0.98311083344E+01  0.64014539900E+01 -0.70228068572E+02  0.71201200268E+02  0.00000000000E+00 0. -1.
        -11    1    5    5    0    0  0.57574432287E+02 -0.14683501749E+03 -0.28128462289E+03  0.32248469217E+03  0.00000000000E+00 0.  1.
          4    1    6    6  503    0 -0.73688460180E+01 -0.19869603173E+00  0.94619410058E+01  0.11994486206E+02  0.00000000000E+00 0. -1.
         -4    1    6    6    0  503  0.14249773610E+03 -0.42821420003E+03  0.52619778350E+03  0.69322226829E+03  0.00000000000E+00 0.  1.
<mgrwt>
<rscale>  0 0.19648977E+04</rscale>
<asrwt>0</asrwt>
<pdfrwt beam="1">  1        2 0.27722187E+00 0.19648977E+04</pdfrwt>
<pdfrwt beam="2">  1       -1 0.82407303E-01 0.19648977E+04</pdfrwt>
<totfact> 0.13368817E+01</totfact>
</mgrwt>
</event>
<event>
12    6  0.9533401E-008  0.2250676E+04  0.7818608E-02  0.8497627E-01
          2   -1    0    0  501    0  0.00000000000E+00  0.00000000000E+00  0.56790907427E+03  0.56790907427E+03  0.00000000000E+00 0. -1.
         -1   -1    0    0    0  501 -0.00000000000E+00 -0.00000000000E+00 -0.22299096153E+04  0.22299096153E+04  0.00000000000E+00 0.  1.
         24    2    1    2    0    0 -0.57007048227E+03 -0.29987957585E+03 -0.15542602248E+04  0.16843529930E+04  0.80075238355E+02 0.  0.
        254    2    1    2    0    0  0.57007048227E+03  0.29987957585E+03 -0.10774031627E+03  0.11134656966E+04  0.90182579640E+03 0.  0.
         23    2    4    4    0    0  0.64334434348E+03  0.43069115338E+03  0.15715700664E+03  0.79525578892E+03  0.91359899158E+02 0.  0.
         23    2    4    4    0    0 -0.73273861207E+02 -0.13081157753E+03 -0.26489732291E+03  0.31820990772E+03  0.92769747942E+02 0.  0.
          4    1    3    3  502    0 -0.70975210585E+02 -0.53295992996E+02 -0.28183908342E+03  0.29548470744E+03  0.00000000000E+00 0. -1.
         -3    1    3    3    0  502 -0.49909527169E+03 -0.24658358286E+03 -0.12724211414E+04  0.13888682855E+04  0.00000000000E+00 0.  1.
         11    1    5    5    0    0  0.53527840101E+03  0.33722024187E+03  0.96212649122E+02  0.63991978557E+03  0.00000000000E+00 0. -1.
        -11    1    5    5    0    0  0.10806594247E+03  0.93470911512E+02  0.60944357518E+02  0.15533600334E+03  0.00000000000E+00 0.  1.
          1    1    6    6  503    0 -0.10269437360E+02 -0.48958672729E+02 -0.22754762622E+02  0.54956275357E+02  0.00000000000E+00 0. -1.
         -1    1    6    6    0  503 -0.63004423847E+02 -0.81852904800E+02 -0.24214256029E+03  0.26325363236E+03  0.00000000000E+00 0.  1.
<mgrwt>
<rscale>  0 0.22506763E+04</rscale>
<asrwt>0</asrwt>
<pdfrwt beam="1">  1        2 0.87370627E-01 0.22506763E+04</pdfrwt>
<pdfrwt beam="2">  1       -1 0.34306302E+00 0.22506763E+04</pdfrwt>
<totfact> 0.95167263E-01</totfact>
</mgrwt>
</event>
<event>
12    6  0.9533401E-008  0.1791362E+04  0.7818608E-02  0.8710907E-01
         -1   -1    0    0    0  501 -0.00000000000E+00  0.00000000000E+00  0.56087245255E+03  0.56087245255E+03  0.00000000000E+00 0.  1.
          2   -1    0    0  501    0  0.00000000000E+00 -0.00000000000E+00 -0.14303503663E+04  0.14303503663E+04  0.00000000000E+00 0. -1.
         24    2    1    2    0    0  0.44636467700E+03 -0.49196577662E+03 -0.24981178361E+03  0.71511782661E+03  0.87839788607E+02 0.  0.
        254    2    1    2    0    0 -0.44636467700E+03  0.49196577662E+03 -0.61966613013E+03  0.12761049922E+04  0.89620649861E+03 0.  0.
         23    2    4    4    0    0 -0.69392234723E+03  0.37319558871E+03 -0.58380645951E+03  0.98517441532E+03  0.94527641557E+02 0.  0.
         23    2    4    4    0    0  0.24755767023E+03  0.11877018791E+03 -0.35859670620E+02  0.29093057692E+03  0.89238595807E+02 0.  0.
          4    1    3    3  502    0  0.28668877579E+03 -0.34037518923E+03 -0.12598311492E+03  0.46251212833E+03  0.00000000000E+00 0. -1.
         -3    1    3    3    0  502  0.15967590121E+03 -0.15159058739E+03 -0.12382866869E+03  0.25260569827E+03  0.00000000000E+00 0.  1.
         11    1    5    5    0    0 -0.42957972706E+03  0.21499856750E+03 -0.30035246947E+03  0.56654631923E+03  0.00000000000E+00 0. -1.
        -11    1    5    5    0    0 -0.26434262017E+03  0.15819702122E+03 -0.28345399004E+03  0.41862809609E+03  0.00000000000E+00 0.  1.
          2    1    6    6  503    0  0.21455391933E+03  0.90026334541E+02 -0.60891623620E+02  0.24051177734E+03  0.00000000000E+00 0. -1.
         -2    1    6    6    0  503  0.33003750900E+02  0.28743853365E+02  0.25031953001E+02  0.50418799577E+02  0.00000000000E+00 0.  1.
<mgrwt>
<rscale>  0 0.17913616E+04</rscale>
<asrwt>0</asrwt>
<pdfrwt beam="1">  1        2 0.22005390E+00 0.17913616E+04</pdfrwt>
<pdfrwt beam="2">  1       -1 0.86288071E-01 0.17913616E+04</pdfrwt>
<totfact> 0.19834744E+01</totfact>
</mgrwt>
</event>
<event>
12    6  0.9533401E-008  0.2502985E+04  0.7818608E-02  0.8401923E-01
         -1   -1    0    0    0  501 -0.00000000000E+00  0.00000000000E+00  0.14388773776E+04  0.14388773776E+04  0.00000000000E+00 0.  1.
          2   -1    0    0  501    0  0.00000000000E+00 -0.00000000000E+00 -0.10885107624E+04  0.10885107624E+04  0.00000000000E+00 0. -1.
         24    2    1    2    0    0 -0.58987384763E+03  0.18191625872E+03 -0.75153373551E+03  0.97590909212E+03  0.80937748709E+02 0.  0.
        254    2    1    2    0    0  0.58987384763E+03 -0.18191625872E+03  0.11019003507E+04  0.15514790478E+04  0.90103172615E+03 0.  0.
         23    2    4    4    0    0 -0.17715609264E+03  0.13602926156E+03  0.36850150998E+03  0.43987383505E+03  0.88359417995E+02 0.  0.
         23    2    4    4    0    0  0.76702994027E+03 -0.31794552028E+03  0.73339884074E+03  0.11116052127E+04  0.91476807217E+02 0.  0.
          4    1    3    3  502    0 -0.45635317561E+03  0.14016904550E+03 -0.63104353425E+03  0.79127841139E+03  0.00000000000E+00 0. -1.
         -3    1    3    3    0  502 -0.13352067202E+03  0.41747213223E+02 -0.12049020126E+03  0.18463068074E+03  0.00000000000E+00 0.  1.
         11    1    5    5    0    0  0.45137999756E+01  0.16475858654E+02  0.80234647720E+01  0.18873375309E+02  0.00000000000E+00 0. -1.
        -11    1    5    5    0    0 -0.18166989262E+03  0.11955340290E+03  0.36047804520E+03  0.42100045974E+03  0.00000000000E+00 0.  1.
          2    1    6    6  503    0  0.13342754003E+03 -0.23872816106E+02  0.14259932626E+03  0.19674193156E+03  0.00000000000E+00 0. -1.
         -2    1    6    6    0  503  0.63360240024E+03 -0.29407270417E+03  0.59079951448E+03  0.91486328118E+03  0.00000000000E+00 0.  1.
<mgrwt>
<rscale>  0 0.25029850E+04</rscale>
<asrwt>0</asrwt>
<pdfrwt beam="1">  1        2 0.16746319E+00 0.25029850E+04</pdfrwt>
<pdfrwt beam="2">  1       -1 0.22136575E+00 0.25029850E+04</pdfrwt>
<totfact> 0.24254886E+00</totfact>
</mgrwt>
</event>
<event>
12    6  0.9533401E-008  0.1518984E+04  0.7818608E-02  0.8871926E-01
          2   -1    0    0  501    0  0.00000000000E+00  0.00000000000E+00  0.18585699066E+04  0.18585699066E+04  0.00000000000E+00 0. -1.
         -1   -1    0    0    0  501 -0.00000000000E+00 -0.00000000000E+00 -0.31036138274E+03  0.31036138274E+03  0.00000000000E+00 0.  1.
         24    2    1    2    0    0  0.14505086992E+03 -0.35574116829E+03  0.90521196641E+03  0.98699733180E+03  0.84637433588E+02 0.  0.
        254    2    1    2    0    0 -0.14505086992E+03  0.35574116829E+03  0.64299655747E+03  0.11819339576E+04  0.91429304572E+03 0.  0.
         23    2    4    4    0    0 -0.44753805249E+03  0.38589981126E+03  0.18772065073E+03  0.62671392148E+03  0.91226771891E+02 0.  0.
         23    2    4    4    0    0  0.30248718257E+03 -0.30158642966E+02  0.45527590674E+03  0.55522003609E+03  0.92655803100E+02 0.  0.
          2    1    3    3  502    0  0.14623427515E+03 -0.27875532251E+03  0.76060330708E+03  0.82316850268E+03  0.00000000000E+00 0. -1.
         -1    1    3    3    0  502 -0.11834052320E+01 -0.76985845778E+02  0.14460865932E+03  0.16382882912E+03  0.00000000000E+00 0.  1.
         11    1    5    5    0    0 -0.27959420502E+02  0.49144097041E+02 -0.10529560670E+01  0.56550686868E+02  0.00000000000E+00 0. -1.
        -11    1    5    5    0    0 -0.41957863199E+03  0.33675571421E+03  0.18877360680E+03  0.57016323461E+03  0.00000000000E+00 0.  1.
          1    1    6    6  503    0  0.15544281423E+03  0.20518478065E+02  0.27981375665E+03  0.32074789921E+03  0.00000000000E+00 0. -1.
         -1    1    6    6    0  503  0.14704436834E+03 -0.50677121030E+02  0.17546215009E+03  0.23447213688E+03  0.00000000000E+00 0.  1.
<mgrwt>
<rscale>  0 0.15189843E+04</rscale>
<asrwt>0</asrwt>
<pdfrwt beam="1">  1        2 0.28593382E+00 0.15189843E+04</pdfrwt>
<pdfrwt beam="2">  1       -1 0.47747906E-01 0.15189843E+04</pdfrwt>
<totfact> 0.38553337E+01</totfact>
</mgrwt>
</event>
<event>
12    6  0.9533401E-008  0.1296218E+04  0.7818608E-02  0.9032570E-01
         -1   -1    0    0    0  501 -0.00000000000E+00  0.00000000000E+00  0.62394499451E+03  0.62394499451E+03  0.00000000000E+00 0.  1.
          2   -1    0    0  501    0  0.00000000000E+00 -0.00000000000E+00 -0.67320889674E+03  0.67320889674E+03  0.00000000000E+00 0. -1.
         24    2    1    2    0    0  0.28470521330E+03  0.11368240374E+03  0.10557908118E+03  0.33435590340E+03  0.81646679984E+02 0.  0.
        254    2    1    2    0    0 -0.28470521330E+03 -0.11368240374E+03 -0.15484298340E+03  0.96279798785E+03  0.89945698535E+03 0.  0.
         23    2    4    4    0    0 -0.47808160062E+03  0.18847086517E+03 -0.25225842602E+03  0.58004985894E+03  0.93489258648E+02 0.  0.
         23    2    4    4    0    0  0.19337638732E+03 -0.30215326891E+03  0.97415442621E+02  0.38274812891E+03  0.91188467701E+02 0.  0.
          4    1    3    3  502    0 -0.28037747600E+01 -0.52591288304E+01  0.34292028503E+01  0.68759741963E+01  0.00000000000E+00 0. -1.
         -3    1    3    3    0  502  0.28750898806E+03  0.11894153257E+03  0.10214987833E+03  0.32747992920E+03  0.00000000000E+00 0.  1.
         11    1    5    5    0    0 -0.50437741704E+02 -0.36989173854E+01 -0.44017548717E+02  0.67046195814E+02  0.00000000000E+00 0. -1.
        -11    1    5    5    0    0 -0.42764385892E+03  0.19216978255E+03 -0.20824087731E+03  0.51300366312E+03  0.00000000000E+00 0.  1.
          3    1    6    6  503    0  0.28270012725E+01  0.30502569504E+01  0.12342532571E+02  0.13024366162E+02  0.00000000000E+00 0. -1.
         -3    1    6    6    0  503  0.19054938605E+03 -0.30520352586E+03  0.85072910050E+02  0.36972376275E+03  0.00000000000E+00 0.  1.
<mgrwt>
<rscale>  0 0.12962181E+04</rscale>
<asrwt>0</asrwt>
<pdfrwt beam="1">  1        2 0.10357060E+00 0.12962181E+04</pdfrwt>
<pdfrwt beam="2">  1       -1 0.95991538E-01 0.12962181E+04</pdfrwt>
<totfact> 0.50447770E+01</totfact>
</mgrwt>
</event>
<event>
12    6  0.9533401E-008  0.1598733E+04  0.7818608E-02  0.8821327E-01
          2   -1    0    0  501    0  0.00000000000E+00  0.00000000000E+00  0.72789237703E+03  0.72789237703E+03  0.00000000000E+00 0. -1.
         -1   -1    0    0    0  501 -0.00000000000E+00 -0.00000000000E+00 -0.87785854958E+03  0.87785854958E+03  0.00000000000E+00 0.  1.
         24    2    1    2    0    0  0.12551561494E+03 -0.36712177917E+03  0.33552666910E+03  0.51925214737E+03  0.80697438202E+02 0.  0.
        254    2    1    2    0    0 -0.12551561494E+03  0.36712177917E+03 -0.48549284165E+03  0.10864987792E+04  0.89120352764E+03 0.  0.
         23    2    4    4    0    0 -0.27430214574E+03 -0.20121640051E+03 -0.65041198686E+02  0.35835273532E+03  0.91959873826E+02 0.  0.
         23    2    4    4    0    0  0.14878653080E+03  0.56833817968E+03 -0.42045164296E+03  0.72814604393E+03  0.90947011984E+02 0.  0.
          4    1    3    3  502    0  0.54877403548E+02 -0.12081896516E+03  0.16375665113E+03  0.21077237141E+03  0.00000000000E+00 0. -1.
         -3    1    3    3    0  502  0.70638211392E+02 -0.24630281401E+03  0.17177001797E+03  0.30847977595E+03  0.00000000000E+00 0.  1.
         11    1    5    5    0    0 -0.25147419709E+03 -0.20885078659E+03 -0.68624324859E+02  0.33401679722E+03  0.00000000000E+00 0. -1.
        -11    1    5    5    0    0 -0.22827948648E+02  0.76343860767E+01  0.35831261721E+01  0.24335938104E+02  0.00000000000E+00 0.  1.
          1    1    6    6  503    0  0.12572300222E+03  0.54119388783E+03 -0.41156359263E+03  0.69143451482E+03  0.00000000000E+00 0. -1.
         -1    1    6    6    0  503  0.23063528576E+02  0.27144291855E+02 -0.88880503334E+01  0.36711529108E+02  0.00000000000E+00 0.  1.
<mgrwt>
<rscale>  0 0.15987327E+04</rscale>
<asrwt>0</asrwt>
<pdfrwt beam="1">  1        2 0.11198344E+00 0.15987327E+04</pdfrwt>
<pdfrwt beam="2">  1       -1 0.13505516E+00 0.15987327E+04</pdfrwt>
<totfact> 0.19646823E+01</totfact>
</mgrwt>
</event>
<event>
12    6  0.9533401E-008  0.2008633E+04  0.7818608E-02  0.8602595E-01
          2   -1    0    0  501    0  0.00000000000E+00  0.00000000000E+00  0.10556864209E+04  0.10556864209E+04  0.00000000000E+00 0. -1.
         -1   -1    0    0    0  501 -0.00000000000E+00 -0.00000000000E+00 -0.95544626246E+03  0.95544626246E+03  0.00000000000E+00 0.  1.
         24    2    1    2    0    0  0.42992053655E+03  0.46642541270E+03  0.43488244586E+03  0.77335819046E+03  0.81091403175E+02 0.  0.
        254    2    1    2    0    0 -0.42992053655E+03 -0.46642541270E+03 -0.33464228740E+03  0.12377744929E+04  0.10088190628E+04 0.  0.
         23    2    4    4    0    0 -0.54020660865E+03 -0.11923517400E+03  0.19042198720E+03  0.59227674862E+03  0.92146660296E+02 0.  0.
         23    2    4    4    0    0  0.11028607209E+03 -0.34719023871E+03 -0.52506427460E+03  0.64549774431E+03  0.90943751261E+02 0.  0.
          4    1    3    3  502    0  0.17572996711E+02  0.79218533104E+01  0.88566887067E+00  0.19296382631E+02  0.00000000000E+00 0. -1.
         -3    1    3    3    0  502  0.41234753984E+03  0.45850355939E+03  0.43399677699E+03  0.75406180783E+03  0.00000000000E+00 0.  1.
         11    1    5    5    0    0 -0.18212942607E+03 -0.19537432801E+02  0.10409603046E+03  0.21068655078E+03  0.00000000000E+00 0.  1.
        -11    1    5    5    0    0 -0.35807718258E+03 -0.99697741196E+02  0.86325956731E+02  0.38159019784E+03  0.00000000000E+00 0. -1.
          1    1    6    6  503    0  0.67054291820E+02 -0.97989043187E+02 -0.12683951459E+03  0.17374231810E+03  0.00000000000E+00 0. -1.
         -1    1    6    6    0  503  0.43231780273E+02 -0.24920119552E+03 -0.39822476001E+03  0.47175542621E+03  0.00000000000E+00 0.  1.
<mgrwt>
<rscale>  0 0.20086330E+04</rscale>
<asrwt>0</asrwt>
<pdfrwt beam="1">  1        2 0.16241330E+00 0.20086330E+04</pdfrwt>
<pdfrwt beam="2">  1       -1 0.14699173E+00 0.20086330E+04</pdfrwt>
<totfact> 0.90578354E+00</totfact>
</mgrwt>
</event>
<event>
12    6  0.9533401E-008  0.1858760E+04  0.7818608E-02  0.8675661E-01
         -1   -1    0    0    0  501 -0.00000000000E+00  0.00000000000E+00  0.94811138444E+03  0.94811138444E+03  0.00000000000E+00 0.  1.
          2   -1    0    0  501    0  0.00000000000E+00 -0.00000000000E+00 -0.91101914508E+03  0.91101914508E+03  0.00000000000E+00 0. -1.
         24    2    1    2    0    0  0.42173309428E+03 -0.52157293712E+03  0.24034198387E+03  0.71696379727E+03  0.79847891848E+02 0.  0.
        254    2    1    2    0    0 -0.42173309428E+03  0.52157293712E+03 -0.20324974452E+03  0.11421667323E+04  0.90185212428E+03 0.  0.
         23    2    4    4    0    0 -0.21857084157E+02  0.12497153672E+03  0.32758005791E+03  0.36340740017E+03  0.93062489944E+02 0.  0.
         23    2    4    4    0    0 -0.39987601012E+03  0.39660140040E+03 -0.53082980243E+03  0.77875933208E+03  0.86558210978E+02 0.  0.
          4    1    3    3  502    0  0.30958384367E+03 -0.42466929393E+03  0.20839431648E+03  0.56534445837E+03  0.00000000000E+00 0. -1.
         -3    1    3    3    0  502  0.11214925061E+03 -0.96903643194E+02  0.31947667390E+02  0.15161933890E+03  0.00000000000E+00 0.  1.
         11    1    5    5    0    0 -0.16827436171E+02  0.13775844679E+03  0.31705556938E+03  0.34609938796E+03  0.00000000000E+00 0.  1.
        -11    1    5    5    0    0 -0.50296479862E+01 -0.12786910061E+02  0.10524488532E+02  0.17308012209E+02  0.00000000000E+00 0. -1.
          4    1    6    6  503    0 -0.19109664206E+03  0.19959407462E+03 -0.31880063404E+03  0.42188809594E+03  0.00000000000E+00 0. -1.
         -4    1    6    6    0  503 -0.20877936806E+03  0.19700732578E+03 -0.21202916839E+03  0.35687123614E+03  0.00000000000E+00 0.  1.
<mgrwt>
<rscale>  0 0.18587605E+04</rscale>
<asrwt>0</asrwt>
<pdfrwt beam="1">  1        2 0.14015679E+00 0.18587605E+04</pdfrwt>
<pdfrwt beam="2">  1       -1 0.14586329E+00 0.18587605E+04</pdfrwt>
<totfact> 0.11623820E+01</totfact>
</mgrwt>
</event>
<event>
12    6  0.9533401E-008  0.1707681E+04  0.7818608E-02  0.8756996E-01
         -3   -1    0    0    0  501 -0.00000000000E+00  0.00000000000E+00  0.23245704509E+04  0.23245704509E+04  0.00000000000E+00 0.  1.
          2   -1    0    0  501    0  0.00000000000E+00 -0.00000000000E+00 -0.31362490712E+03  0.31362490712E+03  0.00000000000E+00 0. -1.
         24    2    1    2    0    0  0.62287194687E+02 -0.19132563120E+03  0.16261395734E+04  0.16402309816E+04  0.74448431873E+02 0.  0.
        254    2    1    2    0    0 -0.62287194687E+02  0.19132563120E+03  0.38480597035E+03  0.99796437640E+03  0.89853885279E+03 0.  0.
         23    2    4    4    0    0  0.25334396238E+03  0.10297000796E+03 -0.18023124661E+03  0.33838673230E+03  0.85066400708E+02 0.  0.
         23    2    4    4    0    0 -0.31563115706E+03  0.88355623241E+02  0.56503721696E+03  0.65957764410E+03  0.91355725477E+02 0.  0.
          2    1    3    3  502    0  0.68668707727E+02 -0.90950690811E+02  0.86611250863E+03  0.87357787128E+03  0.00000000000E+00 0. -1.
         -1    1    3    3    0  502 -0.63815130392E+01 -0.10037494039E+03  0.76002706480E+03  0.76665311034E+03  0.00000000000E+00 0.  1.
         11    1    5    5    0    0  0.24959895889E+03  0.11290035337E+03 -0.17996461330E+03  0.32777033440E+03  0.00000000000E+00 0.  1.
        -11    1    5    5    0    0  0.37450034807E+01 -0.99303454114E+01 -0.26663331547E+00  0.10616397901E+02  0.00000000000E+00 0. -1.
          2    1    6    6  503    0 -0.10026379097E+03 -0.63691841301E+01  0.12290941770E+03  0.15874545425E+03  0.00000000000E+00 0. -1.
         -2    1    6    6    0  503 -0.21536736610E+03  0.94724807371E+02  0.44212779926E+03  0.50083218985E+03  0.00000000000E+00 0.  1.
<mgrwt>
<rscale>  0 0.17076805E+04</rscale>
<asrwt>0</asrwt>
<pdfrwt beam="1">  1        2 0.48249987E-01 0.17076805E+04</pdfrwt>
<pdfrwt beam="2">  1       -3 0.35762621E+00 0.17076805E+04</pdfrwt>
<totfact> 0.11228804E+00</totfact>
</mgrwt>
</event>
<event>
12    6  0.9533401E-008  0.1745376E+04  0.7818608E-02  0.8735900E-01
         -1   -1    0    0    0  501 -0.00000000000E+00  0.00000000000E+00  0.52507045825E+03  0.52507045825E+03  0.00000000000E+00 0.  1.
          2   -1    0    0  501    0  0.00000000000E+00 -0.00000000000E+00 -0.14504419269E+04  0.14504419269E+04  0.00000000000E+00 0. -1.
         24    2    1    2    0    0 -0.61329804729E+03 -0.14201682501E+03 -0.49131684563E+03  0.80258830124E+03  0.80327237511E+02 0.  0.
        254    2    1    2    0    0  0.61329804729E+03  0.14201682501E+03 -0.43405462302E+03  0.11729240839E+04  0.88940666597E+03 0.  0.
         23    2    4    4    0    0  0.59608106284E+03  0.17093466720E+03  0.95957058330E+02  0.63400300932E+03  0.90668433654E+02 0.  0.
         23    2    4    4    0    0  0.17216984447E+02 -0.28917842189E+02 -0.53001168135E+03  0.53892107459E+03  0.91601725543E+02 0.  0.
          4    1    3    3  502    0 -0.45661595625E+03 -0.13204070375E+03 -0.33885572076E+03  0.58374316137E+03  0.00000000000E+00 0. -1.
         -3    1    3    3    0  502 -0.15668209104E+03 -0.99761212521E+01 -0.15246112487E+03  0.21884513987E+03  0.00000000000E+00 0.  1.
         11    1    5    5    0    0  0.41909865434E+02 -0.51984275046E+01  0.22622664471E+02  0.47908719634E+02  0.00000000000E+00 0. -1.
        -11    1    5    5    0    0  0.55417119741E+03  0.17613309470E+03  0.73334393860E+02  0.58609428969E+03  0.00000000000E+00 0.  1.
          1    1    6    6  503    0 -0.42035295790E+01 -0.49775116422E+02 -0.15796165876E+03  0.16567171609E+03  0.00000000000E+00 0. -1.
         -1    1    6    6    0  503  0.21420514026E+02  0.20857274233E+02 -0.37205002259E+03  0.37324935850E+03  0.00000000000E+00 0.  1.
<mgrwt>
<rscale>  0 0.17453758E+04</rscale>
<asrwt>0</asrwt>
<pdfrwt beam="1">  1        2 0.22314491E+00 0.17453758E+04</pdfrwt>
<pdfrwt beam="2">  1       -1 0.80780072E-01 0.17453758E+04</pdfrwt>
<totfact> 0.22357724E+01</totfact>
</mgrwt>
</event>
<event>
12    6  0.9533401E-008  0.1276294E+04  0.7818608E-02  0.9048579E-01
         -1   -1    0    0    0  501 -0.00000000000E+00  0.00000000000E+00  0.21680648657E+03  0.21680648657E+03  0.00000000000E+00 0.  1.
          2   -1    0    0  501    0  0.00000000000E+00 -0.00000000000E+00 -0.18783176003E+04  0.18783176003E+04  0.00000000000E+00 0. -1.
         24    2    1    2    0    0  0.31703567416E+02 -0.12190435329E+03  0.68884728557E+02  0.16512906601E+03  0.81588694521E+02 0.  0.
        254    2    1    2    0    0 -0.31703567416E+02  0.12190435329E+03 -0.17303958423E+04  0.19299950209E+04  0.84542605944E+03 0.  0.
         23    2    4    4    0    0  0.37066297263E+03 -0.59433463702E+02 -0.10002259930E+04  0.10722371735E+04  0.91198372871E+02 0.  0.
         23    2    4    4    0    0 -0.40236654005E+03  0.18133781699E+03 -0.73016984927E+03  0.85775784737E+03  0.88421035499E+02 0.  0.
          4    1    3    3  502    0  0.34301464688E+02 -0.27731728468E+02 -0.63522014725E+01  0.44564444428E+02  0.00000000000E+00 0. -1.
         -3    1    3    3    0  502 -0.25978972722E+01 -0.94172624823E+02  0.75236930030E+02  0.12056462158E+03  0.00000000000E+00 0.  1.
         11    1    5    5    0    0  0.60323292665E+02  0.23951243247E+02 -0.16079741708E+03  0.17340233860E+03  0.00000000000E+00 0. -1.
        -11    1    5    5    0    0  0.31033967996E+03 -0.83384706949E+02 -0.83942857596E+03  0.89883483491E+03  0.00000000000E+00 0.  1.
          4    1    6    6  503    0 -0.20568086049E+02  0.78610566905E+01 -0.88546045792E+02  0.91242778353E+02  0.00000000000E+00 0. -1.
         -4    1    6    6    0  503 -0.38179845400E+03  0.17347676030E+03 -0.64162380347E+03  0.76651506901E+03  0.00000000000E+00 0.  1.
<mgrwt>
<rscale>  0 0.12762938E+04</rscale>
<asrwt>0</asrwt>
<pdfrwt beam="1">  1        2 0.28897194E+00 0.12762938E+04</pdfrwt>
<pdfrwt beam="2">  1       -1 0.33354844E-01 0.12762938E+04</pdfrwt>
<totfact> 0.73878061E+01</totfact>
</mgrwt>
</event>
<event>
12    6  0.9533401E-008  0.1580907E+04  0.7818608E-02  0.8832364E-01
         -1   -1    0    0    0  501 -0.00000000000E+00  0.00000000000E+00  0.59272827178E+03  0.59272827178E+03  0.00000000000E+00 0.  1.
          2   -1    0    0  501    0  0.00000000000E+00 -0.00000000000E+00 -0.10541365304E+04  0.10541365304E+04  0.00000000000E+00 0. -1.
         24    2    1    2    0    0 -0.44265227211E+00  0.36678293069E+02 -0.70725314755E+03  0.71274731120E+03  0.80350617775E+02 0.  0.
        254    2    1    2    0    0  0.44265227211E+00 -0.36678293069E+02  0.24584488895E+03  0.93411749095E+03  0.90043893983E+03 0.  0.
         23    2    4    4    0    0 -0.20453034834E+02 -0.21815262101E+03 -0.28191795846E+03  0.36815937951E+03  0.89747984562E+02 0.  0.
         23    2    4    4    0    0  0.20895687107E+02  0.18147432794E+03  0.52776284741E+03  0.56595811144E+03  0.91680965101E+02 0.  0.
          2    1    3    3  502    0  0.20357654194E+02  0.13265628855E+02 -0.61191186150E+03  0.61239410288E+03  0.00000000000E+00 0. -1.
         -1    1    3    3    0  502 -0.20800306466E+02  0.23412664215E+02 -0.95341286044E+02  0.10035320832E+03  0.00000000000E+00 0.  1.
         11    1    5    5    0    0 -0.15225437384E+02 -0.21940760044E+03 -0.28643865755E+03  0.36113517360E+03  0.00000000000E+00 0.  1.
        -11    1    5    5    0    0 -0.52275974504E+01  0.12549794233E+01  0.45206990895E+01  0.70242059134E+01  0.00000000000E+00 0. -1.
          1    1    6    6  503    0  0.34956011288E+02  0.27191840470E+02  0.17789568245E+03  0.18332537399E+03  0.00000000000E+00 0. -1.
         -1    1    6    6    0  503 -0.14060324181E+02  0.15428248747E+03  0.34986716496E+03  0.38263273746E+03  0.00000000000E+00 0.  1.
<mgrwt>
<rscale>  0 0.15809067E+04</rscale>
<asrwt>0</asrwt>
<pdfrwt beam="1">  1        2 0.16217485E+00 0.15809067E+04</pdfrwt>
<pdfrwt beam="2">  1       -1 0.91188966E-01 0.15809067E+04</pdfrwt>
<totfact> 0.29914585E+01</totfact>
</mgrwt>
</event>
<event>
12    6  0.9533401E-008  0.1716710E+04  0.7818608E-02  0.8751891E-01
          2   -1    0    0  501    0  0.00000000000E+00  0.00000000000E+00  0.38870265266E+04  0.38870265266E+04  0.00000000000E+00 0. -1.
         -1   -1    0    0    0  501 -0.00000000000E+00 -0.00000000000E+00 -0.18954673556E+03  0.18954673556E+03  0.00000000000E+00 0.  1.
         24    2    1    2    0    0 -0.44580846245E+03  0.62455398317E+02  0.24046062849E+04  0.24476682686E+04  0.79389581488E+02 0.  0.
        254    2    1    2    0    0  0.44580846245E+03 -0.62455398317E+02  0.12928735061E+04  0.16289049935E+04  0.88270250549E+03 0.  0.
         23    2    4    4    0    0  0.80054040925E+02 -0.34199714631E+03  0.10272654128E+04  0.10896047684E+04  0.92701809122E+02 0.  0.
         23    2    4    4    0    0  0.36575442153E+03  0.27954174800E+03  0.26560809325E+03  0.53930022510E+03  0.91526978804E+02 0.  0.
          2    1    3    3  502    0 -0.41388129614E+03  0.46013740059E+02  0.22903894702E+04  0.23279387699E+04  0.00000000000E+00 0. -1.
         -1    1    3    3    0  502 -0.31927166312E+02  0.16441658259E+02  0.11421681478E+03  0.11972949868E+03  0.00000000000E+00 0.  1.
         11    1    5    5    0    0  0.92270441563E+02 -0.24439101698E+03  0.81064346496E+03  0.85169456429E+03  0.00000000000E+00 0. -1.
        -11    1    5    5    0    0 -0.12216400638E+02 -0.97606129338E+02  0.21662194786E+03  0.23791020411E+03  0.00000000000E+00 0.  1.
          2    1    6    6  503    0  0.36085914810E+03  0.28647954780E+03  0.26235424179E+03  0.53020713336E+03  0.00000000000E+00 0. -1.
         -2    1    6    6    0  503  0.48952734232E+01 -0.69377998057E+01  0.32538514662E+01  0.90930917402E+01  0.00000000000E+00 0.  1.
<mgrwt>
<rscale>  0 0.17167099E+04</rscale>
<asrwt>0</asrwt>
<pdfrwt beam="1">  1        2 0.59800402E+00 0.17167099E+04</pdfrwt>
<pdfrwt beam="2">  1       -1 0.29161039E-01 0.17167099E+04</pdfrwt>
<totfact> 0.49564535E+00</totfact>
</mgrwt>
</event>
<event>
12    6  0.9533401E-008  0.3939962E+04  0.7818608E-02  0.8016769E-01
         -1   -1    0    0    0  501 -0.00000000000E+00  0.00000000000E+00  0.17172880131E+04  0.17172880131E+04  0.00000000000E+00 0.  1.
          2   -1    0    0  501    0  0.00000000000E+00 -0.00000000000E+00 -0.22598573590E+04  0.22598573590E+04  0.00000000000E+00 0. -1.
         24    2    1    2    0    0 -0.66802644092E+03 -0.13212749873E+04  0.89033884580E+03  0.17291385493E+04  0.72041271482E+02 0.  0.
        254    2    1    2    0    0  0.66802644092E+03  0.13212749873E+04 -0.14329081917E+04  0.22480068227E+04  0.89904497744E+03 0.  0.
         23    2    4    4    0    0  0.48735702017E+03  0.13879240366E+04 -0.13997683135E+04  0.20325946568E+04  0.90772852732E+02 0.  0.
         23    2    4    4    0    0  0.18066942075E+03 -0.66649049352E+02 -0.33139878112E+02  0.21541216589E+03  0.90667603461E+02 0.  0.
          2    1    3    3  502    0 -0.30218608977E+03 -0.65041737543E+03  0.46260275669E+03  0.85344039370E+03  0.00000000000E+00 0. -1.
         -1    1    3    3    0  502 -0.36584035115E+03 -0.67085761182E+03  0.42773608912E+03  0.87569815565E+03  0.00000000000E+00 0.  1.
         11    1    5    5    0    0  0.12376797596E+03  0.47241955437E+03 -0.48570126419E+03  0.68877025579E+03  0.00000000000E+00 0.  1.
        -11    1    5    5    0    0  0.36358904421E+03  0.91550448224E+03 -0.91406704936E+03  0.13438244010E+04  0.00000000000E+00 0. -1.
          1    1    6    6  503    0  0.51088438462E+02 -0.48068220626E+02  0.21782535867E+02  0.73451080642E+02  0.00000000000E+00 0. -1.
         -1    1    6    6    0  503  0.12958098229E+03 -0.18580828727E+02 -0.54922413979E+02  0.14196108525E+03  0.00000000000E+00 0.  1.
<mgrwt>
<rscale>  0 0.39399624E+04</rscale>
<asrwt>0</asrwt>
<pdfrwt beam="1">  1        2 0.34767036E+00 0.39399624E+04</pdfrwt>
<pdfrwt beam="2">  1       -1 0.26419815E+00 0.39399624E+04</pdfrwt>
<totfact> 0.24266904E-01</totfact>
</mgrwt>
</event>
<event>
12    6  0.9533401E-008  0.2287356E+04  0.7818608E-02  0.8482923E-01
         -1   -1    0    0    0  501 -0.00000000000E+00  0.00000000000E+00  0.12890826258E+04  0.12890826258E+04  0.00000000000E+00 0.  1.
          2   -1    0    0  501    0  0.00000000000E+00 -0.00000000000E+00 -0.10146747226E+04  0.10146747226E+04  0.00000000000E+00 0. -1.
         24    2    1    2    0    0  0.10386060848E+02  0.36397601785E+03 -0.78490749536E+03  0.86893702865E+03  0.79908520500E+02 0.  0.
        254    2    1    2    0    0 -0.10386060848E+02 -0.36397601785E+03  0.10593153986E+04  0.14348203197E+04  0.89664587452E+03 0.  0.
         23    2    4    4    0    0  0.39670984383E+03 -0.27166766506E+03  0.78519196222E+03  0.92581849605E+03  0.97115650957E+02 0.  0.
         23    2    4    4    0    0 -0.40709590468E+03 -0.92308352789E+02  0.27412343637E+03  0.50900182365E+03  0.98444352348E+02 0.  0.
          2    1    3    3  502    0 -0.57923803993E+01  0.34516210386E+03 -0.70024892801E+03  0.78071697227E+03  0.00000000000E+00 0. -1.
         -1    1    3    3    0  502  0.16178441247E+02  0.18813913986E+02 -0.84658567357E+02  0.88220056380E+02  0.00000000000E+00 0.  1.
         11    1    5    5    0    0  0.27417994595E+03 -0.23111820263E+03  0.53108941683E+03  0.64081684983E+03  0.00000000000E+00 0.  1.
        -11    1    5    5    0    0  0.12252989788E+03 -0.40549462428E+02  0.25410254539E+03  0.28500164623E+03  0.00000000000E+00 0. -1.
          3    1    6    6  503    0 -0.10506628281E+03  0.18265447108E+02  0.56757603813E+02  0.12080552939E+03  0.00000000000E+00 0. -1.
         -3    1    6    6    0  503 -0.30202962187E+03 -0.11057379990E+03  0.21736583256E+03  0.38819629426E+03  0.00000000000E+00 0.  1.
<mgrwt>
<rscale>  0 0.22873562E+04</rscale>
<asrwt>0</asrwt>
<pdfrwt beam="1">  1        2 0.15610380E+00 0.22873562E+04</pdfrwt>
<pdfrwt beam="2">  1       -1 0.19832041E+00 0.22873562E+04</pdfrwt>
<totfact> 0.39430921E+00</totfact>
</mgrwt>
</event>
<event>
12    6  0.9533401E-008  0.1523097E+04  0.7818608E-02  0.8869238E-01
          2   -1    0    0  501    0  0.00000000000E+00  0.00000000000E+00  0.24642832184E+04  0.24642832184E+04  0.00000000000E+00 0. -1.
         -1   -1    0    0    0  501 -0.00000000000E+00 -0.00000000000E+00 -0.23534460935E+03  0.23534460935E+03  0.00000000000E+00 0.  1.
         24    2    1    2    0    0 -0.30463253039E+02  0.21512292976E+03 -0.54851358250E+02  0.23809571140E+03  0.80467456698E+02 0.  0.
        254    2    1    2    0    0  0.30463253039E+02 -0.21512292976E+03  0.22837899673E+04  0.24615321163E+04  0.89232161266E+03 0.  0.
         23    2    4    4    0    0  0.37157177257E+02  0.20090349308E+03  0.11489298345E+03  0.25120384211E+03  0.90333290040E+02 0.  0.
         23    2    4    4    0    0 -0.66939242188E+01 -0.41602642284E+03  0.21688969838E+04  0.22103282742E+04  0.91182017380E+02 0.  0.
          2    1    3    3  502    0  0.76150459163E+01  0.31068476075E+02 -0.37581445827E+02  0.49351840902E+02  0.00000000000E+00 0. -1.
         -1    1    3    3    0  502 -0.38078298955E+02  0.18405445369E+03 -0.17269912423E+02  0.18874387050E+03  0.00000000000E+00 0.  1.
         11    1    5    5    0    0  0.46405916209E+02  0.20032359059E+03  0.89664759528E+02  0.22432748183E+03  0.00000000000E+00 0. -1.
        -11    1    5    5    0    0 -0.92487389514E+01  0.57990249168E+00  0.25228223925E+02  0.26876360273E+02  0.00000000000E+00 0.  1.
          3    1    6    6  503    0  0.57299900653E+01 -0.10040579878E+03  0.74905420809E+03  0.75577533955E+03  0.00000000000E+00 0. -1.
         -3    1    6    6    0  503 -0.12423914284E+02 -0.31562062407E+03  0.14198427757E+04  0.14545529347E+04  0.00000000000E+00 0.  1.
<mgrwt>
<rscale>  0 0.15230965E+04</rscale>
<asrwt>0</asrwt>
<pdfrwt beam="1">  1        2 0.37912048E+00 0.15230965E+04</pdfrwt>
<pdfrwt beam="2">  1       -1 0.36206865E-01 0.15230965E+04</pdfrwt>
<totfact> 0.29346870E+01</totfact>
</mgrwt>
</event>
<event>
12    6  0.9533401E-008  0.2832053E+04  0.7818608E-02  0.8293386E-01
         -1   -1    0    0    0  501 -0.00000000000E+00  0.00000000000E+00  0.52488971020E+03  0.52488971020E+03  0.00000000000E+00 0.  1.
          2   -1    0    0  501    0  0.00000000000E+00 -0.00000000000E+00 -0.38201008987E+04  0.38201008987E+04  0.00000000000E+00 0. -1.
         24    2    1    2    0    0 -0.23783188542E+03  0.46762524378E+03  0.29342197307E+03  0.60650494643E+03  0.80711965761E+02 0.  0.
        254    2    1    2    0    0  0.23783188542E+03 -0.46762524378E+03 -0.35886331616E+04  0.37384856625E+04  0.90705551423E+03 0.  0.
         23    2    4    4    0    0 -0.30397290348E+03 -0.16394449045E+03 -0.19709337607E+04  0.20031569539E+04  0.93704701622E+02 0.  0.
         23    2    4    4    0    0  0.54180478890E+03 -0.30368075334E+03 -0.16176994009E+04  0.17353287086E+04  0.92951309020E+02 0.  0.
          2    1    3    3  502    0 -0.50281031690E+02  0.49238046953E+02  0.22211333192E+02  0.73796414125E+02  0.00000000000E+00 0. -1.
         -1    1    3    3    0  502 -0.18755085373E+03  0.41838719683E+03  0.27121063988E+03  0.53270853230E+03  0.00000000000E+00 0.  1.
         11    1    5    5    0    0 -0.80114670604E+02 -0.61579534301E+00 -0.49340708154E+03  0.49986927068E+03  0.00000000000E+00 0. -1.
        -11    1    5    5    0    0 -0.22385823288E+03 -0.16332869510E+03 -0.14775266791E+04  0.15032876833E+04  0.00000000000E+00 0.  1.
          1    1    6    6  503    0  0.32312297429E+03 -0.22237253444E+03 -0.10870996512E+04  0.11557005028E+04  0.00000000000E+00 0. -1.
         -1    1    6    6    0  503  0.21868181461E+03 -0.81308218894E+02 -0.53059974974E+03  0.57962820578E+03  0.00000000000E+00 0.  1.
<mgrwt>
<rscale>  0 0.28320534E+04</rscale>
<asrwt>0</asrwt>
<pdfrwt beam="1">  1        2 0.58770785E+00 0.28320534E+04</pdfrwt>
<pdfrwt beam="2">  1       -1 0.80752261E-01 0.28320534E+04</pdfrwt>
<totfact> 0.71504573E-01</totfact>
</mgrwt>
</event>
<event>
12    6  0.9533401E-008  0.1273901E+04  0.7818608E-02  0.9050522E-01
         -1   -1    0    0    0  501 -0.00000000000E+00  0.00000000000E+00  0.14532931700E+03  0.14532931700E+03  0.00000000000E+00 0.  1.
          2   -1    0    0  501    0  0.00000000000E+00 -0.00000000000E+00 -0.27916321158E+04  0.27916321158E+04  0.00000000000E+00 0. -1.
         24    2    1    2    0    0 -0.27778885152E+01 -0.34331836949E+02 -0.14238728190E+04  0.14265530709E+04  0.80333477625E+02 0.  0.
        254    2    1    2    0    0  0.27778885152E+01  0.34331836949E+02 -0.12224299798E+04  0.15104083619E+04  0.88646036155E+03 0.  0.
         23    2    4    4    0    0 -0.21877976775E+03  0.38084433883E+03 -0.48026960169E+03  0.65705913820E+03  0.90337276845E+02 0.  0.
         23    2    4    4    0    0  0.22155765627E+03 -0.34651250189E+03 -0.74216037811E+03  0.85334922373E+03  0.90797366695E+02 0.  0.
          2    1    3    3  502    0 -0.29874151063E+02 -0.48284362569E+02 -0.96560995600E+03  0.96727784618E+03  0.00000000000E+00 0. -1.
         -1    1    3    3    0  502  0.27096262548E+02  0.13952525620E+02 -0.45826286300E+03  0.45927522469E+03  0.00000000000E+00 0.  1.
         11    1    5    5    0    0 -0.50636811481E+02  0.28764795506E+02 -0.62329688268E+02  0.85302345672E+02  0.00000000000E+00 0. -1.
        -11    1    5    5    0    0 -0.16814295627E+03  0.35207954333E+03 -0.41793991343E+03  0.57175679253E+03  0.00000000000E+00 0.  1.
          1    1    6    6  503    0  0.18909924658E+03 -0.23087370178E+03 -0.57051652831E+03  0.64385580707E+03  0.00000000000E+00 0. -1.
         -1    1    6    6    0  503  0.32458409690E+02 -0.11563880011E+03 -0.17164384980E+03  0.20949341666E+03  0.00000000000E+00 0.  1.
<mgrwt>
<rscale>  0 0.12739011E+04</rscale>
<asrwt>0</asrwt>
<pdfrwt beam="1">  1        2 0.42948188E+00 0.12739011E+04</pdfrwt>
<pdfrwt beam="2">  1       -1 0.22358356E-01 0.12739011E+04</pdfrwt>
<totfact> 0.44740840E+01</totfact>
</mgrwt>
</event>
<event>
12    6  0.9533401E-008  0.1025047E+04  0.7818608E-02  0.9281492E-01
          2   -1    0    0  501    0  0.00000000000E+00  0.00000000000E+00  0.92044874654E+03  0.92044874654E+03  0.00000000000E+00 0. -1.
         -1   -1    0    0    0  501 -0.00000000000E+00 -0.00000000000E+00 -0.28538312490E+03  0.28538312490E+03  0.00000000000E+00 0.  1.
         24    2    1    2    0    0  0.36544921947E+02 -0.30981716623E+01  0.17077090729E+03  0.19230636940E+03  0.80460592506E+02 0.  0.
        254    2    1    2    0    0 -0.36544921947E+02  0.30981716623E+01  0.46429471435E+03  0.10135255020E+04  0.90017733337E+03 0.  0.
         23    2    4    4    0    0 -0.87486145870E+01  0.42086846167E+03  0.38521745419E+03  0.57767050872E+03  0.90021827046E+02 0.  0.
         23    2    4    4    0    0 -0.27796307360E+02 -0.41777029001E+03  0.79077260164E+02  0.43585499332E+03  0.91715386985E+02 0.  0.
          2    1    3    3  502    0 -0.98194952672E+01 -0.21554647848E+02  0.11523270221E+03  0.11764183351E+03  0.00000000000E+00 0. -1.
         -1    1    3    3    0  502  0.46364417215E+02  0.18456476186E+02  0.55538205077E+02  0.74664535893E+02  0.00000000000E+00 0.  1.
         11    1    5    5    0    0  0.29039969414E+02  0.51073978451E+02  0.51676016168E+02  0.78245010993E+02  0.00000000000E+00 0.  1.
        -11    1    5    5    0    0 -0.37788584001E+02  0.36979448322E+03  0.33354143802E+03  0.49942549773E+03  0.00000000000E+00 0. -1.
          4    1    6    6  503    0 -0.16781132737E+02 -0.40412435961E+03  0.58278499495E+02  0.40864959066E+03  0.00000000000E+00 0. -1.
         -4    1    6    6    0  503 -0.11015174624E+02 -0.13645930404E+02  0.20798760669E+02  0.27205402661E+02  0.00000000000E+00 0.  1.
<mgrwt>
<rscale>  0 0.10250474E+04</rscale>
<asrwt>0</asrwt>
<pdfrwt beam="1">  1        2 0.14160750E+00 0.10250474E+04</pdfrwt>
<pdfrwt beam="2">  1       -1 0.43905097E-01 0.10250474E+04</pdfrwt>
<totfact> 0.16554350E+02</totfact>
</mgrwt>
</event>
<event>
12    6  0.9533401E-008  0.1353407E+04  0.7818608E-02  0.8988253E-01
         -1   -1    0    0    0  501 -0.00000000000E+00  0.00000000000E+00  0.16397758181E+03  0.16397758181E+03  0.00000000000E+00 0.  1.
          2   -1    0    0  501    0  0.00000000000E+00 -0.00000000000E+00 -0.27926232936E+04  0.27926232936E+04  0.00000000000E+00 0. -1.
         24    2    1    2    0    0  0.10482830779E+03 -0.19106106443E+03 -0.14207417816E+04  0.14396146590E+04  0.80559616958E+02 0.  0.
        254    2    1    2    0    0 -0.10482830779E+03  0.19106106443E+03 -0.12079039301E+04  0.15169862164E+04  0.89147180089E+03 0.  0.
         23    2    4    4    0    0 -0.16798004997E+03 -0.19929963830E+02  0.79206761534E+02  0.20802605828E+03  0.91578541174E+02 0.  0.
         23    2    4    4    0    0  0.63151742179E+02  0.21099102826E+03 -0.12871106917E+04  0.13089601581E+04  0.90649910880E+02 0.  0.
          4    1    3    3  502    0  0.64425982340E+02 -0.87848494182E+02 -0.93836584899E+03  0.94466847713E+03  0.00000000000E+00 0. -1.
         -3    1    3    3    0  502  0.40402325450E+02 -0.10321257025E+03 -0.48237593264E+03  0.49494618187E+03  0.00000000000E+00 0.  1.
         11    1    5    5    0    0 -0.12607165154E+03 -0.41156502996E+01  0.11256221671E+02  0.12664005064E+03  0.00000000000E+00 0.  1.
        -11    1    5    5    0    0 -0.41908398425E+02 -0.15814313531E+02  0.67950539863E+02  0.81386007635E+02  0.00000000000E+00 0. -1.
          3    1    6    6  503    0  0.19494119678E+02 -0.30176755634E+01 -0.11170463198E+03  0.11343302814E+03  0.00000000000E+00 0. -1.
         -3    1    6    6    0  503  0.43657622501E+02  0.21400870382E+03 -0.11754060597E+04  0.11955271300E+04  0.00000000000E+00 0.  1.
<mgrwt>
<rscale>  0 0.13534070E+04</rscale>
<asrwt>0</asrwt>
<pdfrwt beam="1">  1        2 0.42963437E+00 0.13534070E+04</pdfrwt>
<pdfrwt beam="2">  1       -1 0.25227319E-01 0.13534070E+04</pdfrwt>
<totfact> 0.36098101E+01</totfact>
</mgrwt>
</event>
<event>
12    6  0.9533401E-008  0.2087303E+04  0.7818608E-02  0.8566857E-01
          2   -1    0    0  501    0  0.00000000000E+00  0.00000000000E+00  0.14794119425E+04  0.14794119425E+04  0.00000000000E+00 0. -1.
         -1   -1    0    0    0  501 -0.00000000000E+00 -0.00000000000E+00 -0.73624418569E+03  0.73624418569E+03  0.00000000000E+00 0.  1.
         24    2    1    2    0    0 -0.24244378942E+03 -0.26573153580E+03  0.11176322943E+04  0.11768410497E+04  0.80378298136E+02 0.  0.
        254    2    1    2    0    0  0.24244378942E+03  0.26573153580E+03 -0.37446453744E+03  0.10388150786E+04  0.89973375924E+03 0.  0.
         23    2    4    4    0    0 -0.25408967530E+03 -0.14590522257E+03 -0.46003113747E+02  0.30951216693E+03  0.88496315955E+02 0.  0.
         23    2    4    4    0    0  0.49653346472E+03  0.41163675837E+03 -0.32846142369E+03  0.72930291163E+03  0.89473614176E+02 0.  0.
          2    1    3    3  502    0 -0.10356975904E+03 -0.15550013128E+03  0.48202732725E+03  0.51696937050E+03  0.00000000000E+00 0. -1.
         -1    1    3    3    0  502 -0.13887403037E+03 -0.11023140453E+03  0.63560496702E+03  0.65987167916E+03  0.00000000000E+00 0.  1.
         11    1    5    5    0    0 -0.51113665075E+02 -0.39160733210E+02  0.25551831081E+02  0.69275290361E+02  0.00000000000E+00 0. -1.
        -11    1    5    5    0    0 -0.20297601023E+03 -0.10674448936E+03 -0.71554944829E+02  0.24023687657E+03  0.00000000000E+00 0.  1.
          2    1    6    6  503    0  0.22340345490E+03  0.20397419337E+03 -0.20139670490E+03  0.36342152931E+03  0.00000000000E+00 0. -1.
         -2    1    6    6    0  503  0.27313000982E+03  0.20766256500E+03 -0.12706471878E+03  0.36588138232E+03  0.00000000000E+00 0.  1.
<mgrwt>
<rscale>  0 0.20873030E+04</rscale>
<asrwt>0</asrwt>
<pdfrwt beam="1">  1        2 0.22760184E+00 0.20873030E+04</pdfrwt>
<pdfrwt beam="2">  1       -1 0.11326834E+00 0.20873030E+04</pdfrwt>
<totfact> 0.97557208E+00</totfact>
</mgrwt>
</event>
<event>
12    6  0.9533401E-008  0.3064406E+04  0.7818608E-02  0.8225575E-01
         -1   -1    0    0    0  501 -0.00000000000E+00  0.00000000000E+00  0.89907625130E+03  0.89907625130E+03  0.00000000000E+00 0.  1.
          2   -1    0    0  501    0  0.00000000000E+00 -0.00000000000E+00 -0.26111755090E+04  0.26111755090E+04  0.00000000000E+00 0. -1.
         24    2    1    2    0    0  0.13622553830E+03 -0.10148862727E+04 -0.19068762505E+04  0.21658291177E+04  0.78020437365E+02 0.  0.
        254    2    1    2    0    0 -0.13622553830E+03  0.10148862727E+04  0.19477699277E+03  0.13444226426E+04  0.84910695515E+03 0.  0.
         23    2    4    4    0    0  0.71362057303E+02  0.66715578036E+03  0.48921700011E+03  0.83546894450E+03  0.92117889362E+02 0.  0.
         23    2    4    4    0    0 -0.20758759561E+03  0.34773049232E+03 -0.29444000734E+03  0.50895369811E+03  0.91267977727E+02 0.  0.
          4    1    3    3  502    0  0.13758366083E+03 -0.10121934119E+04 -0.19063266046E+04  0.21627634845E+04  0.00000000000E+00 0. -1.
         -3    1    3    3    0  502 -0.13581225310E+01 -0.26928607811E+01 -0.54964592397E+00  0.30656331544E+01  0.00000000000E+00 0.  1.
         11    1    5    5    0    0  0.85420161677E+02  0.38231325998E+03  0.27026372784E+03  0.47592280400E+03  0.00000000000E+00 0.  1.
        -11    1    5    5    0    0 -0.14058104374E+02  0.28484252038E+03  0.21895327227E+03  0.35954614051E+03  0.00000000000E+00 0. -1.
          3    1    6    6  503    0 -0.20471199336E+03  0.28240179362E+03 -0.23491632151E+03  0.42052758694E+03  0.00000000000E+00 0.  1.
         -3    1    6    6    0  503 -0.28756022485E+01  0.65328698698E+02 -0.59523685829E+02  0.88426111169E+02  0.00000000000E+00 0. -1.
<mgrwt>
<rscale>  0 0.30644059E+04</rscale>
<asrwt>0</asrwt>
<pdfrwt beam="1">  1        2 0.40171931E+00 0.30644059E+04</pdfrwt>
<pdfrwt beam="2">  1       -1 0.13831942E+00 0.30644059E+04</pdfrwt>
<totfact> 0.12544042E+00</totfact>
</mgrwt>
</event>
<event>
12    6  0.9533401E-008  0.1881075E+04  0.7818608E-02  0.8664334E-01
          2   -1    0    0  501    0  0.00000000000E+00  0.00000000000E+00  0.14251635650E+04  0.14251635650E+04  0.00000000000E+00 0. -1.
         -3   -1    0    0    0  501 -0.00000000000E+00 -0.00000000000E+00 -0.62070834036E+03  0.62070834036E+03  0.00000000000E+00 0.  1.
         24    2    1    2    0    0 -0.38915707232E+02  0.51110171621E+03  0.87759231602E+03  0.10195060138E+04  0.80528519525E+02 0.  0.
        254    2    1    2    0    0  0.38915707232E+02 -0.51110171621E+03 -0.73137091406E+02  0.10263658915E+04  0.88619327045E+03 0.  0.
         23    2    4    4    0    0 -0.29147145392E+03 -0.54368030812E+03 -0.20612756863E+03  0.65748628722E+03  0.96206847203E+02 0.  0.
         23    2    4    4    0    0  0.33038716115E+03  0.32578591914E+02  0.13299047722E+03  0.36887960431E+03  0.90380609324E+02 0.  0.
          4    1    3    3  502    0 -0.37228431032E+02  0.32387748586E+03  0.62702272141E+03  0.70671074358E+03  0.00000000000E+00 0. -1.
         -3    1    3    3    0  502 -0.16872762001E+01  0.18722423035E+03  0.25056959461E+03  0.31279527022E+03  0.00000000000E+00 0.  1.
         11    1    5    5    0    0 -0.11591913983E+03 -0.21012353591E+03 -0.31394505665E+02  0.24202223516E+03  0.00000000000E+00 0. -1.
        -11    1    5    5    0    0 -0.17555231409E+03 -0.33355677221E+03 -0.17473306296E+03  0.41546405207E+03  0.00000000000E+00 0.  1.
          4    1    6    6  503    0  0.16307203699E+03 -0.52233486563E+01  0.22151055179E+02  0.16465248819E+03  0.00000000000E+00 0. -1.
         -4    1    6    6    0  503  0.16731512416E+03  0.37801940571E+02  0.11083942204E+03  0.20422711613E+03  0.00000000000E+00 0.  1.
<mgrwt>
<rscale>  0 0.18810751E+04</rscale>
<asrwt>0</asrwt>
<pdfrwt beam="1">  1        2 0.21925593E+00 0.18810751E+04</pdfrwt>
<pdfrwt beam="2">  1       -3 0.95493592E-01 0.18810751E+04</pdfrwt>
<totfact> 0.81272344E+00</totfact>
</mgrwt>
</event>
<event>
12    6  0.9533401E-008  0.2011982E+04  0.7818608E-02  0.8601039E-01
          2   -1    0    0  501    0  0.00000000000E+00  0.00000000000E+00  0.19338827447E+04  0.19338827447E+04  0.00000000000E+00 0. -1.
         -1   -1    0    0    0  501 -0.00000000000E+00 -0.00000000000E+00 -0.52330890648E+03  0.52330890648E+03  0.00000000000E+00 0.  1.
         24    2    1    2    0    0 -0.28848331203E+03 -0.74890217935E+03  0.46741794840E+03  0.93184338195E+03  0.75996410772E+02 0.  0.
        254    2    1    2    0    0  0.28848331203E+03  0.74890217935E+03  0.94315588979E+03  0.15253482692E+04  0.89054321307E+03 0.  0.
         23    2    4    4    0    0 -0.28081128594E+03  0.15228687952E+03  0.45343218065E+03  0.56207625673E+03  0.91009361824E+02 0.  0.
         23    2    4    4    0    0  0.56929459797E+03  0.59661529983E+03  0.48972370914E+03  0.96327201247E+03  0.89540512837E+02 0.  0.
          4    1    3    3  502    0 -0.73165716987E+02 -0.24613678703E+03  0.11617800435E+03  0.28184014754E+03  0.00000000000E+00 0. -1.
         -3    1    3    3    0  502 -0.21531759504E+03 -0.50276539232E+03  0.35123994405E+03  0.65000323441E+03  0.00000000000E+00 0.  1.
         11    1    5    5    0    0 -0.28525649601E+03  0.14385557580E+03  0.42238330259E+03  0.52959734659E+03  0.00000000000E+00 0. -1.
        -11    1    5    5    0    0  0.44452100691E+01  0.84313037201E+01  0.31048878063E+02  0.32478910141E+02  0.00000000000E+00 0.  1.
          3    1    6    6  503    0  0.44221781313E+03  0.48465079032E+03  0.34934639706E+03  0.74329394451E+03  0.00000000000E+00 0. -1.
         -3    1    6    6    0  503  0.12707678485E+03  0.11196450951E+03  0.14037731208E+03  0.21997806796E+03  0.00000000000E+00 0.  1.
<mgrwt>
<rscale>  0 0.20119822E+04</rscale>
<asrwt>0</asrwt>
<pdfrwt beam="1">  1        2 0.29752042E+00 0.20119822E+04</pdfrwt>
<pdfrwt beam="2">  1       -1 0.80509064E-01 0.20119822E+04</pdfrwt>
<totfact> 0.11825153E+01</totfact>
</mgrwt>
</event>
<event>
12    6  0.9533401E-008  0.1433849E+04  0.7818608E-02  0.8929675E-01
          2   -1    0    0  501    0  0.00000000000E+00  0.00000000000E+00  0.15636620421E+04  0.15636620421E+04  0.00000000000E+00 0. -1.
         -1   -1    0    0    0  501 -0.00000000000E+00 -0.00000000000E+00 -0.32870299440E+03  0.32870299440E+03  0.00000000000E+00 0.  1.
         24    2    1    2    0    0  0.15817857481E+03  0.39123880173E+03  0.25595841739E+03  0.49947424015E+03  0.76625998383E+02 0.  0.
        254    2    1    2    0    0 -0.15817857481E+03 -0.39123880173E+03  0.97900063029E+03  0.13928907963E+04  0.89644535523E+03 0.  0.
         23    2    4    4    0    0  0.25751453973E+03 -0.42571742172E+03  0.29057936177E+03  0.58310237920E+03  0.89570965228E+02 0.  0.
         23    2    4    4    0    0 -0.41569311454E+03  0.34478619991E+02  0.68842126852E+03  0.80978841714E+03  0.88565777160E+02 0.  0.
          4    1    3    3  502    0  0.11215855210E+03  0.28925022272E+03  0.22544390790E+03  0.38349731128E+03  0.00000000000E+00 0. -1.
         -3    1    3    3    0  502  0.46020022704E+02  0.10198857901E+03  0.30514509489E+02  0.11597692886E+03  0.00000000000E+00 0.  1.
         11    1    5    5    0    0  0.11632838509E+03 -0.27315768849E+03  0.18677013068E+03  0.35075703510E+03  0.00000000000E+00 0. -1.
        -11    1    5    5    0    0  0.14118615463E+03 -0.15255973323E+03  0.10380923110E+03  0.23234534410E+03  0.00000000000E+00 0.  1.
          3    1    6    6  503    0 -0.88926245959E+02  0.25218656804E+02  0.21950124320E+03  0.23816938014E+03  0.00000000000E+00 0. -1.
         -3    1    6    6    0  503 -0.32676686858E+03  0.92599631877E+01  0.46892002531E+03  0.57161903700E+03  0.00000000000E+00 0.  1.
<mgrwt>
<rscale>  0 0.14338485E+04</rscale>
<asrwt>0</asrwt>
<pdfrwt beam="1">  1        2 0.24056339E+00 0.14338485E+04</pdfrwt>
<pdfrwt beam="2">  1       -1 0.50569692E-01 0.14338485E+04</pdfrwt>
<totfact> 0.50782859E+01</totfact>
</mgrwt>
</event>
<event>
12    6  0.9533401E-008  0.2238197E+04  0.7818608E-02  0.8502696E-01
          4   -1    0    0  501    0  0.00000000000E+00  0.00000000000E+00  0.12299189396E+04  0.12299189396E+04  0.00000000000E+00 0. -1.
         -3   -1    0    0    0  501 -0.00000000000E+00 -0.00000000000E+00 -0.10182636376E+04  0.10182636376E+04  0.00000000000E+00 0.  1.
         24    2    1    2    0    0 -0.81059233059E+03 -0.38996952033E+03 -0.17931975664E+03  0.92052401653E+03  0.77927765810E+02 0.  0.
        254    2    1    2    0    0  0.81059233059E+03  0.38996952033E+03  0.39097505862E+03  0.13276585607E+04  0.89480702055E+03 0.  0.
         23    2    4    4    0    0  0.66488020305E+03  0.48031386309E+03 -0.68871370712E+02  0.82808196016E+03  0.90605604482E+02 0.  0.
         23    2    4    4    0    0  0.14571212754E+03 -0.90344342753E+02  0.45984642933E+03  0.49957660050E+03  0.93401910118E+02 0.  0.
          4    1    3    3  502    0 -0.54716239552E+03 -0.27525323177E+03 -0.15721501847E+03  0.63235084463E+03  0.00000000000E+00 0. -1.
         -3    1    3    3    0  502 -0.26342993507E+03 -0.11471628856E+03 -0.22104738167E+02  0.28817317190E+03  0.00000000000E+00 0.  1.
         11    1    5    5    0    0  0.27051150406E+03  0.18173912740E+03 -0.70518666050E+02  0.33343435114E+03  0.00000000000E+00 0.  1.
        -11    1    5    5    0    0  0.39436869898E+03  0.29857473568E+03  0.16472953377E+01  0.49464760902E+03  0.00000000000E+00 0. -1.
          1    1    6    6  503    0  0.42507423760E+02 -0.71505651936E+02  0.13874738886E+03  0.16177384599E+03  0.00000000000E+00 0. -1.
         -1    1    6    6    0  503  0.10320470378E+03 -0.18838690817E+02  0.32109904048E+03  0.33780275450E+03  0.00000000000E+00 0.  1.
<mgrwt>
<rscale>  0 0.22381973E+04</rscale>
<asrwt>0</asrwt>
<pdfrwt beam="1">  1        4 0.18921830E+00 0.22381973E+04</pdfrwt>
<pdfrwt beam="2">  1       -3 0.15665594E+00 0.22381973E+04</pdfrwt>
<totfact> 0.92990214E-02</totfact>
</mgrwt>
</event>
<event>
12    6  0.9533401E-008  0.1795620E+04  0.7818608E-02  0.8708632E-01
         -1   -1    0    0    0  501 -0.00000000000E+00  0.00000000000E+00  0.59919743087E+03  0.59919743087E+03  0.00000000000E+00 0.  1.
          2   -1    0    0  501    0  0.00000000000E+00 -0.00000000000E+00 -0.13452373894E+04  0.13452373894E+04  0.00000000000E+00 0. -1.
         24    2    1    2    0    0  0.23156426145E+03  0.62383204632E+03 -0.24538512773E+03  0.71340130550E+03  0.77065767847E+02 0.  0.
        254    2    1    2    0    0 -0.23156426145E+03 -0.62383204632E+03 -0.50065483081E+03  0.12310335148E+04  0.90664206041E+03 0.  0.
         23    2    4    4    0    0  0.33570400765E+02 -0.16214237149E+03  0.24558686755E+03  0.30977360727E+03  0.90717461448E+02 0.  0.
         23    2    4    4    0    0 -0.26513466221E+03 -0.46168967483E+03 -0.74624169836E+03  0.92125990751E+03  0.91593667079E+02 0.  0.
          4    1    3    3  502    0  0.25896967483E+02  0.28878254555E+02 -0.31974380070E+01  0.38920818604E+02  0.00000000000E+00 0. -1.
         -3    1    3    3    0  502  0.20566729397E+03  0.59495379177E+03 -0.24218768973E+03  0.67448048689E+03  0.00000000000E+00 0.  1.
         11    1    5    5    0    0  0.20172434748E+01  0.95071206227E+01  0.34702150127E+02  0.36037394984E+02  0.00000000000E+00 0. -1.
        -11    1    5    5    0    0  0.31553157290E+02 -0.17164949211E+03  0.21088471742E+03  0.27373621229E+03  0.00000000000E+00 0.  1.
          3    1    6    6  503    0 -0.30637765022E+02 -0.13022533402E+03 -0.16958638399E+03  0.21600197199E+03  0.00000000000E+00 0. -1.
         -3    1    6    6    0  503 -0.23449689719E+03 -0.33146434081E+03 -0.57665531437E+03  0.70525793552E+03  0.00000000000E+00 0.  1.
<mgrwt>
<rscale>  0 0.17956200E+04</rscale>
<asrwt>0</asrwt>
<pdfrwt beam="1">  1        2 0.20695960E+00 0.17956200E+04</pdfrwt>
<pdfrwt beam="2">  1       -1 0.92184221E-01 0.17956200E+04</pdfrwt>
<totfact> 0.19185950E+01</totfact>
</mgrwt>
</event>
<event>
12    6  0.9533401E-008  0.1271815E+04  0.7818608E-02  0.9052219E-01
          2   -1    0    0  501    0  0.00000000000E+00  0.00000000000E+00  0.40333212519E+03  0.40333212519E+03  0.00000000000E+00 0. -1.
         -1   -1    0    0    0  501 -0.00000000000E+00 -0.00000000000E+00 -0.10025945725E+04  0.10025945725E+04  0.00000000000E+00 0.  1.
         24    2    1    2    0    0  0.30400576044E+02  0.26078340095E+03 -0.31126540634E+03  0.41492413140E+03  0.79647375367E+02 0.  0.
        254    2    1    2    0    0 -0.30400576044E+02 -0.26078340095E+03 -0.28799704092E+03  0.99100256624E+03  0.91115948850E+03 0.  0.
         23    2    4    4    0    0  0.79967446288E+02  0.32061975530E+03 -0.15746480035E+03  0.37779034232E+03  0.93480262306E+02 0.  0.
         23    2    4    4    0    0 -0.11036802233E+03 -0.58140315625E+03 -0.13053224057E+03  0.61321222392E+03  0.93700775287E+02 0.  0.
          4    1    3    3  502    0  0.31324751463E+02  0.12748565104E+03 -0.20943829414E+03  0.24718056220E+03  0.00000000000E+00 0. -1.
         -3    1    3    3    0  502 -0.92417541860E+00  0.13329774991E+03 -0.10182711220E+03  0.16774356921E+03  0.00000000000E+00 0.  1.
         11    1    5    5    0    0  0.14226530048E+02  0.13228517453E+03 -0.17697902703E+02  0.13421988421E+03  0.00000000000E+00 0.  1.
        -11    1    5    5    0    0  0.65740916240E+02  0.18833458078E+03 -0.13976689765E+03  0.24357045811E+03  0.00000000000E+00 0. -1.
          3    1    6    6  503    0 -0.12396087358E+03 -0.54086791625E+03 -0.13221517520E+03  0.57042550220E+03  0.00000000000E+00 0. -1.
         -3    1    6    6    0  503  0.13592851247E+02 -0.40535240002E+02  0.16829346281E+01  0.42786721725E+02  0.00000000000E+00 0.  1.
<mgrwt>
<rscale>  0 0.12718154E+04</rscale>
<asrwt>0</asrwt>
<pdfrwt beam="1">  1        2 0.62051097E-01 0.12718154E+04</pdfrwt>
<pdfrwt beam="2">  1       -1 0.15424532E+00 0.12718154E+04</pdfrwt>
<totfact> 0.28635105E+01</totfact>
</mgrwt>
</event>
<event>
12    6  0.9533401E-008  0.1579400E+04  0.7818608E-02  0.8833304E-01
         -1   -1    0    0    0  501 -0.00000000000E+00  0.00000000000E+00  0.12135314167E+04  0.12135314167E+04  0.00000000000E+00 0.  1.
          2   -1    0    0  501    0  0.00000000000E+00 -0.00000000000E+00 -0.51389378315E+03  0.51389378315E+03  0.00000000000E+00 0. -1.
         24    2    1    2    0    0  0.71362792233E+02 -0.49689199941E+03  0.52612087432E+02  0.51136380106E+03  0.82040222455E+02 0.  0.
        254    2    1    2    0    0 -0.71362792233E+02  0.49689199941E+03  0.64702554609E+03  0.12160613988E+04  0.89898218062E+03 0.  0.
         23    2    4    4    0    0 -0.24269452587E+03  0.68588290518E+03  0.58556957747E+03  0.93834467753E+03  0.90901107176E+02 0.  0.
         23    2    4    4    0    0  0.17133173364E+03 -0.18899090577E+03  0.61455968619E+02  0.27771672123E+03  0.90981403361E+02 0.  0.
          4    1    3    3  502    0  0.46016188395E+02 -0.27411112160E+03 -0.11421492790E+02  0.27818132051E+03  0.00000000000E+00 0. -1.
         -3    1    3    3    0  502  0.25346603838E+02 -0.22278087781E+03  0.64033580222E+02  0.23318248056E+03  0.00000000000E+00 0.  1.
         11    1    5    5    0    0 -0.22587724416E+03  0.57216081795E+03  0.46005134154E+03  0.76813785734E+03  0.00000000000E+00 0. -1.
        -11    1    5    5    0    0 -0.16817281712E+02  0.11372208723E+03  0.12551823593E+03  0.17020682019E+03  0.00000000000E+00 0.  1.
          3    1    6    6  503    0  0.11959549309E+03 -0.11591948633E+03 -0.43348157925E+01  0.16661092373E+03  0.00000000000E+00 0.  1.
         -3    1    6    6    0  503  0.51736240554E+02 -0.73071419436E+02  0.65790784411E+02  0.11110579750E+03  0.00000000000E+00 0. -1.
<mgrwt>
<rscale>  0 0.15794002E+04</rscale>
<asrwt>0</asrwt>
<pdfrwt beam="1">  1        2 0.79060582E-01 0.15794002E+04</pdfrwt>
<pdfrwt beam="2">  1       -1 0.18669714E+00 0.15794002E+04</pdfrwt>
<totfact> 0.12204781E+01</totfact>
</mgrwt>
</event>
<event>
12    6  0.9533401E-008  0.2849941E+04  0.7818608E-02  0.8287929E-01
          2   -1    0    0  501    0  0.00000000000E+00  0.00000000000E+00  0.12342980309E+04  0.12342980309E+04  0.00000000000E+00 0. -1.
         -1   -1    0    0    0  501 -0.00000000000E+00 -0.00000000000E+00 -0.16450972438E+04  0.16450972438E+04  0.00000000000E+00 0.  1.
         24    2    1    2    0    0  0.11923406675E+04  0.43644815799E+03 -0.36861460681E+03  0.13246406513E+04  0.81442401555E+02 0.  0.
        254    2    1    2    0    0 -0.11923406675E+04 -0.43644815799E+03 -0.42184606107E+02  0.15547546234E+04  0.89628072393E+03 0.  0.
         23    2    4    4    0    0 -0.26952451181E+03 -0.54881138156E+03  0.15045756923E+02  0.61833981783E+03  0.90996486283E+02 0.  0.
         23    2    4    4    0    0 -0.92281615568E+03  0.11236322357E+03 -0.57230363030E+02  0.93641480559E+03  0.96861873154E+02 0.  0.
          2    1    3    3  502    0  0.15321369424E+03  0.65304051456E+02 -0.76068170929E+02  0.18309948626E+03  0.00000000000E+00 0. -1.
         -1    1    3    3    0  502  0.10391269733E+04  0.37114410653E+03 -0.29254643588E+03  0.11415411650E+04  0.00000000000E+00 0.  1.
         11    1    5    5    0    0 -0.14216094464E+03 -0.33575570117E+03  0.48689139997E+02  0.36784814449E+03  0.00000000000E+00 0. -1.
        -11    1    5    5    0    0 -0.12736356717E+03 -0.21305568039E+03 -0.33643383075E+02  0.25049167334E+03  0.00000000000E+00 0.  1.
          3    1    6    6  503    0 -0.78800536412E+03  0.90627495157E+02 -0.82730481912E+02  0.79750243222E+03  0.00000000000E+00 0. -1.
         -3    1    6    6    0  503 -0.13481079157E+03  0.21735728417E+02  0.25500118882E+02  0.13891237337E+03  0.00000000000E+00 0.  1.
<mgrwt>
<rscale>  0 0.28499406E+04</rscale>
<asrwt>0</asrwt>
<pdfrwt beam="1">  1        2 0.18989201E+00 0.28499406E+04</pdfrwt>
<pdfrwt beam="2">  1       -1 0.25309188E+00 0.28499406E+04</pdfrwt>
<totfact> 0.11873226E+00</totfact>
</mgrwt>
</event>
<event>
12    6  0.9533401E-008  0.3023840E+04  0.7818608E-02  0.8236956E-01
         -1   -1    0    0    0  501 -0.00000000000E+00  0.00000000000E+00  0.77165245385E+03  0.77165245385E+03  0.00000000000E+00 0.  1.
          2   -1    0    0  501    0  0.00000000000E+00 -0.00000000000E+00 -0.29623470925E+04  0.29623470925E+04  0.00000000000E+00 0. -1.
         24    2    1    2    0    0  0.82960726836E+03  0.45362122574E+03  0.24308485004E+03  0.97956763003E+03  0.80262452824E+02 0.  0.
        254    2    1    2    0    0 -0.82960726836E+03 -0.45362122574E+03 -0.24337794887E+04  0.27544319163E+04  0.87726401153E+03 0.  0.
         23    2    4    4    0    0 -0.33396327310E+02 -0.29042640641E+03 -0.14176580960E+04  0.14506159922E+04  0.95233752817E+02 0.  0.
         23    2    4    4    0    0 -0.79621094105E+03 -0.16319481933E+03 -0.10161213927E+04  0.13038159241E+04  0.82757884369E+02 0.  0.
          4    1    3    3  502    0  0.36691569181E+03  0.23631892265E+03  0.13767990486E+03  0.45763469525E+03  0.00000000000E+00 0. -1.
         -3    1    3    3    0  502  0.46269157655E+03  0.21730230309E+03  0.10540494518E+03  0.52193293478E+03  0.00000000000E+00 0.  1.
         11    1    5    5    0    0 -0.47108016011E+01 -0.16602215621E+00 -0.14034503858E+03  0.14042417552E+03  0.00000000000E+00 0.  1.
        -11    1    5    5    0    0 -0.28685525709E+02 -0.29026038425E+03 -0.12773130574E+04  0.13101918167E+04  0.00000000000E+00 0. -1.
          2    1    6    6  503    0 -0.44733188311E+03 -0.49933552657E+02 -0.56720626876E+03  0.72410090778E+03  0.00000000000E+00 0. -1.
         -2    1    6    6    0  503 -0.34887905794E+03 -0.11326126668E+03 -0.44891512395E+03  0.57971501629E+03  0.00000000000E+00 0.  1.
<mgrwt>
<rscale>  0 0.30238402E+04</rscale>
<asrwt>0</asrwt>
<pdfrwt beam="1">  1        2 0.45574570E+00 0.30238402E+04</pdfrwt>
<pdfrwt beam="2">  1       -1 0.11871576E+00 0.30238402E+04</pdfrwt>
<totfact> 0.11334116E+00</totfact>
</mgrwt>
</event>
<event>
12    6  0.9533401E-008  0.1574089E+04  0.7818608E-02  0.8836626E-01
         -1   -1    0    0    0  501 -0.00000000000E+00  0.00000000000E+00  0.42067317618E+03  0.42067317618E+03  0.00000000000E+00 0.  1.
          2   -1    0    0  501    0  0.00000000000E+00 -0.00000000000E+00 -0.14724945701E+04  0.14724945701E+04  0.00000000000E+00 0. -1.
         24    2    1    2    0    0 -0.11680987084E+03  0.24373475367E+03 -0.90833403556E+03  0.95081759208E+03  0.77020758053E+02 0.  0.
        254    2    1    2    0    0  0.11680987084E+03 -0.24373475367E+03 -0.14348735835E+03  0.94235015420E+03  0.89128223086E+03 0.  0.
         23    2    4    4    0    0  0.38726150899E+03  0.15412983360E+03  0.19321074689E+02  0.42643547931E+03  0.88013817885E+02 0.  0.
         23    2    4    4    0    0 -0.27045163815E+03 -0.39786458728E+03 -0.16280843304E+03  0.51591467489E+03  0.90669992319E+02 0.  0.
          4    1    3    3  502    0 -0.12661645656E+03  0.23233675872E+03 -0.87728647143E+03  0.91632071322E+03  0.00000000000E+00 0. -1.
         -3    1    3    3    0  502  0.98065857166E+01  0.11397994953E+02 -0.31047564135E+02  0.34496878860E+02  0.00000000000E+00 0.  1.
         11    1    5    5    0    0  0.24940336612E+03  0.13087513987E+03  0.42102329085E+02  0.28478579210E+03  0.00000000000E+00 0.  1.
        -11    1    5    5    0    0  0.13785814287E+03  0.23254693738E+02 -0.22781254396E+02  0.14164968721E+03  0.00000000000E+00 0. -1.
          1    1    6    6  503    0 -0.17463116606E+02 -0.26130807436E+02  0.11768035924E+02  0.33559889874E+02  0.00000000000E+00 0. -1.
         -1    1    6    6    0  503 -0.25298852154E+03 -0.37173377984E+03 -0.17457646897E+03  0.48235478501E+03  0.00000000000E+00 0.  1.
<mgrwt>
<rscale>  0 0.15740889E+04</rscale>
<asrwt>0</asrwt>
<pdfrwt beam="1">  1        2 0.22653763E+00 0.15740889E+04</pdfrwt>
<pdfrwt beam="2">  1       -1 0.64718949E-01 0.15740889E+04</pdfrwt>
<totfact> 0.34873111E+01</totfact>
</mgrwt>
</event>
<event>
12    6  0.9533401E-008  0.1543852E+04  0.7818608E-02  0.8855804E-01
         -1   -1    0    0    0  501 -0.00000000000E+00  0.00000000000E+00  0.24592256918E+03  0.24592256918E+03  0.00000000000E+00 0.  1.
          2   -1    0    0  501    0  0.00000000000E+00 -0.00000000000E+00 -0.24229976279E+04  0.24229976279E+04  0.00000000000E+00 0. -1.
         24    2    1    2    0    0  0.39027202420E+03  0.13751018245E+03 -0.12285714520E+04  0.12987454277E+04  0.78297958537E+02 0.  0.
        254    2    1    2    0    0 -0.39027202420E+03 -0.13751018245E+03 -0.94850360674E+03  0.13701747693E+04  0.89805261726E+03 0.  0.
         23    2    4    4    0    0  0.74273767782E+02  0.15067270249E+03  0.75401770709E+02  0.20594985854E+03  0.92255413668E+02 0.  0.
         23    2    4    4    0    0 -0.46454579198E+03 -0.28818288493E+03 -0.10239053775E+04  0.11642249108E+04  0.90472387676E+02 0.  0.
          4    1    3    3  502    0  0.34541779184E+03  0.14680164280E+03 -0.10971556279E+04  0.11595752003E+04  0.00000000000E+00 0. -1.
         -3    1    3    3    0  502  0.44854232361E+02 -0.92914603513E+01 -0.13141582404E+03  0.13917022743E+03  0.00000000000E+00 0.  1.
         11    1    5    5    0    0  0.57834580369E+01 -0.11963436583E+02  0.13489124813E+02  0.18934853841E+02  0.00000000000E+00 0.  1.
        -11    1    5    5    0    0  0.68490309745E+02  0.16263613907E+03  0.61912645896E+02  0.18701500470E+03  0.00000000000E+00 0. -1.
          1    1    6    6  503    0 -0.43500638129E+03 -0.28619919582E+03 -0.93110420067E+03  0.10668156185E+04  0.00000000000E+00 0. -1.
         -1    1    6    6    0  503 -0.29539410693E+02 -0.19836891122E+01 -0.92801176783E+02  0.97409292262E+02  0.00000000000E+00 0.  1.
<mgrwt>
<rscale>  0 0.15438521E+04</rscale>
<asrwt>0</asrwt>
<pdfrwt beam="1">  1        2 0.37276888E+00 0.15438521E+04</pdfrwt>
<pdfrwt beam="2">  1       -1 0.37834240E-01 0.15438521E+04</pdfrwt>
<totfact> 0.28572856E+01</totfact>
</mgrwt>
</event>
<event>
12    6  0.9533401E-008  0.1643498E+04  0.7818608E-02  0.8794262E-01
          2   -1    0    0  501    0  0.00000000000E+00  0.00000000000E+00  0.12056640477E+04  0.12056640477E+04  0.00000000000E+00 0. -1.
         -1   -1    0    0    0  501 -0.00000000000E+00 -0.00000000000E+00 -0.56008239512E+03  0.56008239512E+03  0.00000000000E+00 0.  1.
         24    2    1    2    0    0  0.27738299253E+03  0.39612376354E+03 -0.98035657766E+02  0.49990693946E+03  0.80253332224E+02 0.  0.
        254    2    1    2    0    0 -0.27738299253E+03 -0.39612376354E+03  0.74361731034E+03  0.12658395034E+04  0.90306565843E+03 0.  0.
         23    2    4    4    0    0  0.19517249630E+03  0.16400304904E+03  0.29888263457E+03  0.40322728839E+03  0.90951159697E+02 0.  0.
         23    2    4    4    0    0 -0.47255548883E+03 -0.56012681258E+03  0.44473467576E+03  0.86261221496E+03  0.96229753101E+02 0.  0.
          2    1    3    3  502    0  0.81975517082E+02  0.61810379217E+02 -0.13463141482E+02  0.10354595385E+03  0.00000000000E+00 0. -1.
         -1    1    3    3    0  502  0.19540747545E+03  0.33431338433E+03 -0.84572516284E+02  0.39636098561E+03  0.00000000000E+00 0.  1.
         11    1    5    5    0    0  0.77342447855E+02  0.89520513741E+02  0.76884023290E+02  0.14109191918E+03  0.00000000000E+00 0.  1.
        -11    1    5    5    0    0  0.11783004844E+03  0.74482535295E+02  0.22199861129E+03  0.26213536921E+03  0.00000000000E+00 0. -1.
          1    1    6    6  503    0 -0.20597523466E+02 -0.54452755278E+02  0.16479068352E+02  0.60505538788E+02  0.00000000000E+00 0. -1.
         -1    1    6    6    0  503 -0.45195796537E+03 -0.50567405730E+03  0.42825560741E+03  0.80210667617E+03  0.00000000000E+00 0.  1.
<mgrwt>
<rscale>  0 0.16434977E+04</rscale>
<asrwt>0</asrwt>
<pdfrwt beam="1">  1        2 0.18548678E+00 0.16434977E+04</pdfrwt>
<pdfrwt beam="2">  1       -1 0.86166523E-01 0.16434977E+04</pdfrwt>
<totfact> 0.27224119E+01</totfact>
</mgrwt>
</event>
<event>
12    6  0.9533401E-008  0.1584718E+04  0.7818608E-02  0.8829992E-01
          2   -1    0    0  501    0  0.00000000000E+00  0.00000000000E+00  0.29140057403E+03  0.29140057403E+03  0.00000000000E+00 0. -1.
         -1   -1    0    0    0  501 -0.00000000000E+00 -0.00000000000E+00 -0.21545345526E+04  0.21545345526E+04  0.00000000000E+00 0.  1.
         24    2    1    2    0    0 -0.22857356392E+03  0.42515231325E+03 -0.10046843682E+04  0.11174692962E+04  0.79665455655E+02 0.  0.
        254    2    1    2    0    0  0.22857356392E+03 -0.42515231325E+03 -0.85844961036E+03  0.13284658303E+04  0.89156343874E+03 0.  0.
         23    2    4    4    0    0 -0.92544185982E+02  0.80934630032E+02 -0.67922588682E+03  0.69637543712E+03  0.92065755797E+02 0.  0.
         23    2    4    4    0    0  0.32111774990E+03 -0.50608694329E+03 -0.17922372353E+03  0.63209039323E+03  0.90424104479E+02 0.  0.
          4    1    3    3  502    0 -0.14545567331E+03  0.25204839973E+03 -0.68951301150E+03  0.74840760401E+03  0.00000000000E+00 0. -1.
         -3    1    3    3    0  502 -0.83117890608E+02  0.17310391352E+03 -0.31517135666E+03  0.36906169224E+03  0.00000000000E+00 0.  1.
         11    1    5    5    0    0 -0.20823007514E+02 -0.17594355995E+02 -0.20215542737E+03  0.20398523432E+03  0.00000000000E+00 0. -1.
        -11    1    5    5    0    0 -0.71721178468E+02  0.98528986027E+02 -0.47707045945E+03  0.49239020279E+03  0.00000000000E+00 0.  1.
          4    1    6    6  503    0  0.41373511484E+02 -0.79777272041E+02 -0.61150637315E+02  0.10869949876E+03  0.00000000000E+00 0. -1.
         -4    1    6    6    0  503  0.27974423842E+03 -0.42630967124E+03 -0.11807308622E+03  0.52339089447E+03  0.00000000000E+00 0.  1.
<mgrwt>
<rscale>  0 0.15847178E+04</rscale>
<asrwt>0</asrwt>
<pdfrwt beam="1">  1        2 0.44830858E-01 0.15847178E+04</pdfrwt>
<pdfrwt beam="2">  1       -1 0.33146685E+00 0.15847178E+04</pdfrwt>
<totfact> 0.25754895E+00</totfact>
</mgrwt>
</event>
<event>
12    6  0.9533401E-008  0.2651875E+04  0.7818608E-02  0.8350791E-01
         -1   -1    0    0    0  501 -0.00000000000E+00  0.00000000000E+00  0.14837639152E+04  0.14837639152E+04  0.00000000000E+00 0.  1.
          2   -1    0    0  501    0  0.00000000000E+00 -0.00000000000E+00 -0.11848990823E+04  0.11848990823E+04  0.00000000000E+00 0. -1.
         24    2    1    2    0    0  0.85164194555E+03 -0.58202784789E+03  0.68904234790E+03  0.12428774651E+04  0.76906546051E+02 0.  0.
        254    2    1    2    0    0 -0.85164194555E+03  0.58202784789E+03 -0.39017751500E+03  0.14257855325E+04  0.90364565637E+03 0.  0.
         23    2    4    4    0    0 -0.99821958939E+03  0.44513788509E+03 -0.46620723381E+03  0.11912434068E+04  0.84389477699E+02 0.  0.
         23    2    4    4    0    0  0.14657764385E+03  0.13688996280E+03  0.76029718804E+02  0.23454212570E+03  0.94897960960E+02 0.  0.
          4    1    3    3  502    0  0.36338219425E+03 -0.22399580268E+03  0.32372845035E+03  0.53574326713E+03  0.00000000000E+00 0. -1.
         -3    1    3    3    0  502  0.48825975130E+03 -0.35803204520E+03  0.36531389756E+03  0.70713419793E+03  0.00000000000E+00 0.  1.
         11    1    5    5    0    0 -0.33574484222E+03  0.19377503787E+03 -0.16180197492E+03  0.42006338029E+03  0.00000000000E+00 0. -1.
        -11    1    5    5    0    0 -0.66247474717E+03  0.25136284722E+03 -0.30440525889E+03  0.77118002648E+03  0.00000000000E+00 0.  1.
          2    1    6    6  503    0  0.34329538454E+02  0.13578741477E+02 -0.20134319572E+02  0.42051043449E+02  0.00000000000E+00 0. -1.
         -2    1    6    6    0  503  0.11224810539E+03  0.12331122132E+03  0.96164038376E+02  0.19249108225E+03  0.00000000000E+00 0.  1.
<mgrwt>
<rscale>  0 0.26518752E+04</rscale>
<asrwt>0</asrwt>
<pdfrwt beam="1">  1        2 0.18229217E+00 0.26518752E+04</pdfrwt>
<pdfrwt beam="2">  1       -1 0.22827137E+00 0.26518752E+04</pdfrwt>
<totfact> 0.18813710E+00</totfact>
</mgrwt>
</event>
<event>
12    6  0.9680987E-008  0.1980382E+04  0.7818608E-02  0.8615848E-01
          2   -1    0    0  501    0  0.00000000000E+00  0.00000000000E+00  0.20208135611E+04  0.20208135611E+04  0.00000000000E+00 0. -1.
         -1   -1    0    0    0  501 -0.00000000000E+00 -0.00000000000E+00 -0.48518978798E+03  0.48518978798E+03  0.00000000000E+00 0.  1.
         24    2    1    2    0    0  0.78705094538E+03  0.56485136169E+02  0.54424268632E+03  0.96184806804E+03  0.79447109096E+02 0.  0.
        254    2    1    2    0    0 -0.78705094538E+03 -0.56485136169E+02  0.99138108678E+03  0.15441552810E+04  0.88257538568E+03 0.  0.
         23    2    4    4    0    0 -0.34365553773E+03 -0.45456603671E+03  0.42153942099E+03  0.71460801489E+03  0.90772909739E+02 0.  0.
         23    2    4    4    0    0 -0.44339540765E+03  0.39808090055E+03  0.56984166579E+03  0.82954726612E+03  0.91439880594E+02 0.  0.
          2    1    3    3  502    0  0.29210374784E+03  0.20326365003E+02  0.15610236247E+03  0.33182180186E+03  0.00000000000E+00 0. -1.
         -1    1    3    3    0  502  0.49494719754E+03  0.36158771166E+02  0.38814032384E+03  0.63002626618E+03  0.00000000000E+00 0.  1.
         11    1    5    5    0    0 -0.79859307576E+02 -0.86629615622E+02  0.13329905794E+03  0.17790682437E+03  0.00000000000E+00 0. -1.
        -11    1    5    5    0    0 -0.26379623016E+03 -0.36793642109E+03  0.28824036305E+03  0.53670119052E+03  0.00000000000E+00 0.  1.
          2    1    6    6  503    0 -0.24766189048E+03  0.23594665087E+03  0.26534509554E+03  0.43291483433E+03  0.00000000000E+00 0. -1.
         -2    1    6    6    0  503 -0.19573351717E+03  0.16213424967E+03  0.30449657024E+03  0.39663243180E+03  0.00000000000E+00 0.  1.
<mgrwt>
<rscale>  0 0.19803819E+04</rscale>
<asrwt>0</asrwt>
<pdfrwt beam="1">  1        2 0.31089439E+00 0.19803819E+04</pdfrwt>
<pdfrwt beam="2">  1       -1 0.74644584E-01 0.19803819E+04</pdfrwt>
<totfact> 0.12445283E+01</totfact>
</mgrwt>
</event>
<event>
12    6  0.9533401E-008  0.1701260E+04  0.7818608E-02  0.8760646E-01
         -1   -1    0    0    0  501 -0.00000000000E+00  0.00000000000E+00  0.68012528417E+03  0.68012528417E+03  0.00000000000E+00 0.  1.
          2   -1    0    0  501    0  0.00000000000E+00 -0.00000000000E+00 -0.10638797484E+04  0.10638797484E+04  0.00000000000E+00 0. -1.
         24    2    1    2    0    0 -0.30917254647E+03  0.44162352497E+02 -0.67968244811E+03  0.75222474184E+03  0.79598084773E+02 0.  0.
        254    2    1    2    0    0  0.30917254647E+03 -0.44162352497E+02  0.29592798390E+03  0.99178029072E+03  0.89359767039E+03 0.  0.
         23    2    4    4    0    0  0.49037244368E+03  0.27291581758E+03  0.20870001814E+03  0.60532044831E+03  0.88932393242E+02 0.  0.
         23    2    4    4    0    0 -0.18119989722E+03 -0.31707817008E+03  0.87227965762E+02  0.38645984240E+03  0.91490562833E+02 0.  0.
          4    1    3    3  502    0 -0.27180483562E+03  0.63767850878E+02 -0.56986968524E+03  0.63458306440E+03  0.00000000000E+00 0. -1.
         -3    1    3    3    0  502 -0.37367710844E+02 -0.19605498381E+02 -0.10981276288E+03  0.11764167744E+03  0.00000000000E+00 0.  1.
         11    1    5    5    0    0  0.30222416139E+03  0.19987283664E+03  0.16817043797E+03  0.39946200165E+03  0.00000000000E+00 0.  1.
        -11    1    5    5    0    0  0.18814828229E+03  0.73042980936E+02  0.40529580165E+02  0.20585844666E+03  0.00000000000E+00 0. -1.
          3    1    6    6  503    0 -0.35561508486E+02 -0.10960336558E+02  0.42388163087E+01  0.37452869409E+02  0.00000000000E+00 0. -1.
         -3    1    6    6    0  503 -0.14563838873E+03 -0.30611783352E+03  0.82989149454E+02  0.34900697299E+03  0.00000000000E+00 0.  1.
<mgrwt>
<rscale>  0 0.17012601E+04</rscale>
<asrwt>0</asrwt>
<pdfrwt beam="1">  1        2 0.16367381E+00 0.17012601E+04</pdfrwt>
<pdfrwt beam="2">  1       -1 0.10463466E+00 0.17012601E+04</pdfrwt>
<totfact> 0.21376121E+01</totfact>
</mgrwt>
</event>
<event>
12    6  0.9533401E-008  0.2053337E+04  0.7818608E-02  0.8582082E-01
          2   -1    0    0  501    0  0.00000000000E+00  0.00000000000E+00  0.26839158011E+04  0.26839158011E+04  0.00000000000E+00 0. -1.
         -1   -1    0    0    0  501 -0.00000000000E+00 -0.00000000000E+00 -0.39272777812E+03  0.39272777812E+03  0.00000000000E+00 0.  1.
         24    2    1    2    0    0  0.22291593148E+02 -0.12640973473E+03  0.21750070247E+04  0.21805734177E+04  0.88139300462E+02 0.  0.
        254    2    1    2    0    0 -0.22291593148E+02  0.12640973473E+03  0.11618099824E+03  0.89607016150E+03  0.87918563103E+03 0.  0.
         23    2    4    4    0    0 -0.33182274413E+03 -0.55981765219E+01 -0.22267849011E+03  0.40984817794E+03  0.90841322629E+02 0.  0.
         23    2    4    4    0    0  0.30953115098E+03  0.13200791126E+03  0.33885948835E+03  0.48622198356E+03  0.91380755021E+02 0.  0.
          2    1    3    3  502    0  0.39197947712E+02 -0.72505370068E+02  0.17346981757E+04  0.17366551956E+04  0.00000000000E+00 0. -1.
         -1    1    3    3    0  502 -0.16906354564E+02 -0.53904364667E+02  0.44030884906E+03  0.44391822210E+03  0.00000000000E+00 0.  1.
         11    1    5    5    0    0 -0.33407973469E+03 -0.62035299841E+01 -0.20498985080E+03  0.39200585690E+03  0.00000000000E+00 0. -1.
        -11    1    5    5    0    0  0.22569905591E+01  0.60535346217E+00 -0.17688639312E+02  0.17842321035E+02  0.00000000000E+00 0.  1.
          4    1    6    6  503    0  0.19548470772E+03  0.11956185868E+03  0.18621185897E+03  0.29526964867E+03  0.00000000000E+00 0. -1.
         -4    1    6    6    0  503  0.11404644326E+03  0.12446052581E+02  0.15264762938E+03  0.19095233489E+03  0.00000000000E+00 0.  1.
<mgrwt>
<rscale>  0 0.20533371E+04</rscale>
<asrwt>0</asrwt>
<pdfrwt beam="1">  1        2 0.41291011E+00 0.20533371E+04</pdfrwt>
<pdfrwt beam="2">  1       -1 0.60419660E-01 0.20533371E+04</pdfrwt>
<totfact> 0.79469002E+00</totfact>
</mgrwt>
</event>
<event>
12    6  0.9533401E-008  0.2088195E+04  0.7818608E-02  0.8566461E-01
          2   -1    0    0  501    0  0.00000000000E+00  0.00000000000E+00  0.12072864637E+04  0.12072864637E+04  0.00000000000E+00 0. -1.
         -1   -1    0    0    0  501 -0.00000000000E+00 -0.00000000000E+00 -0.90296713940E+03  0.90296713940E+03  0.00000000000E+00 0.  1.
         24    2    1    2    0    0 -0.24399213082E+03 -0.73947008591E+03 -0.21891056558E+03  0.81280992663E+03  0.79937308245E+02 0.  0.
        254    2    1    2    0    0  0.24399213082E+03  0.73947008591E+03  0.52322988984E+03  0.12974436764E+04  0.89623791933E+03 0.  0.
         23    2    4    4    0    0 -0.28363896273E+03  0.49682878396E+03  0.37737065426E+03  0.69154196628E+03  0.92367627849E+02 0.  0.
         23    2    4    4    0    0  0.52763109355E+03  0.24264130194E+03  0.14585923558E+03  0.60590171015E+03  0.92588300936E+02 0.  0.
          4    1    3    3  502    0 -0.39979016339E+02 -0.59381370882E+02 -0.75123984036E+01  0.71978504326E+02  0.00000000000E+00 0. -1.
         -3    1    3    3    0  502 -0.20401311448E+03 -0.68008871502E+03 -0.21139816717E+03  0.74083142230E+03  0.00000000000E+00 0.  1.
         11    1    5    5    0    0 -0.87893907366E+02  0.13129734040E+03  0.58563287754E+02  0.16850516081E+03  0.00000000000E+00 0.  1.
        -11    1    5    5    0    0 -0.19574505537E+03  0.36553144357E+03  0.31880736651E+03  0.52303680547E+03  0.00000000000E+00 0. -1.
          4    1    6    6  503    0  0.51896686786E+03  0.24476865817E+03  0.13097962027E+03  0.58855243342E+03  0.00000000000E+00 0. -1.
         -4    1    6    6    0  503  0.86642256923E+01 -0.21273562264E+01  0.14879615311E+02  0.17349276733E+02  0.00000000000E+00 0.  1.
<mgrwt>
<rscale>  0 0.20881954E+04</rscale>
<asrwt>0</asrwt>
<pdfrwt beam="1">  1        2 0.18573638E+00 0.20881954E+04</pdfrwt>
<pdfrwt beam="2">  1       -1 0.13891802E+00 0.20881954E+04</pdfrwt>
<totfact> 0.84359364E+00</totfact>
</mgrwt>
</event>
<event>
12    6  0.9533401E-008  0.1240874E+04  0.7818608E-02  0.9077813E-01
          2   -1    0    0  501    0  0.00000000000E+00  0.00000000000E+00  0.98782281172E+03  0.98782281172E+03  0.00000000000E+00 0. -1.
         -1   -1    0    0    0  501 -0.00000000000E+00 -0.00000000000E+00 -0.38968746762E+03  0.38968746762E+03  0.00000000000E+00 0.  1.
         24    2    1    2    0    0  0.15678195699E+03  0.93704567000E+02 -0.11016170399E+03  0.22546714155E+03  0.73066428527E+02 0.  0.
        254    2    1    2    0    0 -0.15678195699E+03 -0.93704567000E+02  0.70829704810E+03  0.11520431378E+04  0.89003233372E+03 0.  0.
         23    2    4    4    0    0 -0.24347940656E+03 -0.42656898574E+03  0.21726191665E+03  0.54588351193E+03  0.97686985611E+02 0.  0.
         23    2    4    4    0    0  0.86697449568E+02  0.33286441874E+03  0.49103513145E+03  0.60615962586E+03  0.89436137444E+02 0.  0.
          4    1    3    3  502    0 -0.16344008133E+01  0.23174351884E+02 -0.10934874526E+02  0.25676707970E+02  0.00000000000E+00 0. -1.
         -3    1    3    3    0  502  0.15841635780E+03  0.70530215116E+02 -0.99226829467E+02  0.19979043358E+03  0.00000000000E+00 0.  1.
         11    1    5    5    0    0 -0.18422727633E+03 -0.38955902180E+03  0.18692520510E+03  0.46972007953E+03  0.00000000000E+00 0.  1.
        -11    1    5    5    0    0 -0.59252130229E+02 -0.37009963935E+02  0.30336711552E+02  0.76163432401E+02  0.00000000000E+00 0. -1.
          2    1    6    6  503    0  0.57510783053E+02  0.78831932384E+02  0.16655799024E+03  0.19303763323E+03  0.00000000000E+00 0. -1.
         -2    1    6    6    0  503  0.29186666515E+02  0.25403248635E+03  0.32447714121E+03  0.41312199263E+03  0.00000000000E+00 0.  1.
<mgrwt>
<rscale>  0 0.12408742E+04</rscale>
<asrwt>0</asrwt>
<pdfrwt beam="1">  1        2 0.15197274E+00 0.12408742E+04</pdfrwt>
<pdfrwt beam="2">  1       -1 0.59951918E-01 0.12408742E+04</pdfrwt>
<totfact> 0.81230269E+01</totfact>
</mgrwt>
</event>
<event>
12    6  0.9533401E-008  0.4497802E+04  0.7818608E-02  0.7911022E-01
          2   -1    0    0  501    0  0.00000000000E+00  0.00000000000E+00  0.31844467506E+04  0.31844467506E+04  0.00000000000E+00 0. -1.
         -1   -1    0    0    0  501 -0.00000000000E+00 -0.00000000000E+00 -0.15882054322E+04  0.15882054322E+04  0.00000000000E+00 0.  1.
         24    2    1    2    0    0  0.11830699291E+04  0.94307152726E+03 -0.86774784058E+03  0.17460142496E+04  0.80876957741E+02 0.  0.
        254    2    1    2    0    0 -0.11830699291E+04 -0.94307152726E+03  0.24639891590E+04  0.30266379332E+04  0.89457042238E+03 0.  0.
         23    2    4    4    0    0 -0.77671808214E+03 -0.53780552609E+03  0.21864176755E+04  0.23832502742E+04  0.83269771098E+02 0.  0.
         23    2    4    4    0    0 -0.40635184697E+03 -0.40526600117E+03  0.27757148350E+03  0.64338765903E+03  0.86829695998E+02 0.  0.
          2    1    3    3  502    0  0.11382249817E+03  0.62990222362E+02 -0.81896594813E+02  0.15372176633E+03  0.00000000000E+00 0. -1.
         -1    1    3    3    0  502  0.10692474309E+04  0.88008130490E+03 -0.78585124577E+03  0.15922924833E+04  0.00000000000E+00 0.  1.
         11    1    5    5    0    0 -0.18639061076E+03 -0.12327690264E+03  0.60974658237E+03  0.64940707512E+03  0.00000000000E+00 0.  1.
        -11    1    5    5    0    0 -0.59032747138E+03 -0.41452862345E+03  0.15766710931E+04  0.17338431991E+04  0.00000000000E+00 0. -1.
          2    1    6    6  503    0 -0.13613195304E+03 -0.12253542758E+03  0.45887087609E+02  0.18881860200E+03  0.00000000000E+00 0. -1.
         -2    1    6    6    0  503 -0.27021989393E+03 -0.28273057359E+03  0.23168439589E+03  0.45456905703E+03  0.00000000000E+00 0.  1.
<mgrwt>
<rscale>  0 0.44978020E+04</rscale>
<asrwt>0</asrwt>
<pdfrwt beam="1">  1        2 0.48991488E+00 0.44978020E+04</pdfrwt>
<pdfrwt beam="2">  1       -1 0.24433930E+00 0.44978020E+04</pdfrwt>
<totfact> 0.86664109E-02</totfact>
</mgrwt>
</event>
<event>
12    6  0.9533401E-008  0.1857169E+04  0.7818608E-02  0.8676475E-01
         -1   -1    0    0    0  501 -0.00000000000E+00  0.00000000000E+00  0.28029898169E+03  0.28029898169E+03  0.00000000000E+00 0.  1.
          2   -1    0    0  501    0  0.00000000000E+00 -0.00000000000E+00 -0.30762487377E+04  0.30762487377E+04  0.00000000000E+00 0. -1.
         24    2    1    2    0    0 -0.21298030306E+03 -0.49598477850E+03 -0.24375776378E+03  0.59758373468E+03  0.79542206083E+02 0.  0.
        254    2    1    2    0    0  0.21298030306E+03  0.49598477850E+03 -0.25521919922E+04  0.27589639847E+04  0.89824094417E+03 0.  0.
         23    2    4    4    0    0  0.39078238184E+03  0.42589075879E+03 -0.78363995639E+03  0.97783077232E+03  0.89261580051E+02 0.  0.
         23    2    4    4    0    0 -0.17780207878E+03  0.70094019710E+02 -0.17685520358E+04  0.17811332124E+04  0.90180186409E+02 0.  0.
          2    1    3    3  502    0 -0.60203154109E+02 -0.21870333839E+03 -0.75558788183E+02  0.23909140608E+03  0.00000000000E+00 0. -1.
         -1    1    3    3    0  502 -0.15277714896E+03 -0.27728144011E+03 -0.16819897560E+03  0.35849232860E+03  0.00000000000E+00 0.  1.
         11    1    5    5    0    0  0.26813292106E+03  0.30962587565E+03 -0.61636329927E+03  0.74004537895E+03  0.00000000000E+00 0.  1.
        -11    1    5    5    0    0  0.12264946078E+03  0.11626488314E+03 -0.16727665712E+03  0.23778539337E+03  0.00000000000E+00 0. -1.
          2    1    6    6  503    0 -0.11357012661E+03  0.86927609715E+02 -0.13132218096E+04  0.13209867919E+04  0.00000000000E+00 0. -1.
         -2    1    6    6    0  503 -0.64231952166E+02 -0.16833590005E+02 -0.45533022621E+03  0.46014642053E+03  0.00000000000E+00 0.  1.
<mgrwt>
<rscale>  0 0.18571692E+04</rscale>
<asrwt>0</asrwt>
<pdfrwt beam="1">  1        2 0.47326907E+00 0.18571692E+04</pdfrwt>
<pdfrwt beam="2">  1       -1 0.43122918E-01 0.18571692E+04</pdfrwt>
<totfact> 0.88736421E+00</totfact>
</mgrwt>
</event>
<event>
12    6  0.9533401E-008  0.2040756E+04  0.7818608E-02  0.8587799E-01
         -1   -1    0    0    0  501 -0.00000000000E+00  0.00000000000E+00  0.95997175695E+03  0.95997175695E+03  0.00000000000E+00 0.  1.
          2   -1    0    0  501    0  0.00000000000E+00 -0.00000000000E+00 -0.10845853702E+04  0.10845853702E+04  0.00000000000E+00 0. -1.
         24    2    1    2    0    0  0.31206400163E+03  0.23111917443E+03 -0.77227623190E+03  0.86746387011E+03  0.72684067641E+02 0.  0.
        254    2    1    2    0    0 -0.31206400163E+03 -0.23111917443E+03  0.64766261866E+03  0.11770932570E+04  0.90292948464E+03 0.  0.
         23    2    4    4    0    0 -0.24594288569E+03 -0.56301982664E+03  0.32541918902E+03  0.70121761697E+03  0.91264831923E+02 0.  0.
         23    2    4    4    0    0 -0.66121115939E+02  0.33190065221E+03  0.32224342964E+03  0.47587564007E+03  0.89926369619E+02 0.  0.
          2    1    3    3  502    0  0.74757730349E+02  0.96979913389E+02 -0.23446311028E+03  0.26451232850E+03  0.00000000000E+00 0. -1.
         -1    1    3    3    0  502  0.23730627128E+03  0.13413926104E+03 -0.53781312162E+03  0.60295154161E+03  0.00000000000E+00 0.  1.
         11    1    5    5    0    0 -0.86198840369E+02 -0.10409134485E+03  0.74503464815E+02  0.15432438052E+03  0.00000000000E+00 0. -1.
        -11    1    5    5    0    0 -0.15974404532E+03 -0.45892848179E+03  0.25091572421E+03  0.54689323644E+03  0.00000000000E+00 0.  1.
          2    1    6    6  503    0 -0.63182189961E+01  0.92525077269E+02  0.40022262898E+02  0.10100787763E+03  0.00000000000E+00 0. -1.
         -2    1    6    6    0  503 -0.59802896943E+02  0.23937557494E+03  0.28222116674E+03  0.37486776244E+03  0.00000000000E+00 0.  1.
<mgrwt>
<rscale>  0 0.20407561E+04</rscale>
<asrwt>0</asrwt>
<pdfrwt beam="1">  1        2 0.16685929E+00 0.20407561E+04</pdfrwt>
<pdfrwt beam="2">  1       -1 0.14768796E+00 0.20407561E+04</pdfrwt>
<totfact> 0.85565084E+00</totfact>
</mgrwt>
</event>
<event>
12    6  0.9533401E-008  0.1108544E+04  0.7818608E-02  0.9196904E-01
          2   -1    0    0  501    0  0.00000000000E+00  0.00000000000E+00  0.33406418913E+04  0.33406418913E+04  0.00000000000E+00 0. -1.
         -1   -1    0    0    0  501 -0.00000000000E+00 -0.00000000000E+00 -0.91963574767E+02  0.91963574767E+02  0.00000000000E+00 0.  1.
         24    2    1    2    0    0 -0.76345723977E+02  0.15331166291E+03  0.46833916229E+03  0.50494044140E+03  0.79310420981E+02 0.  0.
        254    2    1    2    0    0  0.76345723977E+02 -0.15331166291E+03  0.27803391543E+04  0.29276650247E+04  0.90089041979E+03 0.  0.
         23    2    4    4    0    0  0.70010466401E+02  0.35813646881E+03  0.86650570923E+03  0.94462578113E+03  0.91227882453E+02 0.  0.
         23    2    4    4    0    0  0.63352575764E+01 -0.51144813173E+03  0.19138334450E+04  0.19830392436E+04  0.89815695867E+02 0.  0.
          4    1    3    3  502    0 -0.23736864720E+02  0.81915974722E+02  0.32817506151E+03  0.33907600425E+03  0.00000000000E+00 0. -1.
         -3    1    3    3    0  502 -0.52608859258E+02  0.71395688191E+02  0.14016410077E+03  0.16586443715E+03  0.00000000000E+00 0.  1.
         11    1    5    5    0    0  0.45700839478E+01  0.25121835481E+02  0.19412621860E+02  0.32075569717E+02  0.00000000000E+00 0.  1.
        -11    1    5    5    0    0  0.65440382453E+02  0.33301463333E+03  0.84709308737E+03  0.91255021141E+03  0.00000000000E+00 0. -1.
          4    1    6    6  503    0 -0.25107052592E+01 -0.20507933179E+03  0.60577372359E+03  0.63955112396E+03  0.00000000000E+00 0. -1.
         -4    1    6    6    0  503  0.88459628356E+01 -0.30636879994E+03  0.13080597214E+04  0.13434881196E+04  0.00000000000E+00 0.  1.
<mgrwt>
<rscale>  0 0.11085439E+04</rscale>
<asrwt>0</asrwt>
<pdfrwt beam="1">  1        2 0.51394481E+00 0.11085439E+04</pdfrwt>
<pdfrwt beam="2">  1       -1 0.14148245E-01 0.11085439E+04</pdfrwt>
<totfact> 0.43947714E+01</totfact>
</mgrwt>
</event>
<event>
12    6  0.9533401E-008  0.2119880E+04  0.7818608E-02  0.8552536E-01
          2   -1    0    0  501    0  0.00000000000E+00  0.00000000000E+00  0.32592713702E+04  0.32592713702E+04  0.00000000000E+00 0. -1.
         -1   -1    0    0    0  501 -0.00000000000E+00 -0.00000000000E+00 -0.34470076212E+03  0.34470076212E+03  0.00000000000E+00 0.  1.
         24    2    1    2    0    0 -0.10249135602E+03 -0.20204634627E+03  0.26539690074E+04  0.26648001698E+04  0.79254329160E+02 0.  0.
        254    2    1    2    0    0  0.10249135602E+03  0.20204634627E+03  0.26060160069E+03  0.93917196252E+03  0.87338627010E+03 0.  0.
         23    2    4    4    0    0  0.47420145201E+03  0.17302028806E+03  0.20233642543E+03  0.55150931249E+03  0.91757591189E+02 0.  0.
         23    2    4    4    0    0 -0.37171009599E+03  0.29026058212E+02  0.58265175262E+02  0.38766265002E+03  0.88750166513E+02 0.  0.
          4    1    3    3  502    0 -0.18949978030E+02 -0.89911904759E+02  0.73076442320E+03  0.73651876724E+03  0.00000000000E+00 0. -1.
         -3    1    3    3    0  502 -0.83541377992E+02 -0.11213444151E+03  0.19232045842E+04  0.19282814026E+04  0.00000000000E+00 0.  1.
         11    1    5    5    0    0  0.90962644856E+02 -0.26791660587E+00  0.20246771031E+02  0.93189088823E+02  0.00000000000E+00 0. -1.
        -11    1    5    5    0    0  0.38323880716E+03  0.17328820466E+03  0.18208965440E+03  0.45832022367E+03  0.00000000000E+00 0.  1.
          1    1    6    6  503    0 -0.13780275406E+03  0.53858471169E+02  0.26438504046E+02  0.15029746651E+03  0.00000000000E+00 0. -1.
         -1    1    6    6    0  503 -0.23390734194E+03 -0.24832412956E+02  0.31826671216E+02  0.23736518352E+03  0.00000000000E+00 0.  1.
<mgrwt>
<rscale>  0 0.21198805E+04</rscale>
<asrwt>0</asrwt>
<pdfrwt beam="1">  1        2 0.50142634E+00 0.21198805E+04</pdfrwt>
<pdfrwt beam="2">  1       -1 0.53030889E-01 0.21198805E+04</pdfrwt>
<totfact> 0.44632548E+00</totfact>
</mgrwt>
</event>
<event>
12    6  0.9533401E-008  0.2623058E+04  0.7818608E-02  0.8360411E-01
         -3   -1    0    0    0  501 -0.00000000000E+00  0.00000000000E+00  0.89358047765E+03  0.89358047765E+03  0.00000000000E+00 0.  1.
          2   -1    0    0  501    0  0.00000000000E+00 -0.00000000000E+00 -0.19249618186E+04  0.19249618186E+04  0.00000000000E+00 0. -1.
         24    2    1    2    0    0 -0.31116458633E+03 -0.40751616802E+02  0.73787452810E+03  0.80623987151E+03  0.84141649232E+02 0.  0.
        254    2    1    2    0    0  0.31116458633E+03  0.40751616802E+02 -0.17692558690E+04  0.20123024247E+04  0.90587561200E+03 0.  0.
         23    2    4    4    0    0  0.52656959233E+03  0.65032083017E+02 -0.54773453763E+03  0.76823121796E+03  0.93066498454E+02 0.  0.
         23    2    4    4    0    0 -0.21540500600E+03 -0.24280466215E+02 -0.12215213314E+04  0.12440712068E+04  0.92789799085E+02 0.  0.
          4    1    3    3  502    0 -0.16561970162E+03 -0.24498402384E+02  0.28799307786E+03  0.33312170476E+03  0.00000000000E+00 0. -1.
         -3    1    3    3    0  502 -0.14554488472E+03 -0.16253214418E+02  0.44988145024E+03  0.47311816675E+03  0.00000000000E+00 0.  1.
         11    1    5    5    0    0  0.24942472319E+03  0.50242522847E+01 -0.31198685019E+03  0.39946680756E+03  0.00000000000E+00 0. -1.
        -11    1    5    5    0    0  0.27714486914E+03  0.60007830732E+02 -0.23574768744E+03  0.36876441040E+03  0.00000000000E+00 0.  1.
          1    1    6    6  503    0 -0.21521318665E+03 -0.12331017975E+02 -0.10372745832E+04  0.10594372707E+04  0.00000000000E+00 0. -1.
         -1    1    6    6    0  503 -0.19181934760E+00 -0.11949448240E+02 -0.18424674823E+03  0.18463393605E+03  0.00000000000E+00 0.  1.
<mgrwt>
<rscale>  0 0.26230580E+04</rscale>
<asrwt>0</asrwt>
<pdfrwt beam="1">  1        2 0.29614797E+00 0.26230580E+04</pdfrwt>
<pdfrwt beam="2">  1       -3 0.13747392E+00 0.26230580E+04</pdfrwt>
<totfact> 0.16646321E+00</totfact>
</mgrwt>
</event>
<event>
12    6  0.9533401E-008  0.2305947E+04  0.7818608E-02  0.8475580E-01
          2   -1    0    0  501    0  0.00000000000E+00  0.00000000000E+00  0.34528223895E+04  0.34528223895E+04  0.00000000000E+00 0. -1.
         -1   -1    0    0    0  501 -0.00000000000E+00 -0.00000000000E+00 -0.38500318189E+03  0.38500318189E+03  0.00000000000E+00 0.  1.
         24    2    1    2    0    0 -0.13776968308E+03  0.26944481994E+03 -0.24036876395E+03  0.39472738450E+03  0.80321658510E+02 0.  0.
        254    2    1    2    0    0  0.13776968308E+03 -0.26944481994E+03  0.33081879716E+04  0.34430981869E+04  0.90511682826E+03 0.  0.
         23    2    4    4    0    0 -0.33820233154E+03 -0.40232935718E+02  0.19734853558E+04  0.20048418291E+04  0.93524348430E+02 0.  0.
         23    2    4    4    0    0  0.47597201462E+03 -0.22921188422E+03  0.13347026158E+04  0.14382563579E+04  0.89793272565E+02 0.  0.
          2    1    3    3  502    0 -0.60957617561E+02  0.17041358764E+03 -0.10087255434E+03  0.20720013082E+03  0.00000000000E+00 0. -1.
         -1    1    3    3    0  502 -0.76812065518E+02  0.99031232298E+02 -0.13949620961E+03  0.18752725369E+03  0.00000000000E+00 0.  1.
         11    1    5    5    0    0 -0.47474429853E+02  0.15893925684E+02  0.17025664443E+03  0.17746482282E+03  0.00000000000E+00 0. -1.
        -11    1    5    5    0    0 -0.29072790168E+03 -0.56126861402E+02  0.18032287114E+04  0.18273770063E+04  0.00000000000E+00 0.  1.
          3    1    6    6  503    0  0.27101801773E+03 -0.17513745503E+03  0.85226124724E+03  0.91130298344E+03  0.00000000000E+00 0. -1.
         -3    1    6    6    0  503  0.20495399689E+03 -0.54074429195E+02  0.48244136853E+03  0.52695337441E+03  0.00000000000E+00 0.  1.
<mgrwt>
<rscale>  0 0.23059468E+04</rscale>
<asrwt>0</asrwt>
<pdfrwt beam="1">  1        2 0.53120342E+00 0.23059468E+04</pdfrwt>
<pdfrwt beam="2">  1       -1 0.59231261E-01 0.23059468E+04</pdfrwt>
<totfact> 0.26182337E+00</totfact>
</mgrwt>
</event>
<event>
12    6  0.9533401E-008  0.1175538E+04  0.7818608E-02  0.9134541E-01
         -1   -1    0    0    0  501 -0.00000000000E+00  0.00000000000E+00  0.46684440054E+03  0.46684440054E+03  0.00000000000E+00 0.  1.
          2   -1    0    0  501    0  0.00000000000E+00 -0.00000000000E+00 -0.74001668327E+03  0.74001668327E+03  0.00000000000E+00 0. -1.
         24    2    1    2    0    0  0.19232299178E+03  0.25247540231E+02  0.72634661433E+02  0.22110989661E+03  0.77383595693E+02 0.  0.
        254    2    1    2    0    0 -0.19232299178E+03 -0.25247540231E+02 -0.34580694416E+03  0.98575118720E+03  0.90249509084E+03 0.  0.
         23    2    4    4    0    0 -0.35838553249E+03 -0.10209622659E+01  0.19097392610E+03  0.41599168965E+03  0.90204285613E+02 0.  0.
         23    2    4    4    0    0  0.16606254071E+03 -0.24226577965E+02 -0.53678087026E+03  0.56975949756E+03  0.91260549363E+02 0.  0.
          2    1    3    3  502    0  0.13033362664E+01  0.15383055054E+02  0.14541583696E+02  0.21208364496E+02  0.00000000000E+00 0. -1.
         -1    1    3    3    0  502  0.19101965551E+03  0.98644851766E+01  0.58093077737E+02  0.19990153211E+03  0.00000000000E+00 0.  1.
         11    1    5    5    0    0 -0.12214736560E+03 -0.22258537746E+02  0.25409797421E+02  0.12673231329E+03  0.00000000000E+00 0.  1.
        -11    1    5    5    0    0 -0.23623816689E+03  0.21237575480E+02  0.16556412868E+03  0.28925937636E+03  0.00000000000E+00 0. -1.
          4    1    6    6  503    0  0.32034025009E+02 -0.25202484642E+02 -0.24878878243E+03  0.25210553793E+03  0.00000000000E+00 0. -1.
         -4    1    6    6    0  503  0.13402851570E+03  0.97590667683E+00 -0.28799208783E+03  0.31765395963E+03  0.00000000000E+00 0.  1.
<mgrwt>
<rscale>  0 0.11755384E+04</rscale>
<asrwt>0</asrwt>
<pdfrwt beam="1">  1        2 0.11384872E+00 0.11755384E+04</pdfrwt>
<pdfrwt beam="2">  1       -1 0.71822216E-01 0.11755384E+04</pdfrwt>
<totfact> 0.84289493E+01</totfact>
</mgrwt>
</event>
<event>
12    6  0.9533401E-008  0.1583736E+04  0.7818608E-02  0.8830602E-01
         -1   -1    0    0    0  501 -0.00000000000E+00  0.00000000000E+00  0.45580864135E+03  0.45580864135E+03  0.00000000000E+00 0.  1.
          2   -1    0    0  501    0  0.00000000000E+00 -0.00000000000E+00 -0.13756981600E+04  0.13756981600E+04  0.00000000000E+00 0. -1.
         24    2    1    2    0    0  0.17713943303E+03 -0.37996612123E+03  0.68155054532E+02  0.43211586922E+03  0.79538550158E+02 0.  0.
        254    2    1    2    0    0 -0.17713943303E+03  0.37996612123E+03 -0.98804457318E+03  0.13993909321E+04  0.89794781046E+03 0.  0.
         23    2    4    4    0    0  0.21599461840E+03  0.25330738937E+03 -0.90652456109E+03  0.97002306325E+03  0.91321709814E+02 0.  0.
         23    2    4    4    0    0 -0.39313405143E+03  0.12665873186E+03 -0.81520012088E+02  0.42936786888E+03  0.84347126240E+02 0.  0.
          2    1    3    3  502    0  0.86686739037E+02 -0.18289012463E+03  0.73172920528E+02  0.21521539144E+03  0.00000000000E+00 0. -1.
         -1    1    3    3    0  502  0.90452693996E+02 -0.19707599660E+03 -0.50178659955E+01  0.21690047779E+03  0.00000000000E+00 0.  1.
         11    1    5    5    0    0  0.16249404579E+03  0.23896355736E+03 -0.78392378295E+03  0.83549051110E+03  0.00000000000E+00 0. -1.
        -11    1    5    5    0    0  0.53500572609E+02  0.14343832005E+02 -0.12260077814E+03  0.13453255215E+03  0.00000000000E+00 0.  1.
          3    1    6    6  503    0 -0.38837699916E+03  0.11558079999E+03 -0.89412521222E+02  0.41495808674E+03  0.00000000000E+00 0. -1.
         -3    1    6    6    0  503 -0.47570522727E+01  0.11077931870E+02  0.78925091337E+01  0.14409782138E+02  0.00000000000E+00 0.  1.
<mgrwt>
<rscale>  0 0.15837362E+04</rscale>
<asrwt>0</asrwt>
<pdfrwt beam="1">  1        2 0.21164587E+00 0.15837362E+04</pdfrwt>
<pdfrwt beam="2">  1       -1 0.70124406E-01 0.15837362E+04</pdfrwt>
<totfact> 0.33616928E+01</totfact>
</mgrwt>
</event>
<event>
12    6  0.9533401E-008  0.1266829E+04  0.7818608E-02  0.9056292E-01
          2   -1    0    0  501    0  0.00000000000E+00  0.00000000000E+00  0.10759305999E+04  0.10759305999E+04  0.00000000000E+00 0. -1.
         -1   -1    0    0    0  501 -0.00000000000E+00 -0.00000000000E+00 -0.37289917006E+03  0.37289917006E+03  0.00000000000E+00 0.  1.
         24    2    1    2    0    0 -0.15393851900E+03 -0.26016835001E+03  0.18833997044E+03  0.36456035413E+03  0.77766762575E+02 0.  0.
        254    2    1    2    0    0  0.15393851900E+03  0.26016835001E+03  0.51469145936E+03  0.10842694158E+04  0.90517856233E+03 0.  0.
         23    2    4    4    0    0 -0.20753291384E+03  0.31375011143E+03 -0.64684060947E+02  0.39293521311E+03  0.93300649538E+02 0.  0.
         23    2    4    4    0    0  0.36147143284E+03 -0.53581761420E+02  0.57937552031E+03  0.69133420269E+03  0.93457928257E+02 0.  0.
          4    1    3    3  502    0 -0.12056498253E+03 -0.21088259271E+03  0.18427231423E+03  0.30489944033E+03  0.00000000000E+00 0. -1.
         -3    1    3    3    0  502 -0.33373536467E+02 -0.49285757301E+02  0.40676562106E+01  0.59660913805E+02  0.00000000000E+00 0.  1.
         11    1    5    5    0    0 -0.19222672797E+03  0.24453442093E+03 -0.78308832456E+02  0.32074985769E+03  0.00000000000E+00 0. -1.
        -11    1    5    5    0    0 -0.15306185871E+02  0.69215690506E+02  0.13624771509E+02  0.72185355418E+02  0.00000000000E+00 0.  1.
          2    1    6    6  503    0  0.34044448690E+03 -0.54332159058E+02  0.57407071262E+03  0.66963543459E+03  0.00000000000E+00 0. -1.
         -2    1    6    6    0  503  0.21026945941E+02  0.75039763746E+00  0.53048076831E+01  0.21698768093E+02  0.00000000000E+00 0.  1.
<mgrwt>
<rscale>  0 0.12668285E+04</rscale>
<asrwt>0</asrwt>
<pdfrwt beam="1">  1        2 0.16552778E+00 0.12668285E+04</pdfrwt>
<pdfrwt beam="2">  1       -1 0.57369104E-01 0.12668285E+04</pdfrwt>
<totfact> 0.77730777E+01</totfact>
</mgrwt>
</event>
<event>
12    6  0.9533401E-008  0.2317968E+04  0.7818608E-02  0.8470870E-01
          2   -1    0    0  501    0  0.00000000000E+00  0.00000000000E+00  0.10273335560E+04  0.10273335560E+04  0.00000000000E+00 0. -1.
         -1   -1    0    0    0  501 -0.00000000000E+00 -0.00000000000E+00 -0.13075047257E+04  0.13075047257E+04  0.00000000000E+00 0.  1.
         24    2    1    2    0    0 -0.51015954466E+03  0.27829770628E+03  0.67420752877E+03  0.89265585008E+03  0.67574407215E+02 0.  0.
        254    2    1    2    0    0  0.51015954466E+03 -0.27829770628E+03 -0.95437869844E+03  0.14421824317E+04  0.91177798385E+03 0.  0.
         23    2    4    4    0    0  0.68826884905E+03 -0.48019475560E+02 -0.89133226040E+03  0.11308195384E+04  0.90883174580E+02 0.  0.
         23    2    4    4    0    0 -0.17810930439E+03 -0.23027823072E+03 -0.63046438042E+02  0.31136289325E+03  0.90669785955E+02 0.  0.
          2    1    3    3  502    0 -0.33425915083E+03  0.20194758253E+03  0.49183872863E+03  0.62802654481E+03  0.00000000000E+00 0. -1.
         -1    1    3    3    0  502 -0.17590039383E+03  0.76350123754E+02  0.18236880014E+03  0.26462930527E+03  0.00000000000E+00 0.  1.
         11    1    5    5    0    0  0.15913066431E+03 -0.12217957403E+02 -0.27272765828E+03  0.31599402272E+03  0.00000000000E+00 0. -1.
        -11    1    5    5    0    0  0.52913818475E+03 -0.35801518157E+02 -0.61860460212E+03  0.81482551569E+03  0.00000000000E+00 0.  1.
          1    1    6    6  503    0 -0.12020673626E+03 -0.11915565636E+03  0.38909460871E+01  0.16930112033E+03  0.00000000000E+00 0. -1.
         -1    1    6    6    0  503 -0.57902568136E+02 -0.11112257436E+03 -0.66937384129E+02  0.14206177291E+03  0.00000000000E+00 0.  1.
<mgrwt>
<rscale>  0 0.23179676E+04</rscale>
<asrwt>0</asrwt>
<pdfrwt beam="1">  1        2 0.15805132E+00 0.23179676E+04</pdfrwt>
<pdfrwt beam="2">  1       -1 0.20115457E+00 0.23179676E+04</pdfrwt>
<totfact> 0.36904335E+00</totfact>
</mgrwt>
</event>
<event>
12    6  0.9533401E-008  0.1176751E+04  0.7818608E-02  0.9133453E-01
         -3   -1    0    0    0  501 -0.00000000000E+00  0.00000000000E+00  0.16151597727E+04  0.16151597727E+04  0.00000000000E+00 0.  1.
          4   -1    0    0  501    0  0.00000000000E+00 -0.00000000000E+00 -0.21433532846E+03  0.21433532846E+03  0.00000000000E+00 0. -1.
         24    2    1    2    0    0  0.68754277749E+02 -0.21770499567E+03  0.14328622965E+03  0.28114684515E+03  0.79937407287E+02 0.  0.
        254    2    1    2    0    0 -0.68754277749E+02  0.21770499567E+03  0.12575382146E+04  0.15483482560E+04  0.87398932768E+03 0.  0.
         23    2    4    4    0    0 -0.44861616975E+03  0.23550138698E+02  0.53593661505E+03  0.70508763236E+03  0.90052413390E+02 0.  0.
         23    2    4    4    0    0  0.37986189200E+03  0.19415485697E+03  0.72160159954E+03  0.84326062366E+03  0.91588457095E+02 0.  0.
          4    1    3    3  502    0  0.57864325775E+02 -0.18878742830E+03  0.15183727131E+03  0.24908538745E+03  0.00000000000E+00 0. -1.
         -3    1    3    3    0  502  0.10889951975E+02 -0.28917567367E+02 -0.85510416618E+01  0.32061457702E+02  0.00000000000E+00 0.  1.
         11    1    5    5    0    0 -0.30560650325E+03  0.87567857174E+01  0.42473887604E+03  0.52333080260E+03  0.00000000000E+00 0.  1.
        -11    1    5    5    0    0 -0.14300966649E+03  0.14793352980E+02  0.11119773902E+03  0.18175682976E+03  0.00000000000E+00 0. -1.
          1    1    6    6  503    0  0.10355286913E+03  0.86819501998E+02  0.28664212735E+03  0.31689829883E+03  0.00000000000E+00 0. -1.
         -1    1    6    6    0  503  0.27630902287E+03  0.10733535498E+03  0.43495947219E+03  0.52636232482E+03  0.00000000000E+00 0.  1.
<mgrwt>
<rscale>  0 0.11767511E+04</rscale>
<asrwt>0</asrwt>
<pdfrwt beam="1">  1        4 0.32974667E-01 0.11767511E+04</pdfrwt>
<pdfrwt beam="2">  1       -3 0.24848611E+00 0.11767511E+04</pdfrwt>
<totfact> 0.15186553E+00</totfact>
</mgrwt>
</event>
<event>
12    6  0.9533401E-008  0.1470993E+04  0.7818608E-02  0.8903975E-01
          2   -1    0    0  501    0  0.00000000000E+00  0.00000000000E+00  0.19295320760E+04  0.19295320760E+04  0.00000000000E+00 0. -1.
         -1   -1    0    0    0  501 -0.00000000000E+00 -0.00000000000E+00 -0.28035554403E+03  0.28035554403E+03  0.00000000000E+00 0.  1.
         24    2    1    2    0    0  0.37768534853E+03  0.24766597185E+03  0.40722714033E+03  0.61327803914E+03  0.79318051940E+02 0.  0.
        254    2    1    2    0    0 -0.37768534853E+03 -0.24766597185E+03  0.12419493916E+04  0.15966095809E+04  0.89595714533E+03 0.  0.
         23    2    4    4    0    0 -0.37825928247E+03 -0.49537310215E+03  0.48466692137E+03  0.79464493915E+03  0.89910842238E+02 0.  0.
         23    2    4    4    0    0  0.57393393186E+00  0.24770713030E+03  0.75728247023E+03  0.80196464170E+03  0.91166852605E+02 0.  0.
          2    1    3    3  502    0  0.13250443601E+03  0.11418582980E+03  0.11613320736E+03  0.20995892727E+03  0.00000000000E+00 0. -1.
         -1    1    3    3    0  502  0.24518091253E+03  0.13348014205E+03  0.29109393297E+03  0.40331911187E+03  0.00000000000E+00 0.  1.
         11    1    5    5    0    0 -0.15072338111E+02 -0.61771388606E+01  0.29482806880E+00  0.16291695560E+02  0.00000000000E+00 0.  1.
        -11    1    5    5    0    0 -0.36318694436E+03 -0.48919596329E+03  0.48437209330E+03  0.77835324359E+03  0.00000000000E+00 0. -1.
          3    1    6    6  503    0 -0.26750691678E+02  0.22633646169E+03  0.62680107496E+03  0.66695080850E+03  0.00000000000E+00 0. -1.
         -3    1    6    6    0  503  0.27324625610E+02  0.21370668611E+02  0.13048139527E+03  0.13501383319E+03  0.00000000000E+00 0.  1.
<mgrwt>
<rscale>  0 0.14709929E+04</rscale>
<asrwt>0</asrwt>
<pdfrwt beam="1">  1        2 0.29685108E+00 0.14709929E+04</pdfrwt>
<pdfrwt beam="2">  1       -1 0.43131623E-01 0.14709929E+04</pdfrwt>
<totfact> 0.42757534E+01</totfact>
</mgrwt>
</event>
<event>
12    6  0.9533401E-008  0.2804982E+04  0.7818608E-02  0.8301723E-01
         -1   -1    0    0    0  501 -0.00000000000E+00  0.00000000000E+00  0.12584685136E+04  0.12584685136E+04  0.00000000000E+00 0.  1.
          2   -1    0    0  501    0  0.00000000000E+00 -0.00000000000E+00 -0.15629954397E+04  0.15629954397E+04  0.00000000000E+00 0. -1.
         24    2    1    2    0    0 -0.26106542583E+02  0.20322668340E+03 -0.13868638684E+04  0.14041442495E+04  0.79038265458E+02 0.  0.
        254    2    1    2    0    0  0.26106542583E+02 -0.20322668340E+03  0.10823369423E+04  0.14173197039E+04  0.89182915958E+03 0.  0.
         23    2    4    4    0    0  0.44219472774E+03 -0.18529171865E+03  0.59802948218E+03  0.77177507385E+03  0.90157111864E+02 0.  0.
         23    2    4    4    0    0 -0.41608818516E+03 -0.17934964754E+02  0.48430746011E+03  0.64554463000E+03  0.93397605013E+02 0.  0.
          4    1    3    3  502    0 -0.30556689533E+02  0.18412138586E+03 -0.13452850388E+04  0.13581701777E+04  0.00000000000E+00 0. -1.
         -3    1    3    3    0  502  0.44501469507E+01  0.19105297549E+02 -0.41578829601E+02  0.45974071750E+02  0.00000000000E+00 0.  1.
         11    1    5    5    0    0  0.16108825702E+03 -0.10385127946E+03  0.19227589272E+03  0.27148578916E+03  0.00000000000E+00 0.  1.
        -11    1    5    5    0    0  0.28110647072E+03 -0.81440439195E+02  0.40575358946E+03  0.50028928469E+03  0.00000000000E+00 0. -1.
          2    1    6    6  503    0 -0.34911972999E+03 -0.49483586566E+02  0.40727637357E+03  0.53870887840E+03  0.00000000000E+00 0. -1.
         -2    1    6    6    0  503 -0.66968455169E+02  0.31548621812E+02  0.77031086541E+02  0.10683575160E+03  0.00000000000E+00 0.  1.
<mgrwt>
<rscale>  0 0.28049817E+04</rscale>
<asrwt>0</asrwt>
<pdfrwt beam="1">  1        2 0.24046084E+00 0.28049817E+04</pdfrwt>
<pdfrwt beam="2">  1       -1 0.19361054E+00 0.28049817E+04</pdfrwt>
<totfact> 0.19313179E+00</totfact>
</mgrwt>
</event>
<event>
12    6  0.9533401E-008  0.1934001E+04  0.7818608E-02  0.8638114E-01
          2   -1    0    0  501    0  0.00000000000E+00  0.00000000000E+00  0.17798938203E+04  0.17798938203E+04  0.00000000000E+00 0. -1.
         -1   -1    0    0    0  501 -0.00000000000E+00 -0.00000000000E+00 -0.52536297132E+03  0.52536297132E+03  0.00000000000E+00 0.  1.
         24    2    1    2    0    0  0.54671589361E+03  0.30433690476E+03  0.93269028562E+03  0.11261375100E+04  0.82190648087E+02 0.  0.
        254    2    1    2    0    0 -0.54671589361E+03 -0.30433690476E+03  0.32184056338E+03  0.11791192816E+04  0.94616156768E+03 0.  0.
         23    2    4    4    0    0 -0.48828023233E+03 -0.60927869229E+03  0.33633366749E+03  0.85532774836E+03  0.93952706479E+02 0.  0.
         23    2    4    4    0    0 -0.58435661288E+02  0.30494178754E+03 -0.14493104110E+02  0.32379153328E+03  0.90701084133E+02 0.  0.
          4    1    3    3  502    0  0.54744477609E+03  0.30466344410E+03  0.93396333889E+03  0.11246346586E+04  0.00000000000E+00 0. -1.
         -3    1    3    3    0  502 -0.72888247273E+00 -0.32653934219E+00 -0.12730532688E+01  0.15028513653E+01  0.00000000000E+00 0.  1.
         11    1    5    5    0    0 -0.31936205904E+03 -0.46484060499E+03  0.23257558373E+03  0.61004943648E+03  0.00000000000E+00 0. -1.
        -11    1    5    5    0    0 -0.16891817329E+03 -0.14443808730E+03  0.10375808377E+03  0.24527831188E+03  0.00000000000E+00 0.  1.
          1    1    6    6  503    0 -0.53178995486E+02  0.31093991991E+03 -0.13376315418E+02  0.31573812752E+03  0.00000000000E+00 0. -1.
         -1    1    6    6    0  503 -0.52566658019E+01 -0.59981323774E+01 -0.11167886917E+01  0.80534057610E+01  0.00000000000E+00 0.  1.
<mgrwt>
<rscale>  0 0.19340014E+04</rscale>
<asrwt>0</asrwt>
<pdfrwt beam="1">  1        2 0.27382982E+00 0.19340014E+04</pdfrwt>
<pdfrwt beam="2">  1       -1 0.80825073E-01 0.19340014E+04</pdfrwt>
<totfact> 0.14371498E+01</totfact>
</mgrwt>
</event>
<event>
12    6  0.9533401E-008  0.3011001E+04  0.7818608E-02  0.8240596E-01
         -1   -1    0    0    0  501 -0.00000000000E+00  0.00000000000E+00  0.31730263837E+04  0.31730263837E+04  0.00000000000E+00 0.  1.
          2   -1    0    0  501    0  0.00000000000E+00 -0.00000000000E+00 -0.71431224451E+03  0.71431224451E+03  0.00000000000E+00 0. -1.
         24    2    1    2    0    0 -0.31599684920E+03  0.77690822856E+03  0.25130804770E+04  0.26505279676E+04  0.79275586519E+02 0.  0.
        254    2    1    2    0    0  0.31599684920E+03 -0.77690822856E+03 -0.54366337844E+02  0.12368106606E+04  0.90736128814E+03 0.  0.
         23    2    4    4    0    0  0.62294076071E+03 -0.43508269898E+03  0.88216445850E+00  0.76537298788E+03  0.91885178622E+02 0.  0.
         23    2    4    4    0    0 -0.30694391151E+03 -0.34182552958E+03 -0.55248502302E+02  0.47143767274E+03  0.90232060768E+02 0.  0.
          2    1    3    3  502    0 -0.11621916451E+03  0.24039378074E+03  0.90550989222E+03  0.94405732290E+03  0.00000000000E+00 0. -1.
         -1    1    3    3    0  502 -0.19977768469E+03  0.53651444782E+03  0.16075705848E+04  0.17064706447E+04  0.00000000000E+00 0.  1.
         11    1    5    5    0    0  0.55870809655E+03 -0.41942661493E+03  0.95935486372E+01  0.69868838450E+03  0.00000000000E+00 0.  1.
        -11    1    5    5    0    0  0.64232664162E+02 -0.15656084051E+02 -0.87113841787E+01  0.66684603376E+02  0.00000000000E+00 0. -1.
          4    1    6    6  503    0 -0.12214632929E+03 -0.75518905028E+02 -0.75703781243E+01  0.14380591574E+03  0.00000000000E+00 0. -1.
         -4    1    6    6    0  503 -0.18479758221E+03 -0.26630662455E+03 -0.47678124178E+02  0.32763175700E+03  0.00000000000E+00 0.  1.
<mgrwt>
<rscale>  0 0.30110009E+04</rscale>
<asrwt>0</asrwt>
<pdfrwt beam="1">  1        2 0.10989419E+00 0.30110009E+04</pdfrwt>
<pdfrwt beam="2">  1       -1 0.48815790E+00 0.30110009E+04</pdfrwt>
<totfact> 0.69216795E-02</totfact>
</mgrwt>
</event>
<event>
12    6  0.9533401E-008  0.2324609E+04  0.7818608E-02  0.8468281E-01
         -1   -1    0    0    0  501 -0.00000000000E+00  0.00000000000E+00  0.39722811873E+03  0.39722811873E+03  0.00000000000E+00 0.  1.
          2   -1    0    0  501    0  0.00000000000E+00 -0.00000000000E+00 -0.34009459231E+04  0.34009459231E+04  0.00000000000E+00 0. -1.
         24    2    1    2    0    0  0.90763552109E+03 -0.29684279322E+03 -0.16567159375E+04  0.19138713377E+04  0.79233304999E+02 0.  0.
        254    2    1    2    0    0 -0.90763552109E+03  0.29684279322E+03 -0.13470018669E+04  0.18843027042E+04  0.90789028437E+03 0.  0.
         23    2    4    4    0    0  0.91197908994E+02 -0.11713819964E+03 -0.42830237273E+03  0.46259040377E+03  0.92241762526E+02 0.  0.
         23    2    4    4    0    0 -0.99883343008E+03  0.41398099286E+03 -0.91869949417E+03  0.14217123004E+04  0.90601440388E+02 0.  0.
          2    1    3    3  502    0  0.68664403390E+03 -0.21092076607E+03 -0.11798034121E+04  0.13812688696E+04  0.00000000000E+00 0. -1.
         -1    1    3    3    0  502  0.22099148719E+03 -0.85922027147E+02 -0.47691252533E+03  0.53260246805E+03  0.00000000000E+00 0.  1.
         11    1    5    5    0    0 -0.49857818147E+01  0.10070374435E+02 -0.62994585635E+02  0.63988969994E+02  0.00000000000E+00 0. -1.
        -11    1    5    5    0    0  0.96183690809E+02 -0.12720857407E+03 -0.36530778709E+03  0.39860143377E+03  0.00000000000E+00 0.  1.
          4    1    6    6  503    0 -0.35166549001E+03  0.10413141395E+03 -0.28615813430E+03  0.46518646376E+03  0.00000000000E+00 0. -1.
         -4    1    6    6    0  503 -0.64716794007E+03  0.30984957891E+03 -0.63254135987E+03  0.95652583663E+03  0.00000000000E+00 0.  1.
<mgrwt>
<rscale>  0 0.23246087E+04</rscale>
<asrwt>0</asrwt>
<pdfrwt beam="1">  1        2 0.52322246E+00 0.23246087E+04</pdfrwt>
<pdfrwt beam="2">  1       -1 0.61112017E-01 0.23246087E+04</pdfrwt>
<totfact> 0.26664632E+00</totfact>
</mgrwt>
</event>
<event>
12    6  0.9533401E-008  0.1534865E+04  0.7818608E-02  0.8861594E-01
         -1   -1    0    0    0  501 -0.00000000000E+00  0.00000000000E+00  0.57866258081E+03  0.57866258081E+03  0.00000000000E+00 0.  1.
          2   -1    0    0  501    0  0.00000000000E+00 -0.00000000000E+00 -0.10177819357E+04  0.10177819357E+04  0.00000000000E+00 0. -1.
         24    2    1    2    0    0  0.23923768049E+03 -0.34707060732E+03  0.14260401248E+03  0.45207925334E+03  0.79668517533E+02 0.  0.
        254    2    1    2    0    0 -0.23923768049E+03  0.34707060732E+03 -0.58172336742E+03  0.11443652632E+04  0.89077331865E+03 0.  0.
         23    2    4    4    0    0 -0.48327612791E+03  0.16385767787E+03 -0.63663445409E+03  0.82098161368E+03  0.91116559777E+02 0.  0.
         23    2    4    4    0    0  0.24403844742E+03  0.18321292945E+03  0.54911086678E+02  0.32338364953E+03  0.91869559746E+02 0.  0.
          4    1    3    3  502    0  0.44408277849E+02 -0.30887412007E+02  0.38432639272E+02  0.66356575586E+02  0.00000000000E+00 0. -1.
         -3    1    3    3    0  502  0.19482940264E+03 -0.31618319531E+03  0.10417137321E+03  0.38572267775E+03  0.00000000000E+00 0.  1.
         11    1    5    5    0    0 -0.77636214373E+02  0.56334431557E+02 -0.87322977379E+02  0.12971604503E+03  0.00000000000E+00 0. -1.
        -11    1    5    5    0    0 -0.40563991354E+03  0.10752324631E+03 -0.54931147671E+03  0.69126556865E+03  0.00000000000E+00 0.  1.
          1    1    6    6  503    0  0.21432266036E+01 -0.81844156670E+01  0.74947957808E+01  0.11302656497E+02  0.00000000000E+00 0. -1.
         -1    1    6    6    0  503  0.24189522081E+03  0.19139734512E+03  0.47416290898E+02  0.31208099303E+03  0.00000000000E+00 0.  1.
<mgrwt>
<rscale>  0 0.15348646E+04</rscale>
<asrwt>0</asrwt>
<pdfrwt beam="1">  1        2 0.15658184E+00 0.15348646E+04</pdfrwt>
<pdfrwt beam="2">  1       -1 0.89025012E-01 0.15348646E+04</pdfrwt>
<totfact> 0.33384691E+01</totfact>
</mgrwt>
</event>
<event>
12    6  0.9533401E-008  0.1858855E+04  0.7818608E-02  0.8675613E-01
         -1   -1    0    0    0  501 -0.00000000000E+00  0.00000000000E+00  0.66202405931E+03  0.66202405931E+03  0.00000000000E+00 0.  1.
          2   -1    0    0  501    0  0.00000000000E+00 -0.00000000000E+00 -0.13048394066E+04  0.13048394066E+04  0.00000000000E+00 0. -1.
         24    2    1    2    0    0  0.29534207722E+03  0.50675396310E+03  0.17342646618E+03  0.61695712615E+03  0.80825952755E+02 0.  0.
        254    2    1    2    0    0 -0.29534207722E+03 -0.50675396310E+03 -0.81624181349E+03  0.13499063398E+04  0.90109372787E+03 0.  0.
         23    2    4    4    0    0 -0.18032541382E+03  0.15168913205E+03 -0.58423501247E+03  0.63646179546E+03  0.90698509524E+02 0.  0.
         23    2    4    4    0    0 -0.11501666340E+03 -0.65844309515E+03 -0.23200680101E+03  0.71344454432E+03  0.91650530249E+02 0.  0.
          4    1    3    3  502    0  0.20373478128E+03  0.31808431154E+03  0.14796606056E+03  0.40568392306E+03  0.00000000000E+00 0. -1.
         -3    1    3    3    0  502  0.91607295945E+02  0.18866965156E+03  0.25460405621E+02  0.21127320309E+03  0.00000000000E+00 0.  1.
         11    1    5    5    0    0  0.21732953963E+01 -0.24546463735E+01 -0.63084136061E+02  0.63169270411E+02  0.00000000000E+00 0. -1.
        -11    1    5    5    0    0 -0.18249870922E+03  0.15414377842E+03 -0.52115087641E+03  0.57329252505E+03  0.00000000000E+00 0.  1.
          4    1    6    6  503    0  0.15406300224E+02 -0.10109411101E+03 -0.35481488449E+02  0.10824190219E+03  0.00000000000E+00 0. -1.
         -4    1    6    6    0  503 -0.13042296362E+03 -0.55734898414E+03 -0.19652531257E+03  0.60520264213E+03  0.00000000000E+00 0.  1.
<mgrwt>
<rscale>  0 0.18588546E+04</rscale>
<asrwt>0</asrwt>
<pdfrwt beam="1">  1        2 0.20074452E+00 0.18588546E+04</pdfrwt>
<pdfrwt beam="2">  1       -1 0.10184986E+00 0.18588546E+04</pdfrwt>
<totfact> 0.16076175E+01</totfact>
</mgrwt>
</event>
<event>
12    6  0.9533401E-008  0.2570473E+04  0.7818608E-02  0.8378300E-01
         -1   -1    0    0    0  501 -0.00000000000E+00  0.00000000000E+00  0.13990185270E+04  0.13990185270E+04  0.00000000000E+00 0.  1.
          2   -1    0    0  501    0  0.00000000000E+00 -0.00000000000E+00 -0.11807086032E+04  0.11807086032E+04  0.00000000000E+00 0. -1.
         24    2    1    2    0    0 -0.71194466245E+02  0.10270499600E+04 -0.37690744025E+03  0.10992341515E+04  0.79725962087E+02 0.  0.
        254    2    1    2    0    0  0.71194466245E+02 -0.10270499600E+04  0.59521736406E+03  0.14804929787E+04  0.88185910270E+03 0.  0.
         23    2    4    4    0    0 -0.15467932572E+03 -0.72101239007E+03  0.75291558106E+03  0.10579829757E+04  0.93067417789E+02 0.  0.
         23    2    4    4    0    0  0.22587379197E+03 -0.30603756993E+03 -0.15769821700E+03  0.42251000294E+03  0.94699582033E+02 0.  0.
          4    1    3    3  502    0 -0.66450855845E+01  0.33040837707E+02  0.13509434093E+01  0.33729499950E+02  0.00000000000E+00 0. -1.
         -3    1    3    3    0  502 -0.64549380660E+02  0.99400912229E+03 -0.37825838366E+03  0.10655046516E+04  0.00000000000E+00 0.  1.
         11    1    5    5    0    0  0.67651006665E+01 -0.11360189185E+03  0.96672606954E+02  0.14932096087E+03  0.00000000000E+00 0. -1.
        -11    1    5    5    0    0 -0.16144442639E+03 -0.60741049822E+03  0.65624297410E+03  0.90866201484E+03  0.00000000000E+00 0.  1.
          4    1    6    6  503    0  0.40824111606E+02 -0.28612369345E+02  0.74027853678E+01  0.50399176572E+02  0.00000000000E+00 0. -1.
         -4    1    6    6    0  503  0.18504968036E+03 -0.27742520058E+03 -0.16510100236E+03  0.37211082637E+03  0.00000000000E+00 0.  1.
<mgrwt>
<rscale>  0 0.25704733E+04</rscale>
<asrwt>0</asrwt>
<pdfrwt beam="1">  1        2 0.18164748E+00 0.25704733E+04</pdfrwt>
<pdfrwt beam="2">  1       -1 0.21523362E+00 0.25704733E+04</pdfrwt>
<totfact> 0.23290995E+00</totfact>
</mgrwt>
</event>
<event>
12    6  0.9533401E-008  0.1410522E+04  0.7818608E-02  0.8946238E-01
         -1   -1    0    0    0  501 -0.00000000000E+00  0.00000000000E+00  0.27872116905E+03  0.27872116905E+03  0.00000000000E+00 0.  1.
          2   -1    0    0  501    0  0.00000000000E+00 -0.00000000000E+00 -0.17845533015E+04  0.17845533015E+04  0.00000000000E+00 0. -1.
         24    2    1    2    0    0  0.21773975432E+03 -0.20972701836E+03 -0.85780955753E+03  0.91297360302E+03  0.79294009672E+02 0.  0.
        254    2    1    2    0    0 -0.21773975432E+03  0.20972701836E+03 -0.64802257495E+03  0.11503008676E+04  0.90103429760E+03 0.  0.
         23    2    4    4    0    0 -0.50699640555E+03  0.25049847042E+03 -0.61869385819E+03  0.84290510753E+03  0.88949936550E+02 0.  0.
         23    2    4    4    0    0  0.28925665124E+03 -0.40771452068E+02 -0.29328716764E+02  0.30739576004E+03  0.91105752152E+02 0.  0.
          4    1    3    3  502    0  0.21695645765E+03 -0.20685297108E+03 -0.85897247462E+03  0.90977577914E+03  0.00000000000E+00 0. -1.
         -3    1    3    3    0  502  0.78329666374E+00 -0.28740472763E+01  0.11629170815E+01  0.31978238770E+01  0.00000000000E+00 0.  1.
         11    1    5    5    0    0 -0.23877293574E+03  0.16755986932E+03 -0.31670017838E+03  0.43056686778E+03  0.00000000000E+00 0.  1.
        -11    1    5    5    0    0 -0.26822346981E+03  0.82938601103E+02 -0.30199367981E+03  0.41233823975E+03  0.00000000000E+00 0. -1.
          4    1    6    6  503    0  0.27101856789E+03 -0.58652288181E+02 -0.14081897423E+02  0.27764987824E+03  0.00000000000E+00 0.  1.
         -4    1    6    6    0  503  0.18238083346E+02  0.17880836112E+02 -0.15246819340E+02  0.29745881802E+02  0.00000000000E+00 0. -1.
<mgrwt>
<rscale>  0 0.14105216E+04</rscale>
<asrwt>0</asrwt>
<pdfrwt beam="1">  1        2 0.27454667E+00 0.14105216E+04</pdfrwt>
<pdfrwt beam="2">  1       -1 0.42880179E-01 0.14105216E+04</pdfrwt>
<totfact> 0.52248746E+01</totfact>
</mgrwt>
</event>
<event>
12    6  0.9533401E-008  0.1377894E+04  0.7818608E-02  0.8969977E-01
         -1   -1    0    0    0  501 -0.00000000000E+00  0.00000000000E+00  0.14746946492E+04  0.14746946492E+04  0.00000000000E+00 0.  1.
          2   -1    0    0  501    0  0.00000000000E+00 -0.00000000000E+00 -0.32186182100E+03  0.32186182100E+03  0.00000000000E+00 0. -1.
         24    2    1    2    0    0 -0.26084192596E+03  0.23011525393E+03  0.54331399137E+03  0.65062037238E+03  0.84411108875E+02 0.  0.
        254    2    1    2    0    0  0.26084192596E+03 -0.23011525393E+03  0.60951883681E+03  0.11459360978E+04  0.90590550688E+03 0.  0.
         23    2    4    4    0    0  0.27117178774E+03  0.27608662020E+03  0.78040938411E+02  0.40632231282E+03  0.96174183172E+02 0.  0.
         23    2    4    4    0    0 -0.10329861782E+02 -0.50620187413E+03  0.53147789840E+03  0.73961378498E+03  0.90624229814E+02 0.  0.
          2    1    3    3  502    0 -0.23396628823E+03  0.22601242151E+03  0.46318983839E+03  0.56600942139E+03  0.00000000000E+00 0. -1.
         -1    1    3    3    0  502 -0.26875637730E+02  0.41028324187E+01  0.80124152979E+02  0.84610950993E+02  0.00000000000E+00 0.  1.
         11    1    5    5    0    0  0.20983201123E+03  0.22722627631E+03  0.22270766387E+02  0.31009230984E+03  0.00000000000E+00 0. -1.
        -11    1    5    5    0    0  0.61339776511E+02  0.48860343887E+02  0.55770172024E+02  0.96230002986E+02  0.00000000000E+00 0.  1.
          2    1    6    6  503    0 -0.25143866449E+02 -0.30671153301E+03  0.26304267340E+03  0.40484024817E+03  0.00000000000E+00 0.  1.
         -2    1    6    6    0  503  0.14814004667E+02 -0.19949034111E+03  0.26843522499E+03  0.33477353681E+03  0.00000000000E+00 0. -1.
<mgrwt>
<rscale>  0 0.13778939E+04</rscale>
<asrwt>0</asrwt>
<pdfrwt beam="1">  1        2 0.49517204E-01 0.13778939E+04</pdfrwt>
<pdfrwt beam="2">  1       -1 0.22687610E+00 0.13778939E+04</pdfrwt>
<totfact> 0.11222709E+01</totfact>
</mgrwt>
</event>
<event>
12    6  0.9533401E-008  0.2076125E+04  0.7818608E-02  0.8571834E-01
         -1   -1    0    0    0  501 -0.00000000000E+00  0.00000000000E+00  0.41533337958E+03  0.41533337958E+03  0.00000000000E+00 0.  1.
          2   -1    0    0  501    0  0.00000000000E+00 -0.00000000000E+00 -0.25944786768E+04  0.25944786768E+04  0.00000000000E+00 0. -1.
         24    2    1    2    0    0  0.46783710151E+03 -0.14979825805E+02  0.12399247276E+03  0.49059879824E+03  0.78848581520E+02 0.  0.
        254    2    1    2    0    0 -0.46783710151E+03  0.14979825805E+02 -0.23031377700E+04  0.25192132581E+04  0.90713609990E+03 0.  0.
         23    2    4    4    0    0  0.87822250959E+02 -0.17730605136E+02 -0.16559105433E+04  0.16607203876E+04  0.89024470271E+02 0.  0.
         23    2    4    4    0    0 -0.55565935247E+03  0.32710430941E+02 -0.64722722666E+03  0.85849287050E+03  0.90992513418E+02 0.  0.
          4    1    3    3  502    0  0.28132903136E+02  0.18206268317E+02  0.12516439019E+02  0.35771352932E+02  0.00000000000E+00 0. -1.
         -3    1    3    3    0  502  0.43970419837E+03 -0.33186094123E+02  0.11147603374E+03  0.45482744531E+03  0.00000000000E+00 0.  1.
         11    1    5    5    0    0  0.15023723953E+02 -0.31077681866E+02 -0.10089212377E+04  0.10095115643E+04  0.00000000000E+00 0.  1.
        -11    1    5    5    0    0  0.72798527006E+02  0.13347076730E+02 -0.64698930564E+03  0.65120882335E+03  0.00000000000E+00 0. -1.
          2    1    6    6  503    0 -0.19555907340E+03  0.34622324759E+02 -0.28808848258E+03  0.34991003180E+03  0.00000000000E+00 0. -1.
         -2    1    6    6    0  503 -0.36010027906E+03 -0.19118938179E+01 -0.35913874408E+03  0.50858283870E+03  0.00000000000E+00 0.  1.
<mgrwt>
<rscale>  0 0.20761248E+04</rscale>
<asrwt>0</asrwt>
<pdfrwt beam="1">  1        2 0.39915056E+00 0.20761248E+04</pdfrwt>
<pdfrwt beam="2">  1       -1 0.63897443E-01 0.20761248E+04</pdfrwt>
<totfact> 0.80080700E+00</totfact>
</mgrwt>
</event>
<event>
12    6  0.9533401E-008  0.1456479E+04  0.7818608E-02  0.8913921E-01
         -1   -1    0    0    0  501 -0.00000000000E+00  0.00000000000E+00  0.70926355167E+03  0.70926355167E+03  0.00000000000E+00 0.  1.
          2   -1    0    0  501    0  0.00000000000E+00 -0.00000000000E+00 -0.74772293562E+03  0.74772293562E+03  0.00000000000E+00 0. -1.
         24    2    1    2    0    0  0.28360146996E+03  0.41148236991E+02  0.33067470205E+03  0.44484910100E+03  0.80137337803E+02 0.  0.
        254    2    1    2    0    0 -0.28360146996E+03 -0.41148236991E+02 -0.36913408601E+03  0.10121373863E+04  0.89779682786E+03 0.  0.
         23    2    4    4    0    0 -0.33089949994E+03  0.36577283667E+03 -0.95233268253E+02  0.51082482901E+03  0.92673531512E+02 0.  0.
         23    2    4    4    0    0  0.47298029980E+02 -0.40692107367E+03 -0.27390081776E+03  0.50131255728E+03  0.92036722506E+02 0.  0.
          4    1    3    3  502    0  0.16305776828E+03  0.11718688978E+02  0.12980872753E+03  0.20874738133E+03  0.00000000000E+00 0. -1.
         -3    1    3    3    0  502  0.12054370168E+03  0.29429548013E+02  0.20086597452E+03  0.23610171967E+03  0.00000000000E+00 0.  1.
         11    1    5    5    0    0 -0.90076337124E+01  0.50425158988E+02 -0.11286458854E+02  0.52452056943E+02  0.00000000000E+00 0.  1.
        -11    1    5    5    0    0 -0.32189186623E+03  0.31534767769E+03 -0.83946809400E+02  0.45837277207E+03  0.00000000000E+00 0. -1.
          3    1    6    6  503    0  0.52198170340E+02 -0.40311479454E+03 -0.25133076863E+03  0.47790515986E+03  0.00000000000E+00 0. -1.
         -3    1    6    6    0  503 -0.49001403598E+01 -0.38062791256E+01 -0.22570049132E+02  0.23407397423E+02  0.00000000000E+00 0.  1.
<mgrwt>
<rscale>  0 0.14564788E+04</rscale>
<asrwt>0</asrwt>
<pdfrwt beam="1">  1        2 0.11503430E+00 0.14564788E+04</pdfrwt>
<pdfrwt beam="2">  1       -1 0.10911747E+00 0.14564788E+04</pdfrwt>
<totfact> 0.32428563E+01</totfact>
</mgrwt>
</event>
<event>
12    6  0.9533401E-008  0.1700695E+04  0.7818608E-02  0.8760968E-01
         -1   -1    0    0    0  501 -0.00000000000E+00  0.00000000000E+00  0.69184882289E+03  0.69184882289E+03  0.00000000000E+00 0.  1.
          2   -1    0    0  501    0  0.00000000000E+00 -0.00000000000E+00 -0.10451567222E+04  0.10451567222E+04  0.00000000000E+00 0. -1.
         24    2    1    2    0    0  0.43171880037E+03  0.38381746285E+03  0.62262848856E+02  0.58644938666E+03  0.79682202453E+02 0.  0.
        254    2    1    2    0    0 -0.43171880037E+03 -0.38381746285E+03 -0.41557074818E+03  0.11505561585E+04  0.90409261673E+03 0.  0.
         23    2    4    4    0    0 -0.37892097910E+03  0.16623774431E+03  0.45203836843E+02  0.42563889955E+03  0.88932502009E+02 0.  0.
         23    2    4    4    0    0 -0.52797821274E+02 -0.55005520716E+03 -0.46077458503E+03  0.72491725890E+03  0.88563385134E+02 0.  0.
          4    1    3    3  502    0  0.14118911650E+01 -0.18199487915E+01 -0.42259127102E+01  0.48128981393E+01  0.00000000000E+00 0. -1.
         -3    1    3    3    0  502  0.43030690921E+03  0.38563741164E+03  0.66488761566E+02  0.58163648852E+03  0.00000000000E+00 0.  1.
         11    1    5    5    0    0 -0.38384666126E+02  0.12632225882E+02 -0.22083959929E+02  0.46050591858E+02  0.00000000000E+00 0. -1.
        -11    1    5    5    0    0 -0.34053631297E+03  0.15360551843E+03  0.67287796772E+02  0.37958830770E+03  0.00000000000E+00 0.  1.
          2    1    6    6  503    0 -0.28646439513E+02 -0.14781800690E+03 -0.79960941867E+02  0.17048323638E+03  0.00000000000E+00 0. -1.
         -2    1    6    6    0  503 -0.24151381761E+02 -0.40223720026E+03 -0.38081364316E+03  0.55443402252E+03  0.00000000000E+00 0.  1.
<mgrwt>
<rscale>  0 0.17006945E+04</rscale>
<asrwt>0</asrwt>
<pdfrwt beam="1">  1        2 0.16079334E+00 0.17006945E+04</pdfrwt>
<pdfrwt beam="2">  1       -1 0.10643828E+00 0.17006945E+04</pdfrwt>
<totfact> 0.21105830E+01</totfact>
</mgrwt>
</event>
<event>
12    6  0.9533401E-008  0.1596998E+04  0.7818608E-02  0.8822394E-01
         -1   -1    0    0    0  501 -0.00000000000E+00  0.00000000000E+00  0.51190230543E+03  0.51190230543E+03  0.00000000000E+00 0.  1.
          2   -1    0    0  501    0  0.00000000000E+00 -0.00000000000E+00 -0.12455512607E+04  0.12455512607E+04  0.00000000000E+00 0. -1.
         24    2    1    2    0    0  0.90159850519E+01  0.34184127449E+03 -0.71479804501E+03  0.79613657610E+03  0.77204000698E+02 0.  0.
        254    2    1    2    0    0 -0.90159850519E+01 -0.34184127449E+03 -0.18850910243E+02  0.96131699001E+03  0.89824175673E+03 0.  0.
         23    2    4    4    0    0  0.25303981737E+03 -0.42462366220E+03 -0.27607719197E+03  0.57387609979E+03  0.93705700508E+02 0.  0.
         23    2    4    4    0    0 -0.26205580242E+03  0.82782387713E+02  0.25722628172E+03  0.38744089023E+03  0.91754651713E+02 0.  0.
          2    1    3    3  502    0  0.23787256244E+02  0.33176961299E+03 -0.68165503161E+03  0.75847906483E+03  0.00000000000E+00 0. -1.
         -1    1    3    3    0  502 -0.14771271192E+02  0.10071661498E+02 -0.33143013399E+02  0.37657511271E+02  0.00000000000E+00 0.  1.
         11    1    5    5    0    0  0.84194414325E+02 -0.20327438613E+03 -0.83352200595E+02  0.23528018362E+03  0.00000000000E+00 0.  1.
        -11    1    5    5    0    0  0.16884540305E+03 -0.22134927607E+03 -0.19272499137E+03  0.33859591617E+03  0.00000000000E+00 0. -1.
          1    1    6    6  503    0 -0.15872215644E+03  0.65510069636E+01  0.16709383521E+03  0.23055582491E+03  0.00000000000E+00 0. -1.
         -1    1    6    6    0  503 -0.10333364598E+03  0.76231380750E+02  0.90132446513E+02  0.15688506531E+03  0.00000000000E+00 0.  1.
<mgrwt>
<rscale>  0 0.15969979E+04</rscale>
<asrwt>0</asrwt>
<pdfrwt beam="1">  1        2 0.19162327E+00 0.15969979E+04</pdfrwt>
<pdfrwt beam="2">  1       -1 0.78754201E-01 0.15969979E+04</pdfrwt>
<totfact> 0.31389715E+01</totfact>
</mgrwt>
</event>
<event>
12    6  0.9533401E-008  0.2160398E+04  0.7818608E-02  0.8535094E-01
          2   -1    0    0  501    0  0.00000000000E+00  0.00000000000E+00  0.30279094368E+04  0.30279094368E+04  0.00000000000E+00 0. -1.
         -1   -1    0    0    0  501 -0.00000000000E+00 -0.00000000000E+00 -0.38535834338E+03  0.38535834338E+03  0.00000000000E+00 0.  1.
         24    2    1    2    0    0  0.48721168173E+03  0.25503234416E+03 -0.42417114073E+01  0.55561964118E+03  0.79236823289E+02 0.  0.
        254    2    1    2    0    0 -0.48721168173E+03 -0.25503234416E+03  0.26467928048E+04  0.28576481390E+04  0.92640380788E+03 0.  0.
         23    2    4    4    0    0 -0.32689698763E+03 -0.36056332916E+03  0.51108150659E+03  0.71142341153E+03  0.89729645237E+02 0.  0.
         23    2    4    4    0    0 -0.16031469410E+03  0.10553098500E+03  0.21357112982E+04  0.21462247274E+04  0.90444687293E+02 0.  0.
          4    1    3    3  502    0  0.25967445477E+02  0.29529552134E+02 -0.15006282708E+02  0.42089086406E+02  0.00000000000E+00 0. -1.
         -3    1    3    3    0  502  0.46124423626E+03  0.22550279202E+03  0.10764571300E+02  0.51353055477E+03  0.00000000000E+00 0.  1.
         11    1    5    5    0    0 -0.24193236493E+03 -0.26817795009E+03  0.31851361980E+03  0.48156163481E+03  0.00000000000E+00 0.  1.
        -11    1    5    5    0    0 -0.84964622699E+02 -0.92385379068E+02  0.19256788679E+03  0.22986177672E+03  0.00000000000E+00 0. -1.
          2    1    6    6  503    0 -0.36123199037E+02  0.31029635901E+02  0.22245054640E+03  0.22749059190E+03  0.00000000000E+00 0. -1.
         -2    1    6    6    0  503 -0.12419149506E+03  0.74501349100E+02  0.19132607518E+04  0.19187341355E+04  0.00000000000E+00 0.  1.
<mgrwt>
<rscale>  0 0.21603983E+04</rscale>
<asrwt>0</asrwt>
<pdfrwt beam="1">  1        2 0.46583221E+00 0.21603983E+04</pdfrwt>
<pdfrwt beam="2">  1       -1 0.59285901E-01 0.21603983E+04</pdfrwt>
<totfact> 0.50403296E+00</totfact>
</mgrwt>
</event>
<event>
12    6  0.9533401E-008  0.1728131E+04  0.7818608E-02  0.8745481E-01
          2   -1    0    0  501    0  0.00000000000E+00  0.00000000000E+00  0.12504414143E+04  0.12504414143E+04  0.00000000000E+00 0. -1.
         -1   -1    0    0    0  501 -0.00000000000E+00 -0.00000000000E+00 -0.59707644095E+03  0.59707644095E+03  0.00000000000E+00 0.  1.
         24    2    1    2    0    0  0.57781887205E+03  0.78604569963E+02 -0.70193900398E+01  0.58711763090E+03  0.67856564649E+02 0.  0.
        254    2    1    2    0    0 -0.57781887205E+03 -0.78604569963E+02  0.66038436336E+03  0.12604002243E+04  0.90135891339E+03 0.  0.
         23    2    4    4    0    0 -0.52314731527E+03 -0.17267741921E+03 -0.26479997526E+02  0.55900287899E+03  0.91007823170E+02 0.  0.
         23    2    4    4    0    0 -0.54671556782E+02  0.94072849242E+02  0.68686436088E+03  0.70139734531E+03  0.91306657357E+02 0.  0.
          2    1    3    3  502    0  0.91692464369E+02  0.11270256444E+02 -0.26037710957E+02  0.95981712291E+02  0.00000000000E+00 0. -1.
         -1    1    3    3    0  502  0.48612640768E+03  0.67334313519E+02  0.19018320917E+02  0.49113591861E+03  0.00000000000E+00 0.  1.
         11    1    5    5    0    0 -0.20790017264E+02  0.59885987715E+01 -0.13813711033E+02  0.25669178904E+02  0.00000000000E+00 0.  1.
        -11    1    5    5    0    0 -0.50235729800E+03 -0.17866601798E+03 -0.12666286493E+02  0.53333370009E+03  0.00000000000E+00 0. -1.
          1    1    6    6  503    0 -0.41244490649E+02  0.10138491643E+03  0.66895252488E+03  0.67784768926E+03  0.00000000000E+00 0. -1.
         -1    1    6    6    0  503 -0.13427066133E+02 -0.73120671842E+01  0.17911836004E+02  0.23549656059E+02  0.00000000000E+00 0.  1.
<mgrwt>
<rscale>  0 0.17281309E+04</rscale>
<asrwt>0</asrwt>
<pdfrwt beam="1">  1        2 0.19237560E+00 0.17281309E+04</pdfrwt>
<pdfrwt beam="2">  1       -1 0.91857914E-01 0.17281309E+04</pdfrwt>
<totfact> 0.22092569E+01</totfact>
</mgrwt>
</event>
<event>
12    6  0.9533401E-008  0.1962174E+04  0.7818608E-02  0.8624513E-01
          2   -1    0    0  501    0  0.00000000000E+00  0.00000000000E+00  0.15194141769E+04  0.15194141769E+04  0.00000000000E+00 0. -1.
         -1   -1    0    0    0  501 -0.00000000000E+00 -0.00000000000E+00 -0.63348860038E+03  0.63348860038E+03  0.00000000000E+00 0.  1.
         24    2    1    2    0    0 -0.21744567519E+03 -0.46876319696E+03 -0.28350298978E+03  0.59500601392E+03  0.81465667035E+02 0.  0.
        254    2    1    2    0    0  0.21744567519E+03  0.46876319696E+03  0.11694285663E+04  0.15578967634E+04  0.89020087460E+03 0.  0.
         23    2    4    4    0    0 -0.20375910397E+03  0.44357687248E+03  0.94911832438E+03  0.10713531306E+04  0.93240133494E+02 0.  0.
         23    2    4    4    0    0  0.42120477916E+03  0.25186324479E+02  0.22031024197E+03  0.48654363281E+03  0.10069899199E+03 0.  0.
          2    1    3    3  502    0 -0.10860047543E+03 -0.23657458410E+03 -0.18910264658E+03  0.32174742897E+03  0.00000000000E+00 0. -1.
         -1    1    3    3    0  502 -0.10884519976E+03 -0.23218861286E+03 -0.94400343198E+02  0.27325858495E+03  0.00000000000E+00 0.  1.
         11    1    5    5    0    0 -0.40713427208E+02  0.19253341050E+03  0.40703509777E+03  0.45211090247E+03  0.00000000000E+00 0. -1.
        -11    1    5    5    0    0 -0.16304567676E+03  0.25104346198E+03  0.54208322661E+03  0.61924222812E+03  0.00000000000E+00 0.  1.
          1    1    6    6  503    0  0.87158669599E+02  0.41662968772E+02  0.27271451481E+02  0.10038012113E+03  0.00000000000E+00 0. -1.
         -1    1    6    6    0  503  0.33404610956E+03 -0.16476644292E+02  0.19303879049E+03  0.38616351168E+03  0.00000000000E+00 0.  1.
<mgrwt>
<rscale>  0 0.19621739E+04</rscale>
<asrwt>0</asrwt>
<pdfrwt beam="1">  1        2 0.23375603E+00 0.19621739E+04</pdfrwt>
<pdfrwt beam="2">  1       -1 0.97459786E-01 0.19621739E+04</pdfrwt>
<totfact> 0.13282352E+01</totfact>
</mgrwt>
</event>
<event>
12    6  0.9533401E-008  0.1446147E+04  0.7818608E-02  0.8921076E-01
         -1   -1    0    0    0  501 -0.00000000000E+00  0.00000000000E+00  0.73058644504E+03  0.73058644504E+03  0.00000000000E+00 0.  1.
          2   -1    0    0  501    0  0.00000000000E+00 -0.00000000000E+00 -0.71563784586E+03  0.71563784586E+03  0.00000000000E+00 0. -1.
         24    2    1    2    0    0  0.29998995650E+03 -0.24980452829E+03 -0.18138198356E+03  0.43790294172E+03  0.80394564813E+02 0.  0.
        254    2    1    2    0    0 -0.29998995650E+03  0.24980452829E+03  0.19633058274E+03  0.10083213492E+04  0.90871886145E+03 0.  0.
         23    2    4    4    0    0 -0.25286602286E+03 -0.31046211175E+03  0.16404934328E+02  0.41102362232E+03  0.91341928397E+02 0.  0.
         23    2    4    4    0    0 -0.47123933638E+02  0.56026664003E+03  0.17992564841E+03  0.59729772687E+03  0.90950329923E+02 0.  0.
          4    1    3    3  502    0  0.24963899104E+03 -0.16893971492E+03 -0.11919227962E+03  0.32414048288E+03  0.00000000000E+00 0. -1.
         -3    1    3    3    0  502  0.50350965465E+02 -0.80864813364E+02 -0.62189703944E+02  0.11376245884E+03  0.00000000000E+00 0.  1.
         11    1    5    5    0    0 -0.14379586239E+03 -0.24298377210E+03  0.71689268792E+01  0.28243540333E+03  0.00000000000E+00 0.  1.
        -11    1    5    5    0    0 -0.10907016048E+03 -0.67478339647E+02  0.92360074492E+01  0.12858821898E+03  0.00000000000E+00 0. -1.
          3    1    6    6  503    0  0.17482620385E+02  0.36475989704E+02  0.23787583049E+02  0.46925355063E+02  0.00000000000E+00 0. -1.
         -3    1    6    6    0  503 -0.64606554023E+02  0.52379065033E+03  0.15613806536E+03  0.55037237181E+03  0.00000000000E+00 0.  1.
<mgrwt>
<rscale>  0 0.14461470E+04</rscale>
<asrwt>0</asrwt>
<pdfrwt beam="1">  1        2 0.11009813E+00 0.14461470E+04</pdfrwt>
<pdfrwt beam="2">  1       -1 0.11239792E+00 0.14461470E+04</pdfrwt>
<totfact> 0.32012579E+01</totfact>
</mgrwt>
</event>
<event>
12    6  0.9533401E-008  0.2072753E+04  0.7818608E-02  0.8573342E-01
         -3   -1    0    0    0  501 -0.00000000000E+00  0.00000000000E+00  0.11471097544E+04  0.11471097544E+04  0.00000000000E+00 0.  1.
          4   -1    0    0  501    0  0.00000000000E+00 -0.00000000000E+00 -0.93633253537E+03  0.93633253537E+03  0.00000000000E+00 0. -1.
         24    2    1    2    0    0 -0.39459842529E+03  0.51368674305E+03  0.62352495187E+03  0.90258801873E+03  0.79371145376E+02 0.  0.
        254    2    1    2    0    0  0.39459842529E+03 -0.51368674305E+03 -0.41274773287E+03  0.11808542710E+04  0.89692481912E+03 0.  0.
         23    2    4    4    0    0  0.45094559348E+03 -0.40948258414E+03 -0.65305892783E+03  0.89757864245E+03  0.90186147347E+02 0.  0.
         23    2    4    4    0    0 -0.56347168186E+02 -0.10420415892E+03  0.24031119496E+03  0.28327562857E+03  0.91989679973E+02 0.  0.
          4    1    3    3  502    0 -0.16011050138E+02  0.70103641726E+01  0.56148066577E+01  0.18358240280E+02  0.00000000000E+00 0. -1.
         -3    1    3    3    0  502 -0.37858737515E+03  0.50667637888E+03  0.61791014521E+03  0.88422977845E+03  0.00000000000E+00 0.  1.
         11    1    5    5    0    0  0.11738150030E+03 -0.84230560243E+02 -0.20814184420E+03  0.25336975194E+03  0.00000000000E+00 0. -1.
        -11    1    5    5    0    0  0.33356409317E+03 -0.32525202389E+03 -0.44491708363E+03  0.64420889051E+03  0.00000000000E+00 0.  1.
          2    1    6    6  503    0  0.98069212178E+01 -0.69471327563E+02  0.79997920298E+02  0.10640539605E+03  0.00000000000E+00 0. -1.
         -2    1    6    6    0  503 -0.66154089404E+02 -0.34732831354E+02  0.16031327466E+03  0.17687023252E+03  0.00000000000E+00 0.  1.
<mgrwt>
<rscale>  0 0.20727529E+04</rscale>
<asrwt>0</asrwt>
<pdfrwt beam="1">  1        4 0.14405116E+00 0.20727529E+04</pdfrwt>
<pdfrwt beam="2">  1       -3 0.17647842E+00 0.20727529E+04</pdfrwt>
<totfact> 0.14613369E-01</totfact>
</mgrwt>
</event>
<event>
12    6  0.9533401E-008  0.2032419E+04  0.7818608E-02  0.8591612E-01
         -1   -1    0    0    0  501 -0.00000000000E+00  0.00000000000E+00  0.87317032867E+03  0.87317032867E+03  0.00000000000E+00 0.  1.
          2   -1    0    0  501    0  0.00000000000E+00 -0.00000000000E+00 -0.11826812717E+04  0.11826812717E+04  0.00000000000E+00 0. -1.
         24    2    1    2    0    0  0.12344915792E+02  0.69295946771E+02 -0.95579353405E+03  0.96170211915E+03  0.79845858107E+02 0.  0.
        254    2    1    2    0    0 -0.12344915792E+02 -0.69295946771E+02  0.64628259098E+03  0.10941494813E+04  0.88007248266E+03 0.  0.
         23    2    4    4    0    0  0.40533062152E+03 -0.12986093659E+03  0.43002403072E+03  0.61183776464E+03  0.90928585446E+02 0.  0.
         23    2    4    4    0    0 -0.41767553731E+03  0.60564989820E+02  0.21625856026E+03  0.48231171661E+03  0.87953707342E+02 0.  0.
          2    1    3    3  502    0  0.87094072017E+01  0.85849632674E+02 -0.69104564174E+03  0.69641230042E+03  0.00000000000E+00 0. -1.
         -1    1    3    3    0  502  0.36355085898E+01 -0.16553685904E+02 -0.26474789231E+03  0.26528981873E+03  0.00000000000E+00 0.  1.
         11    1    5    5    0    0  0.34622271575E+03 -0.85836085135E+02  0.31876509417E+03  0.47838184296E+03  0.00000000000E+00 0. -1.
        -11    1    5    5    0    0  0.59107905774E+02 -0.44024851455E+02  0.11125893654E+03  0.13345592168E+03  0.00000000000E+00 0.  1.
          3    1    6    6  503    0 -0.34701511504E+03  0.41599690732E+02  0.21254913524E+03  0.40905642548E+03  0.00000000000E+00 0. -1.
         -3    1    6    6    0  503 -0.70660422274E+02  0.18965299087E+02  0.37094250243E+01  0.73255291136E+02  0.00000000000E+00 0.  1.
<mgrwt>
<rscale>  0 0.20324194E+04</rscale>
<asrwt>0</asrwt>
<pdfrwt beam="1">  1        2 0.18195096E+00 0.20324194E+04</pdfrwt>
<pdfrwt beam="2">  1       -1 0.13433390E+00 0.20324194E+04</pdfrwt>
<totfact> 0.95626426E+00</totfact>
</mgrwt>
</event>
<event>
12    6  0.9533401E-008  0.1581344E+04  0.7818608E-02  0.8832092E-01
         -1   -1    0    0    0  501 -0.00000000000E+00  0.00000000000E+00  0.60132120839E+03  0.60132120839E+03  0.00000000000E+00 0.  1.
          2   -1    0    0  501    0  0.00000000000E+00 -0.00000000000E+00 -0.10396481738E+04  0.10396481738E+04  0.00000000000E+00 0. -1.
         24    2    1    2    0    0 -0.27286552506E+03  0.22212319177E+03 -0.51719599355E+03  0.63057546160E+03  0.79620411592E+02 0.  0.
        254    2    1    2    0    0  0.27286552506E+03 -0.22212319177E+03  0.78869028120E+02  0.10103939206E+04  0.94386505608E+03 0.  0.
         23    2    4    4    0    0 -0.14865213073E+03 -0.45180810920E+03 -0.90641693727E+02  0.49261246802E+03  0.90681329345E+02 0.  0.
         23    2    4    4    0    0  0.42151765580E+03  0.22968491743E+03  0.16951072185E+03  0.51778145258E+03  0.94506361543E+02 0.  0.
          2    1    3    3  502    0 -0.20810616022E+03  0.12506976919E+03 -0.32394949777E+03  0.40483811356E+03  0.00000000000E+00 0. -1.
         -1    1    3    3    0  502 -0.64759364842E+02  0.97053422579E+02 -0.19324649579E+03  0.22573734805E+03  0.00000000000E+00 0.  1.
         11    1    5    5    0    0 -0.78244858875E+02 -0.34244018795E+03 -0.89700251765E+02  0.36253782620E+03  0.00000000000E+00 0. -1.
        -11    1    5    5    0    0 -0.70407271857E+02 -0.10936792126E+03 -0.94144196283E+00  0.13007464181E+03  0.00000000000E+00 0.  1.
          3    1    6    6  503    0  0.13713533274E+01 -0.36727102389E+01 -0.51085858087E+01  0.64394921704E+01  0.00000000000E+00 0.  1.
         -3    1    6    6    0  503  0.42014630247E+03  0.23335762767E+03  0.17461930766E+03  0.51134196041E+03  0.00000000000E+00 0. -1.
<mgrwt>
<rscale>  0 0.15813444E+04</rscale>
<asrwt>0</asrwt>
<pdfrwt beam="1">  1        2 0.15994587E+00 0.15813444E+04</pdfrwt>
<pdfrwt beam="2">  1       -1 0.92510955E-01 0.15813444E+04</pdfrwt>
<totfact> 0.29588447E+01</totfact>
</mgrwt>
</event>
<event>
12    6  0.9533401E-008  0.3604744E+04  0.7818608E-02  0.8089406E-01
          2   -1    0    0  501    0  0.00000000000E+00  0.00000000000E+00  0.13361373375E+04  0.13361373375E+04  0.00000000000E+00 0. -1.
         -1   -1    0    0    0  501 -0.00000000000E+00 -0.00000000000E+00 -0.24312961624E+04  0.24312961624E+04  0.00000000000E+00 0.  1.
         24    2    1    2    0    0 -0.12636150566E+04 -0.11186636668E+04 -0.54620792320E+03  0.17756648257E+04  0.80691184912E+02 0.  0.
        254    2    1    2    0    0  0.12636150566E+04  0.11186636668E+04 -0.54895090170E+03  0.19917686741E+04  0.90424772501E+03 0.  0.
         23    2    4    4    0    0  0.10072959033E+04  0.11900509178E+04 -0.65131173435E+03  0.16920266641E+04  0.88775181245E+02 0.  0.
         23    2    4    4    0    0  0.25631915323E+03 -0.71387250984E+02  0.10236083265E+03  0.29974201007E+03  0.92584472915E+02 0.  0.
          4    1    3    3  502    0 -0.72874206481E+03 -0.65363378188E+03 -0.35804537396E+03  0.10423524393E+04  0.00000000000E+00 0. -1.
         -3    1    3    3    0  502 -0.53487299176E+03 -0.46502988491E+03 -0.18816254923E+03  0.73331238645E+03  0.00000000000E+00 0.  1.
         11    1    5    5    0    0  0.92873178593E+03  0.10635317280E+04 -0.60440600833E+03  0.15358870693E+04  0.00000000000E+00 0.  1.
        -11    1    5    5    0    0  0.78564117410E+02  0.12651918979E+03 -0.46905726016E+02  0.15613959479E+03  0.00000000000E+00 0. -1.
          3    1    6    6  503    0  0.18911886405E+03 -0.85855101552E+01  0.61060816385E+02  0.19891726678E+03  0.00000000000E+00 0. -1.
         -3    1    6    6    0  503  0.67200289182E+02 -0.62801740828E+02  0.41300016264E+02  0.10082474330E+03  0.00000000000E+00 0.  1.
<mgrwt>
<rscale>  0 0.36047444E+04</rscale>
<asrwt>0</asrwt>
<pdfrwt beam="1">  1        2 0.20555959E+00 0.36047444E+04</pdfrwt>
<pdfrwt beam="2">  1       -1 0.37404557E+00 0.36047444E+04</pdfrwt>
<totfact> 0.15675534E-01</totfact>
</mgrwt>
</event>
<event>
12    6  0.9533401E-008  0.2054081E+04  0.7818608E-02  0.8581745E-01
         -1   -1    0    0    0  501 -0.00000000000E+00  0.00000000000E+00  0.75669283470E+03  0.75669283470E+03  0.00000000000E+00 0.  1.
          2   -1    0    0  501    0  0.00000000000E+00 -0.00000000000E+00 -0.13939773758E+04  0.13939773758E+04  0.00000000000E+00 0. -1.
         24    2    1    2    0    0  0.82493693949E+03 -0.51554838752E+02 -0.26421930486E+03  0.87149432819E+03  0.80694903636E+02 0.  0.
        254    2    1    2    0    0 -0.82493693949E+03  0.51554838752E+02 -0.37306523624E+03  0.12791758823E+04  0.90218313652E+03 0.  0.
         23    2    4    4    0    0  0.10358641899E+03 -0.20897274178E+03 -0.37097492695E+02  0.25378360141E+03  0.92898543464E+02 0.  0.
         23    2    4    4    0    0 -0.92852335848E+03  0.26052758053E+03 -0.33596774354E+03  0.10253922809E+04  0.92329613504E+02 0.  0.
          4    1    3    3  502    0  0.78271344320E+03 -0.37401906145E+02 -0.23444922810E+03  0.81792767241E+03  0.00000000000E+00 0. -1.
         -3    1    3    3    0  502  0.42223496297E+02 -0.14152932608E+02 -0.29770076766E+02  0.53566655781E+02  0.00000000000E+00 0.  1.
         11    1    5    5    0    0  0.40740523735E+02 -0.17404251704E+03 -0.32985352379E+02  0.18176529229E+03  0.00000000000E+00 0. -1.
        -11    1    5    5    0    0  0.62845895254E+02 -0.34930224739E+02 -0.41121403160E+01  0.72018309121E+02  0.00000000000E+00 0.  1.
          1    1    6    6  503    0 -0.66432114887E+03  0.16225185754E+03 -0.20045008083E+03  0.71262085924E+03  0.00000000000E+00 0. -1.
         -1    1    6    6    0  503 -0.26420220961E+03  0.98275722992E+02 -0.13551766271E+03  0.31277142164E+03  0.00000000000E+00 0.  1.
<mgrwt>
<rscale>  0 0.20540815E+04</rscale>
<asrwt>0</asrwt>
<pdfrwt beam="1">  1        2 0.21445806E+00 0.20540815E+04</pdfrwt>
<pdfrwt beam="2">  1       -1 0.11641428E+00 0.20540815E+04</pdfrwt>
<totfact> 0.10248380E+01</totfact>
</mgrwt>
</event>
<event>
12    6  0.9533401E-008  0.5343436E+04  0.7818608E-02  0.7777608E-01
          2   -1    0    0  501    0  0.00000000000E+00  0.00000000000E+00  0.29173614256E+04  0.29173614256E+04  0.00000000000E+00 0. -1.
         -1   -1    0    0    0  501 -0.00000000000E+00 -0.00000000000E+00 -0.24467579812E+04  0.24467579812E+04  0.00000000000E+00 0.  1.
         24    2    1    2    0    0  0.96019941124E+03 -0.24032700880E+04  0.40544762262E+03  0.26207991534E+04  0.80687063985E+02 0.  0.
        254    2    1    2    0    0 -0.96019941124E+03  0.24032700880E+04  0.65155821804E+02  0.27433202535E+04  0.90767323786E+03 0.  0.
         23    2    4    4    0    0 -0.66325997668E+03  0.11256132592E+04 -0.36609420101E+03  0.13599156008E+04  0.91795814473E+02 0.  0.
         23    2    4    4    0    0 -0.29693943457E+03  0.12776568289E+04  0.43125002282E+03  0.13834046526E+04  0.85157798383E+02 0.  0.
          4    1    3    3  502    0  0.94290095777E+02 -0.21768143578E+03  0.14751179344E+02  0.23768345954E+03  0.00000000000E+00 0. -1.
         -3    1    3    3    0  502  0.86590931547E+03 -0.21855886522E+04  0.39069644328E+03  0.23831156938E+04  0.00000000000E+00 0.  1.
         11    1    5    5    0    0 -0.12784149774E+03  0.22140875530E+03 -0.10998071279E+03  0.27831823988E+03  0.00000000000E+00 0. -1.
        -11    1    5    5    0    0 -0.53541847894E+03  0.90420450386E+03 -0.25611348822E+03  0.10815973610E+04  0.00000000000E+00 0.  1.
          3    1    6    6  503    0 -0.12739994088E+03  0.42197150031E+03  0.17469589744E+03  0.47414064221E+03  0.00000000000E+00 0. -1.
         -3    1    6    6    0  503 -0.16953949369E+03  0.85568532854E+03  0.25655412537E+03  0.90926401042E+03  0.00000000000E+00 0.  1.
<mgrwt>
<rscale>  0 0.53434361E+04</rscale>
<asrwt>0</asrwt>
<pdfrwt beam="1">  1        2 0.44882483E+00 0.53434361E+04</pdfrwt>
<pdfrwt beam="2">  1       -1 0.37642431E+00 0.53434361E+04</pdfrwt>
<totfact> 0.16337281E-02</totfact>
</mgrwt>
</event>
<event>
12    6  0.9533401E-008  0.1494832E+04  0.7818608E-02  0.8887897E-01
         -1   -1    0    0    0  501 -0.00000000000E+00  0.00000000000E+00  0.91688636638E+03  0.91688636638E+03  0.00000000000E+00 0.  1.
          2   -1    0    0  501    0  0.00000000000E+00 -0.00000000000E+00 -0.60926887884E+03  0.60926887884E+03  0.00000000000E+00 0. -1.
         24    2    1    2    0    0  0.34500843937E+03 -0.21485296433E+03  0.34642903456E+03  0.53879200626E+03  0.71352158356E+02 0.  0.
        254    2    1    2    0    0 -0.34500843937E+03  0.21485296433E+03 -0.38811547026E+02  0.98736323896E+03  0.89899233031E+03 0.  0.
         23    2    4    4    0    0  0.21970632232E+03 -0.17342929849E+03  0.45450693393E+01  0.29456271798E+03  0.91640316054E+02 0.  0.
         23    2    4    4    0    0 -0.56471476169E+03  0.38828226281E+03 -0.43356616365E+02  0.69280052099E+03  0.91798082866E+02 0.  0.
          2    1    3    3  502    0  0.36280513872E+02 -0.28756108331E+02  0.72594681904E+02  0.86099810069E+02  0.00000000000E+00 0. -1.
         -1    1    3    3    0  502  0.30872792550E+03 -0.18609685600E+03  0.27383435266E+03  0.45269219619E+03  0.00000000000E+00 0.  1.
         11    1    5    5    0    0  0.53299531791E+01 -0.12538812332E+02 -0.21299332878E+02  0.25284220309E+02  0.00000000000E+00 0.  1.
        -11    1    5    5    0    0  0.21437636914E+03 -0.16089048615E+03  0.25844402217E+02  0.26927849767E+03  0.00000000000E+00 0. -1.
          2    1    6    6  503    0 -0.20235733366E+02  0.29000224385E+02 -0.18693776986E+02  0.39999440212E+02  0.00000000000E+00 0.  1.
         -2    1    6    6    0  503 -0.54447902832E+03  0.35928203843E+03 -0.24662839379E+02  0.65280108078E+03  0.00000000000E+00 0. -1.
<mgrwt>
<rscale>  0 0.14948315E+04</rscale>
<asrwt>0</asrwt>
<pdfrwt beam="1">  1        2 0.93733674E-01 0.14948315E+04</pdfrwt>
<pdfrwt beam="2">  1       -1 0.14105944E+00 0.14948315E+04</pdfrwt>
<totfact> 0.22098084E+01</totfact>
</mgrwt>
</event>
<event>
12    6  0.9533401E-008  0.1766943E+04  0.7818608E-02  0.8724079E-01
         -1   -1    0    0    0  501 -0.00000000000E+00  0.00000000000E+00  0.35840993600E+03  0.35840993600E+03  0.00000000000E+00 0.  1.
          2   -1    0    0  501    0  0.00000000000E+00 -0.00000000000E+00 -0.21777344060E+04  0.21777344060E+04  0.00000000000E+00 0. -1.
         24    2    1    2    0    0  0.41845180677E+03 -0.27246247821E+03 -0.75751486034E+02  0.51158962252E+03  0.81534885848E+02 0.  0.
        254    2    1    2    0    0 -0.41845180677E+03  0.27246247821E+03 -0.17435729840E+04  0.20245547195E+04  0.89968735967E+03 0.  0.
         23    2    4    4    0    0 -0.34623124435E+03 -0.24645660160E+03 -0.11389114425E+04  0.12191007762E+04  0.92035305410E+02 0.  0.
         23    2    4    4    0    0 -0.72220562422E+02  0.51891907981E+03 -0.60466154143E+03  0.80545394333E+03  0.92992763790E+02 0.  0.
          4    1    3    3  502    0  0.23360074710E+02 -0.16558831522E+02 -0.25222125023E+02  0.38158139138E+02  0.00000000000E+00 0. -1.
         -3    1    3    3    0  502  0.39509173206E+03 -0.25590364669E+03 -0.50529361011E+02  0.47343148338E+03  0.00000000000E+00 0.  1.
         11    1    5    5    0    0 -0.33997078084E+03 -0.22587260939E+03 -0.10269417610E+04  0.11050827788E+04  0.00000000000E+00 0. -1.
        -11    1    5    5    0    0 -0.62604635085E+01 -0.20583992204E+02 -0.11196968155E+03  0.11401799737E+03  0.00000000000E+00 0.  1.
          4    1    6    6  503    0 -0.59857039462E+02  0.49095693783E+03 -0.59427318376E+03  0.77316375815E+03  0.00000000000E+00 0. -1.
         -4    1    6    6    0  503 -0.12363522960E+02  0.27962141978E+02 -0.10388357667E+02  0.32290185181E+02  0.00000000000E+00 0.  1.
<mgrwt>
<rscale>  0 0.17669427E+04</rscale>
<asrwt>0</asrwt>
<pdfrwt beam="1">  1        2 0.33503606E+00 0.17669427E+04</pdfrwt>
<pdfrwt beam="2">  1       -1 0.55139990E-01 0.17669427E+04</pdfrwt>
<totfact> 0.19052692E+01</totfact>
</mgrwt>
</event>
<event>
12    6  0.9533401E-008  0.2085986E+04  0.7818608E-02  0.8567442E-01
          2   -1    0    0  501    0  0.00000000000E+00  0.00000000000E+00  0.22188597813E+04  0.22188597813E+04  0.00000000000E+00 0. -1.
         -1   -1    0    0    0  501 -0.00000000000E+00 -0.00000000000E+00 -0.49026725180E+03  0.49026725180E+03  0.00000000000E+00 0.  1.
         24    2    1    2    0    0 -0.28652606455E+03 -0.60150014988E+03  0.23829680120E+02  0.67125181979E+03  0.78176313156E+02 0.  0.
        254    2    1    2    0    0  0.28652606455E+03  0.60150014988E+03  0.17047628493E+04  0.20378752133E+04  0.89600189530E+03 0.  0.
         23    2    4    4    0    0  0.91943061901E+01  0.72897915709E+03  0.14688540720E+04  0.16423509547E+04  0.91045191079E+02 0.  0.
         23    2    4    4    0    0  0.27733175836E+03 -0.12747900720E+03  0.23590877734E+03  0.39552425858E+03  0.87307997468E+02 0.  0.
          4    1    3    3  502    0 -0.81654913696E+02 -0.19495164741E+03  0.42607667733E+02  0.21561327211E+03  0.00000000000E+00 0. -1.
         -3    1    3    3    0  502 -0.20487115085E+03 -0.40654850247E+03 -0.18777987613E+02  0.45563854768E+03  0.00000000000E+00 0.  1.
         11    1    5    5    0    0 -0.36557711498E+02  0.17204092136E+03  0.35385775477E+03  0.39515801333E+03  0.00000000000E+00 0. -1.
        -11    1    5    5    0    0  0.45752017688E+02  0.55693823573E+03  0.11149963172E+04  0.12471929414E+04  0.00000000000E+00 0.  1.
          4    1    6    6  503    0  0.21349440857E+03 -0.63319973345E+02  0.19581190851E+03  0.29653260366E+03  0.00000000000E+00 0. -1.
         -4    1    6    6    0  503  0.63837349786E+02 -0.64159033859E+02  0.40096868830E+02  0.98991654918E+02  0.00000000000E+00 0.  1.
<mgrwt>
<rscale>  0 0.20859859E+04</rscale>
<asrwt>0</asrwt>
<pdfrwt beam="1">  1        2 0.34136304E+00 0.20859859E+04</pdfrwt>
<pdfrwt beam="2">  1       -1 0.75425732E-01 0.20859859E+04</pdfrwt>
<totfact> 0.93496502E+00</totfact>
</mgrwt>
</event>
<event>
12    6  0.9533401E-008  0.2954511E+04  0.7818608E-02  0.8256841E-01
          2   -1    0    0  501    0  0.00000000000E+00  0.00000000000E+00  0.30377682597E+04  0.30377682597E+04  0.00000000000E+00 0. -1.
         -1   -1    0    0    0  501 -0.00000000000E+00 -0.00000000000E+00 -0.71838367484E+03  0.71838367484E+03  0.00000000000E+00 0.  1.
         24    2    1    2    0    0 -0.10159615321E+03 -0.12979242338E+04  0.65580195691E+03  0.14598942975E+04  0.79284664318E+02 0.  0.
        254    2    1    2    0    0  0.10159615321E+03  0.12979242338E+04  0.16635826280E+04  0.22962576371E+04  0.90020157786E+03 0.  0.
         23    2    4    4    0    0  0.16036470518E+02  0.13513392597E+04  0.11885802663E+04  0.18020878019E+04  0.91773815970E+02 0.  0.
         23    2    4    4    0    0  0.85559682688E+02 -0.53415025831E+02  0.47500236165E+03  0.49416983518E+03  0.91667650471E+02 0.  0.
          4    1    3    3  502    0  0.17951521173E+01 -0.10312564491E+02 -0.14114432883E+01  0.10562373297E+02  0.00000000000E+00 0. -1.
         -3    1    3    3    0  502 -0.10339130532E+03 -0.12876116693E+04  0.65721340020E+03  0.14493319242E+04  0.00000000000E+00 0.  1.
         11    1    5    5    0    0  0.40919089490E+02  0.57484347984E+03  0.46652715231E+03  0.74146273139E+03  0.00000000000E+00 0. -1.
        -11    1    5    5    0    0 -0.24882618972E+02  0.77649577982E+03  0.72205311404E+03  0.10606250706E+04  0.00000000000E+00 0.  1.
          3    1    6    6  503    0  0.10299832626E+03 -0.44649627080E+02  0.34751486176E+03  0.36519696542E+03  0.00000000000E+00 0.  1.
         -3    1    6    6    0  503 -0.17438643573E+02 -0.87653987507E+01  0.12748749989E+03  0.12897286975E+03  0.00000000000E+00 0. -1.
<mgrwt>
<rscale>  0 0.29545105E+04</rscale>
<asrwt>0</asrwt>
<pdfrwt beam="1">  1        2 0.46734896E+00 0.29545105E+04</pdfrwt>
<pdfrwt beam="2">  1       -1 0.11052057E+00 0.29545105E+04</pdfrwt>
<totfact> 0.12137848E+00</totfact>
</mgrwt>
</event>
<event>
12    6  0.9533401E-008  0.1488137E+04  0.7818608E-02  0.8892380E-01
         -1   -1    0    0    0  501 -0.00000000000E+00  0.00000000000E+00  0.19348243611E+03  0.19348243611E+03  0.00000000000E+00 0.  1.
          2   -1    0    0  501    0  0.00000000000E+00 -0.00000000000E+00 -0.28614362450E+04  0.28614362450E+04  0.00000000000E+00 0. -1.
         24    2    1    2    0    0 -0.31898002151E+03  0.24947910385E+03 -0.13164344079E+04  0.13809104580E+04  0.99629641287E+02 0.  0.
        254    2    1    2    0    0  0.31898002151E+03 -0.24947910385E+03 -0.13515194010E+04  0.16740082231E+04  0.90094992217E+03 0.  0.
         23    2    4    4    0    0  0.59082746432E+03 -0.32537641566E+03 -0.10452022146E+04  0.12473726950E+04  0.92434118320E+02 0.  0.
         23    2    4    4    0    0 -0.27184744281E+03  0.75897311804E+02 -0.30631718636E+03  0.42663552809E+03  0.92337538797E+02 0.  0.
          2    1    3    3  502    0 -0.26367498197E+03  0.21305546946E+03 -0.11999830775E+04  0.12469468775E+04  0.00000000000E+00 0. -1.
         -1    1    3    3    0  502 -0.55305039538E+02  0.36423634399E+02 -0.11645133044E+03  0.13396358050E+03  0.00000000000E+00 0.  1.
         11    1    5    5    0    0  0.10406769892E+03 -0.95385143016E+02 -0.24925245048E+03  0.28645278064E+03  0.00000000000E+00 0.  1.
        -11    1    5    5    0    0  0.48675976541E+03 -0.22999127264E+03 -0.79594976413E+03  0.96091991432E+03  0.00000000000E+00 0. -1.
          3    1    6    6  503    0 -0.17121936640E+03  0.69097147380E+00 -0.18257739088E+03  0.25030192275E+03  0.00000000000E+00 0. -1.
         -3    1    6    6    0  503 -0.10062807641E+03  0.75206340330E+02 -0.12373979548E+03  0.17633360534E+03  0.00000000000E+00 0.  1.
<mgrwt>
<rscale>  0 0.14881366E+04</rscale>
<asrwt>0</asrwt>
<pdfrwt beam="1">  1        2 0.44022096E+00 0.14881366E+04</pdfrwt>
<pdfrwt beam="2">  1       -1 0.29766529E-01 0.14881366E+04</pdfrwt>
<totfact> 0.24316624E+01</totfact>
</mgrwt>
</event>
<event>
12    6  0.9533401E-008  0.1136940E+04  0.7818608E-02  0.9169918E-01
          2   -1    0    0  501    0  0.00000000000E+00  0.00000000000E+00  0.52031241055E+03  0.52031241055E+03  0.00000000000E+00 0. -1.
         -1   -1    0    0    0  501 -0.00000000000E+00 -0.00000000000E+00 -0.62108433712E+03  0.62108433712E+03  0.00000000000E+00 0.  1.
         24    2    1    2    0    0  0.41490099736E+02 -0.15246695503E+03 -0.14042580443E+03  0.22532177097E+03  0.77992904621E+02 0.  0.
        254    2    1    2    0    0 -0.41490099736E+02  0.15246695503E+03  0.39653877865E+02  0.91607497670E+03  0.90147286823E+03 0.  0.
         23    2    4    4    0    0  0.23086906087E+03 -0.19083774698E+03  0.26947081943E+03  0.41291952416E+03  0.90379433344E+02 0.  0.
         23    2    4    4    0    0 -0.27235916060E+03  0.34330470201E+03 -0.22981694156E+03  0.50315545254E+03  0.91169907363E+02 0.  0.
          4    1    3    3  502    0 -0.24535205189E+01 -0.38233664499E+02 -0.80268258827E+02  0.88942825675E+02  0.00000000000E+00 0. -1.
         -3    1    3    3    0  502  0.43943620255E+02 -0.11423329053E+03 -0.60157545603E+02  0.13637894530E+03  0.00000000000E+00 0.  1.
         11    1    5    5    0    0 -0.73094720850E+01  0.32087496422E+00  0.83817824230E+01  0.11125898593E+02  0.00000000000E+00 0. -1.
        -11    1    5    5    0    0  0.23817853295E+03 -0.19115862194E+03  0.26108903700E+03  0.40179362557E+03  0.00000000000E+00 0.  1.
          1    1    6    6  503    0 -0.28854538231E+02  0.45664461490E+02  0.21382481801E+01  0.54059222386E+02  0.00000000000E+00 0. -1.
         -1    1    6    6    0  503 -0.24350462237E+03  0.29764024052E+03 -0.23195518974E+03  0.44909623016E+03  0.00000000000E+00 0.  1.
<mgrwt>
<rscale>  0 0.11369396E+04</rscale>
<asrwt>0</asrwt>
<pdfrwt beam="1">  1        2 0.80048064E-01 0.11369396E+04</pdfrwt>
<pdfrwt beam="2">  1       -1 0.95551436E-01 0.11369396E+04</pdfrwt>
<totfact> 0.70411792E+01</totfact>
</mgrwt>
</event>
<event>
12    6  0.9533401E-008  0.1799551E+04  0.7818608E-02  0.8706538E-01
         -1   -1    0    0    0  501 -0.00000000000E+00  0.00000000000E+00  0.82829851360E+03  0.82829851360E+03  0.00000000000E+00 0.  1.
          2   -1    0    0  501    0  0.00000000000E+00 -0.00000000000E+00 -0.97742010821E+03  0.97742010821E+03  0.00000000000E+00 0. -1.
         24    2    1    2    0    0  0.22342026812E+03 -0.34539576599E+03 -0.58883253191E+03  0.72219811953E+03  0.75043466469E+02 0.  0.
        254    2    1    2    0    0 -0.22342026812E+03  0.34539576599E+03  0.43971093729E+03  0.10835205023E+04  0.90080859183E+03 0.  0.
         23    2    4    4    0    0  0.15497035732E+03  0.50151728144E+03  0.39421945810E+03  0.66261134596E+03  0.90052314861E+02 0.  0.
         23    2    4    4    0    0 -0.37839062544E+03 -0.15612151546E+03  0.45491479187E+02  0.42090915632E+03  0.86842674897E+02 0.  0.
          4    1    3    3  502    0  0.15846231614E+03 -0.20893820323E+03 -0.42426106404E+03  0.49876139472E+03  0.00000000000E+00 0. -1.
         -3    1    3    3    0  502  0.64957951975E+02 -0.13645756276E+03 -0.16457146787E+03  0.22343672481E+03  0.00000000000E+00 0.  1.
         11    1    5    5    0    0  0.16626622652E+03  0.46770038572E+03  0.37502846709E+03  0.62212093680E+03  0.00000000000E+00 0. -1.
        -11    1    5    5    0    0 -0.11295869199E+02  0.33816895727E+02  0.19190991015E+02  0.40490409157E+02  0.00000000000E+00 0.  1.
          3    1    6    6  503    0 -0.36870765571E+03 -0.15955122721E+03  0.30725962058E+02  0.40292184630E+03  0.00000000000E+00 0. -1.
         -3    1    6    6    0  503 -0.96829697278E+01  0.34297117508E+01  0.14765517128E+02  0.17987310013E+02  0.00000000000E+00 0.  1.
<mgrwt>
<rscale>  0 0.17995506E+04</rscale>
<asrwt>0</asrwt>
<pdfrwt beam="1">  1        2 0.15037232E+00 0.17995506E+04</pdfrwt>
<pdfrwt beam="2">  1       -1 0.12743054E+00 0.17995506E+04</pdfrwt>
<totfact> 0.14966671E+01</totfact>
</mgrwt>
</event>
<event>
12    6  0.9533401E-008  0.1424988E+04  0.7818608E-02  0.8935927E-01
         -1   -1    0    0    0  501 -0.00000000000E+00  0.00000000000E+00  0.51028837223E+03  0.51028837223E+03  0.00000000000E+00 0.  1.
          2   -1    0    0  501    0  0.00000000000E+00 -0.00000000000E+00 -0.99482572286E+03  0.99482572286E+03  0.00000000000E+00 0. -1.
         24    2    1    2    0    0  0.19563963816E+03 -0.39095106573E+03 -0.14900925357E+03  0.46882564714E+03  0.80474380706E+02 0.  0.
        254    2    1    2    0    0 -0.19563963816E+03  0.39095106573E+03 -0.33552809707E+03  0.10362884480E+04  0.87760870530E+03 0.  0.
         23    2    4    4    0    0 -0.21557537533E+03  0.47956791455E+03  0.13372067304E+03  0.54922039039E+03  0.85461638802E+02 0.  0.
         23    2    4    4    0    0  0.19935737166E+02 -0.88616848814E+02 -0.46924877011E+03  0.48706805756E+03  0.93757692685E+02 0.  0.
          2    1    3    3  502    0  0.79105771984E+02 -0.24053790979E+03 -0.69247339469E+02  0.26250981549E+03  0.00000000000E+00 0. -1.
         -1    1    3    3    0  502  0.11653386618E+03 -0.15041315594E+03 -0.79761914097E+02  0.20631583165E+03  0.00000000000E+00 0.  1.
         11    1    5    5    0    0 -0.14076405632E+03  0.37610521473E+03  0.12771296908E+03  0.42140272255E+03  0.00000000000E+00 0.  1.
        -11    1    5    5    0    0 -0.74811319011E+02  0.10346269981E+03  0.60077039671E+01  0.12781766784E+03  0.00000000000E+00 0. -1.
          1    1    6    6  503    0  0.47136103654E+02 -0.42245293304E+02 -0.35749873478E+03  0.36305897929E+03  0.00000000000E+00 0. -1.
         -1    1    6    6    0  503 -0.27200366488E+02 -0.46371555511E+02 -0.11175003533E+03  0.12400907827E+03  0.00000000000E+00 0.  1.
<mgrwt>
<rscale>  0 0.14249884E+04</rscale>
<asrwt>0</asrwt>
<pdfrwt beam="1">  1        2 0.15305011E+00 0.14249884E+04</pdfrwt>
<pdfrwt beam="2">  1       -1 0.78505904E-01 0.14249884E+04</pdfrwt>
<totfact> 0.45695507E+01</totfact>
</mgrwt>
</event>
<event>
12    6  0.9533401E-008  0.2659677E+04  0.7818608E-02  0.8348208E-01
          2   -1    0    0  501    0  0.00000000000E+00  0.00000000000E+00  0.12597908773E+04  0.12597908773E+04  0.00000000000E+00 0. -1.
         -1   -1    0    0    0  501 -0.00000000000E+00 -0.00000000000E+00 -0.14037807452E+04  0.14037807452E+04  0.00000000000E+00 0.  1.
         24    2    1    2    0    0 -0.10519312910E+04  0.23325788375E+03 -0.53839578325E+03  0.12070963608E+04  0.79012172197E+02 0.  0.
        254    2    1    2    0    0  0.10519312910E+04 -0.23325788375E+03  0.39440591540E+03  0.14564752617E+04  0.89710394069E+03 0.  0.
         23    2    4    4    0    0  0.80079355951E+03 -0.29622197575E+03 -0.12646552654E+03  0.86766362735E+03  0.88480828185E+02 0.  0.
         23    2    4    4    0    0  0.25113773153E+03  0.62964092005E+02  0.52087144194E+03  0.58881163434E+03  0.91419060506E+02 0.  0.
          4    1    3    3  502    0 -0.23297449894E+02  0.36870588713E+00 -0.24774118729E+02  0.34009764398E+02  0.00000000000E+00 0. -1.
         -3    1    3    3    0  502 -0.10286338411E+04  0.23288917786E+03 -0.51362166452E+03  0.11730865964E+04  0.00000000000E+00 0.  1.
         11    1    5    5    0    0  0.68306661490E+03 -0.21793697559E+03 -0.10308643987E+03  0.72436409340E+03  0.00000000000E+00 0. -1.
        -11    1    5    5    0    0  0.11772694461E+03 -0.78285000164E+02 -0.23379086664E+02  0.14329953395E+03  0.00000000000E+00 0.  1.
          1    1    6    6  503    0  0.18948894794E+03  0.64341721920E+01  0.33369787349E+03  0.38379907599E+03  0.00000000000E+00 0. -1.
         -1    1    6    6    0  503  0.61648783594E+02  0.56529919813E+02  0.18717356845E+03  0.20501255835E+03  0.00000000000E+00 0.  1.
<mgrwt>
<rscale>  0 0.26596768E+04</rscale>
<asrwt>0</asrwt>
<pdfrwt beam="1">  1        2 0.19381398E+00 0.26596768E+04</pdfrwt>
<pdfrwt beam="2">  1       -1 0.21596627E+00 0.26596768E+04</pdfrwt>
<totfact> 0.20505615E+00</totfact>
</mgrwt>
</event>
<event>
12    6  0.9963271E-008  0.1929312E+04  0.7818608E-02  0.8640402E-01
          2   -1    0    0  501    0  0.00000000000E+00  0.00000000000E+00  0.32325775417E+04  0.32325775417E+04  0.00000000000E+00 0. -1.
         -1   -1    0    0    0  501 -0.00000000000E+00 -0.00000000000E+00 -0.28786959953E+03  0.28786959953E+03  0.00000000000E+00 0.  1.
         24    2    1    2    0    0 -0.22784163097E+03 -0.52902230666E+03  0.27884723071E+03  0.64484098668E+03  0.79295083619E+02 0.  0.
        254    2    1    2    0    0  0.22784163097E+03  0.52902230666E+03  0.26658607115E+04  0.28756061546E+04  0.91132925634E+03 0.  0.
         23    2    4    4    0    0  0.12327152994E+03 -0.21374303673E+03  0.11772138264E+04  0.12062202759E+04  0.90846052276E+02 0.  0.
         23    2    4    4    0    0  0.10457010103E+03  0.74276534339E+03  0.14886468851E+04  0.16693858786E+04  0.90246340151E+02 0.  0.
          4    1    3    3  502    0 -0.37512563308E+02 -0.33262855560E+02  0.29552677959E+02  0.58197686728E+02  0.00000000000E+00 0. -1.
         -3    1    3    3    0  502 -0.19032906766E+03 -0.49575945110E+03  0.24929455275E+03  0.58664329995E+03  0.00000000000E+00 0.  1.
         11    1    5    5    0    0 -0.35644184276E+00 -0.52342112437E+01  0.17606698858E+03  0.17614513472E+03  0.00000000000E+00 0. -1.
        -11    1    5    5    0    0  0.12362797178E+03 -0.20850882549E+03  0.10011468378E+04  0.10300751412E+04  0.00000000000E+00 0.  1.
          3    1    6    6  503    0  0.51684743436E+01 -0.84175606669E+00  0.11855995954E+02  0.12960953683E+02  0.00000000000E+00 0. -1.
         -3    1    6    6    0  503  0.99401626686E+02  0.74360709946E+03  0.14767908892E+04  0.16564249250E+04  0.00000000000E+00 0.  1.
<mgrwt>
<rscale>  0 0.19293116E+04</rscale>
<asrwt>0</asrwt>
<pdfrwt beam="1">  1        2 0.49731960E+00 0.19293116E+04</pdfrwt>
<pdfrwt beam="2">  1       -1 0.44287633E-01 0.19293116E+04</pdfrwt>
<totfact> 0.66539573E+00</totfact>
</mgrwt>
</event>
<event>
12    6  0.9533401E-008  0.2532102E+04  0.7818608E-02  0.8391638E-01
          2   -1    0    0  501    0  0.00000000000E+00  0.00000000000E+00  0.30708718997E+04  0.30708718997E+04  0.00000000000E+00 0. -1.
         -1   -1    0    0    0  501 -0.00000000000E+00 -0.00000000000E+00 -0.52196414640E+03  0.52196414640E+03  0.00000000000E+00 0.  1.
         24    2    1    2    0    0 -0.46540597705E+03 -0.85797247669E+03  0.37328363288E+03  0.10471047620E+04  0.66092494228E+02 0.  0.
        254    2    1    2    0    0  0.46540597705E+03  0.85797247669E+03  0.21756241205E+04  0.25457312841E+04  0.89145272634E+03 0.  0.
         23    2    4    4    0    0 -0.10297845554E+03 -0.12465856687E+03  0.32545041651E+03  0.37325221095E+03  0.85175810956E+02 0.  0.
         23    2    4    4    0    0  0.56838443258E+03  0.98263104356E+03  0.18501737039E+04  0.21724790732E+04  0.88870454613E+02 0.  0.
          2    1    3    3  502    0 -0.15306152420E+03 -0.34434976409E+03  0.15720406277E+03  0.40831079777E+03  0.00000000000E+00 0. -1.
         -1    1    3    3    0  502 -0.31234445284E+03 -0.51362271259E+03  0.21607957012E+03  0.63879396423E+03  0.00000000000E+00 0.  1.
         11    1    5    5    0    0 -0.69391148428E+02 -0.11194038712E+03  0.30428544867E+03  0.33156510073E+03  0.00000000000E+00 0. -1.
        -11    1    5    5    0    0 -0.33587307107E+02 -0.12718179754E+02  0.21164967844E+02  0.41687110223E+02  0.00000000000E+00 0.  1.
          3    1    6    6  503    0  0.53779358210E+03  0.94623635852E+03  0.17991153849E+04  0.21027128552E+04  0.00000000000E+00 0. -1.
         -3    1    6    6    0  503  0.30590850486E+02  0.36394685040E+02  0.51058319058E+02  0.69766218026E+02  0.00000000000E+00 0.  1.
<mgrwt>
<rscale>  0 0.25321019E+04</rscale>
<asrwt>0</asrwt>
<pdfrwt beam="1">  1        2 0.47244182E+00 0.25321019E+04</pdfrwt>
<pdfrwt beam="2">  1       -1 0.80302179E-01 0.25321019E+04</pdfrwt>
<totfact> 0.24588304E+00</totfact>
</mgrwt>
</event>
<event>
12    6  0.9533401E-008  0.1927788E+04  0.7818608E-02  0.8641147E-01
          2   -1    0    0  501    0  0.00000000000E+00  0.00000000000E+00  0.10836969275E+04  0.10836969275E+04  0.00000000000E+00 0. -1.
         -1   -1    0    0    0  501 -0.00000000000E+00 -0.00000000000E+00 -0.85733550699E+03  0.85733550699E+03  0.00000000000E+00 0.  1.
         24    2    1    2    0    0 -0.28509433482E+03  0.33763295742E+03 -0.52036320476E+03  0.68708962485E+03  0.77714181681E+02 0.  0.
        254    2    1    2    0    0  0.28509433482E+03 -0.33763295742E+03  0.74672462530E+03  0.12539428097E+04  0.90526245379E+03 0.  0.
         23    2    4    4    0    0  0.29629460272E+03  0.24160364201E+03  0.44642606351E+03  0.59514978554E+03  0.93510564208E+02 0.  0.
         23    2    4    4    0    0 -0.11200267899E+02 -0.57923659944E+03  0.30029856179E+03  0.65879302414E+03  0.90490542673E+02 0.  0.
          2    1    3    3  502    0 -0.82586813983E+02  0.53150173288E+02 -0.93638077281E+02  0.13569676592E+03  0.00000000000E+00 0. -1.
         -1    1    3    3    0  502 -0.20250752083E+03  0.28448278414E+03 -0.42672512748E+03  0.55139285893E+03  0.00000000000E+00 0.  1.
         11    1    5    5    0    0  0.20941811116E+03  0.16290138582E+03  0.23999756535E+03  0.35775919018E+03  0.00000000000E+00 0. -1.
        -11    1    5    5    0    0  0.86876491560E+02  0.78702256190E+02  0.20642849816E+03  0.23739059536E+03  0.00000000000E+00 0.  1.
          4    1    6    6  503    0 -0.11207819893E+01 -0.23550619258E+03  0.17253875207E+03  0.29194870074E+03  0.00000000000E+00 0. -1.
         -4    1    6    6    0  503 -0.10079485910E+02 -0.34373040685E+03  0.12775980973E+03  0.36684432340E+03  0.00000000000E+00 0.  1.
<mgrwt>
<rscale>  0 0.19277882E+04</rscale>
<asrwt>0</asrwt>
<pdfrwt beam="1">  1        2 0.16672260E+00 0.19277882E+04</pdfrwt>
<pdfrwt beam="2">  1       -1 0.13189777E+00 0.19277882E+04</pdfrwt>
<totfact> 0.11619034E+01</totfact>
</mgrwt>
</event>
<event>
12    6  0.9533401E-008  0.1654321E+04  0.7818608E-02  0.8787854E-01
          4   -1    0    0  501    0  0.00000000000E+00  0.00000000000E+00  0.19320512148E+04  0.19320512148E+04  0.00000000000E+00 0. -1.
         -3   -1    0    0    0  501 -0.00000000000E+00 -0.00000000000E+00 -0.35412846665E+03  0.35412846665E+03  0.00000000000E+00 0.  1.
         24    2    1    2    0    0 -0.36904200349E+03  0.87885268171E+01 -0.58751885413E+02  0.38256723224E+03  0.81465726546E+02 0.  0.
        254    2    1    2    0    0  0.36904200349E+03 -0.87885268171E+01  0.16366746335E+04  0.19036124492E+04  0.89931488481E+03 0.  0.
         23    2    4    4    0    0  0.55205286400E+02  0.41108048432E+03  0.55618303561E+03  0.69915824530E+03  0.86301185655E+02 0.  0.
         23    2    4    4    0    0  0.31383671709E+03 -0.41986901113E+03  0.10804915979E+04  0.12044542039E+04  0.92001981089E+02 0.  0.
          2    1    3    3  502    0 -0.81143666123E+01 -0.12240201598E+02 -0.99728637297E+01  0.17751717992E+02  0.00000000000E+00 0. -1.
         -1    1    3    3    0  502 -0.36092763688E+03  0.21028728415E+02 -0.48779021683E+02  0.36481551425E+03  0.00000000000E+00 0.  1.
         11    1    5    5    0    0 -0.18568073053E+02  0.11932049613E+03  0.19071966155E+03  0.22573467486E+03  0.00000000000E+00 0.  1.
        -11    1    5    5    0    0  0.73773359453E+02  0.29175998818E+03  0.36546337406E+03  0.47342357044E+03  0.00000000000E+00 0. -1.
          3    1    6    6  503    0  0.16222685163E+03 -0.28305164797E+03  0.61623308204E+03  0.69726537144E+03  0.00000000000E+00 0. -1.
         -3    1    6    6    0  503  0.15160986546E+03 -0.13681736316E+03  0.46425851589E+03  0.50718883243E+03  0.00000000000E+00 0.  1.
<mgrwt>
<rscale>  0 0.16543208E+04</rscale>
<asrwt>0</asrwt>
<pdfrwt beam="1">  1        4 0.29723864E+00 0.16543208E+04</pdfrwt>
<pdfrwt beam="2">  1       -3 0.54481304E-01 0.16543208E+04</pdfrwt>
<totfact> 0.23395005E-01</totfact>
</mgrwt>
</event>
<event>
12    6  0.9533401E-008  0.2320145E+04  0.7818608E-02  0.8470020E-01
          2   -1    0    0  501    0  0.00000000000E+00  0.00000000000E+00  0.18894420595E+04  0.18894420595E+04  0.00000000000E+00 0. -1.
         -1   -1    0    0    0  501 -0.00000000000E+00 -0.00000000000E+00 -0.71225709999E+03  0.71225709999E+03  0.00000000000E+00 0.  1.
         24    2    1    2    0    0 -0.31972348055E+03  0.52942798575E+03  0.13605070114E+04  0.14965816149E+04  0.79120829688E+02 0.  0.
        254    2    1    2    0    0  0.31972348055E+03 -0.52942798575E+03 -0.18332205191E+03  0.11051175446E+04  0.89730748166E+03 0.  0.
         23    2    4    4    0    0  0.10289477298E+03 -0.48825252340E+03  0.28301910347E+03  0.58090709824E+03  0.91517118295E+02 0.  0.
         23    2    4    4    0    0  0.21682870757E+03 -0.41175462350E+02 -0.46634115538E+03  0.52421044640E+03  0.92803080708E+02 0.  0.
          2    1    3    3  502    0 -0.25734704515E+03  0.39060468123E+03  0.10914968087E+04  0.11875036009E+04  0.00000000000E+00 0. -1.
         -1    1    3    3    0  502 -0.62376435404E+02  0.13882330451E+03  0.26901020275E+03  0.30907801403E+03  0.00000000000E+00 0.  1.
         11    1    5    5    0    0 -0.16341597440E+02 -0.61581591619E+02  0.44950624270E+02  0.77973706181E+02  0.00000000000E+00 0.  1.
        -11    1    5    5    0    0  0.11923637042E+03 -0.42667093178E+03  0.23806847920E+03  0.50293339206E+03  0.00000000000E+00 0. -1.
          2    1    6    6  503    0  0.22430715990E+03 -0.47898375117E+02 -0.44646572570E+03  0.50193585302E+03  0.00000000000E+00 0. -1.
         -2    1    6    6    0  503 -0.74784523316E+01  0.67229127672E+01 -0.19875429682E+02  0.22274593383E+02  0.00000000000E+00 0.  1.
<mgrwt>
<rscale>  0 0.23201453E+04</rscale>
<asrwt>0</asrwt>
<pdfrwt beam="1">  1        2 0.29068339E+00 0.23201453E+04</pdfrwt>
<pdfrwt beam="2">  1       -1 0.10957802E+00 0.23201453E+04</pdfrwt>
<totfact> 0.61067612E+00</totfact>
</mgrwt>
</event>
<event>
12    6  0.9533401E-008  0.2029204E+04  0.7818608E-02  0.8593087E-01
          2   -1    0    0  501    0  0.00000000000E+00  0.00000000000E+00  0.24134142129E+04  0.24134142129E+04  0.00000000000E+00 0. -1.
         -1   -1    0    0    0  501 -0.00000000000E+00 -0.00000000000E+00 -0.42653978077E+03  0.42653978077E+03  0.00000000000E+00 0.  1.
         24    2    1    2    0    0 -0.13169460269E+03  0.12357552936E+03 -0.30873706830E+03  0.36599210838E+03  0.77571039802E+02 0.  0.
        254    2    1    2    0    0  0.13169460269E+03 -0.12357552936E+03  0.22956115004E+04  0.24739618853E+04  0.90445611788E+03 0.  0.
         23    2    4    4    0    0 -0.54932656095E+02  0.32601903902E+03  0.46761604229E+03  0.58010191752E+03  0.92452480701E+02 0.  0.
         23    2    4    4    0    0  0.18662725879E+03 -0.44959456838E+03  0.18279954581E+04  0.18938599678E+04  0.90405602484E+02 0.  0.
          2    1    3    3  502    0  0.41587524150E+01  0.25380002251E+02 -0.67503841508E+02  0.72237167401E+02  0.00000000000E+00 0. -1.
         -1    1    3    3    0  502 -0.13585335511E+03  0.98195527105E+02 -0.24123322679E+03  0.29375494097E+03  0.00000000000E+00 0.  1.
         11    1    5    5    0    0 -0.61586802130E+02  0.32577901897E+03  0.43572271304E+03  0.54752094577E+03  0.00000000000E+00 0.  1.
        -11    1    5    5    0    0  0.66541460347E+01  0.24002004665E+00  0.31893329248E+02  0.32580971741E+02  0.00000000000E+00 0. -1.
          2    1    6    6  503    0  0.43108963955E+02 -0.33151414681E+02  0.18267876462E+03  0.19060149556E+03  0.00000000000E+00 0. -1.
         -2    1    6    6    0  503  0.14351829483E+03 -0.41644315369E+03  0.16453166935E+04  0.17032584722E+04  0.00000000000E+00 0.  1.
<mgrwt>
<rscale>  0 0.20292040E+04</rscale>
<asrwt>0</asrwt>
<pdfrwt beam="1">  1        2 0.37129449E+00 0.20292040E+04</pdfrwt>
<pdfrwt beam="2">  1       -1 0.65621506E-01 0.20292040E+04</pdfrwt>
<totfact> 0.97027892E+00</totfact>
</mgrwt>
</event>
<event>
12    6  0.9533401E-008  0.3128544E+04  0.7818608E-02  0.8207948E-01
          2   -1    0    0  501    0  0.00000000000E+00  0.00000000000E+00  0.11129420143E+04  0.11129420143E+04  0.00000000000E+00 0. -1.
         -1   -1    0    0    0  501 -0.00000000000E+00 -0.00000000000E+00 -0.21986287095E+04  0.21986287095E+04  0.00000000000E+00 0.  1.
         24    2    1    2    0    0 -0.51141312181E+03 -0.51728145735E+03  0.80908003651E+03  0.10908392152E+04  0.78715949309E+02 0.  0.
        254    2    1    2    0    0  0.51141312181E+03  0.51728145735E+03 -0.18947667317E+04  0.22207315086E+04  0.90132345935E+03 0.  0.
         23    2    4    4    0    0 -0.71075721495E+02  0.54059128349E+03 -0.73793359865E+03  0.92206000389E+03  0.91421883542E+02 0.  0.
         23    2    4    4    0    0  0.58248884331E+03 -0.23309826142E+02 -0.11568331330E+04  0.12986715047E+04  0.91913975032E+02 0.  0.
          4    1    3    3  502    0 -0.46216377038E+03 -0.45904911441E+03  0.68564242113E+03  0.94574149203E+03  0.00000000000E+00 0. -1.
         -3    1    3    3    0  502 -0.49249351432E+02 -0.58232342940E+02  0.12343761538E+03  0.14509772318E+03  0.00000000000E+00 0.  1.
         11    1    5    5    0    0 -0.70639647545E+02  0.19740563858E+03 -0.27791796210E+03  0.34813408280E+03  0.00000000000E+00 0. -1.
        -11    1    5    5    0    0 -0.43607395051E+00  0.34318564491E+03 -0.46001563655E+03  0.57392592109E+03  0.00000000000E+00 0.  1.
          1    1    6    6  503    0  0.47163951355E+03 -0.14566667858E+02 -0.10071368708E+04  0.11121963383E+04  0.00000000000E+00 0. -1.
         -1    1    6    6    0  503  0.11084932976E+03 -0.87431582845E+01 -0.14969626225E+03  0.18647516632E+03  0.00000000000E+00 0.  1.
<mgrwt>
<rscale>  0 0.31285436E+04</rscale>
<asrwt>0</asrwt>
<pdfrwt beam="1">  1        2 0.17122185E+00 0.31285436E+04</pdfrwt>
<pdfrwt beam="2">  1       -1 0.33825057E+00 0.31285436E+04</pdfrwt>
<totfact> 0.38344009E-01</totfact>
</mgrwt>
</event>
<event>
12    6  0.9533401E-008  0.1094141E+04  0.7818608E-02  0.9210921E-01
          2   -1    0    0  501    0  0.00000000000E+00  0.00000000000E+00  0.70256603322E+03  0.70256603322E+03  0.00000000000E+00 0. -1.
         -1   -1    0    0    0  501 -0.00000000000E+00 -0.00000000000E+00 -0.42599034978E+03  0.42599034978E+03  0.00000000000E+00 0.  1.
         24    2    1    2    0    0 -0.11330654243E+03 -0.50479252612E+01  0.15891804917E+03  0.21129059206E+03  0.80776938746E+02 0.  0.
        254    2    1    2    0    0  0.11330654243E+03  0.50479252612E+01  0.11765763426E+03  0.91726579094E+03  0.90259036015E+03 0.  0.
         23    2    4    4    0    0  0.18616994229E+02  0.34739806138E+03 -0.21731137008E+03  0.42017958204E+03  0.91074936583E+02 0.  0.
         23    2    4    4    0    0  0.94689548196E+02 -0.34235013612E+03  0.33496900434E+03  0.49708620890E+03  0.93384896900E+02 0.  0.
          4    1    3    3  502    0 -0.10170475707E+03 -0.21003378860E+01  0.74653583945E+02  0.12618013562E+03  0.00000000000E+00 0. -1.
         -3    1    3    3    0  502 -0.11601785359E+02 -0.29475873752E+01  0.84264465230E+02  0.85110456439E+02  0.00000000000E+00 0.  1.
         11    1    5    5    0    0 -0.24258043800E+02  0.32153318671E+02 -0.35844786125E+02  0.53917875356E+02  0.00000000000E+00 0.  1.
        -11    1    5    5    0    0  0.42875038029E+02  0.31524474271E+03 -0.18146658396E+03  0.36626170669E+03  0.00000000000E+00 0. -1.
          2    1    6    6  503    0  0.44073276331E+02 -0.22329376692E+03  0.26735174691E+03  0.35111182920E+03  0.00000000000E+00 0. -1.
         -2    1    6    6    0  503  0.50616271865E+02 -0.11905636920E+03  0.67617257435E+02  0.14597437970E+03  0.00000000000E+00 0.  1.
<mgrwt>
<rscale>  0 0.10941414E+04</rscale>
<asrwt>0</asrwt>
<pdfrwt beam="1">  1        2 0.10808708E+00 0.10941414E+04</pdfrwt>
<pdfrwt beam="2">  1       -1 0.65536977E-01 0.10941414E+04</pdfrwt>
<totfact> 0.10921033E+02</totfact>
</mgrwt>
</event>
<event>
12    6  0.9533401E-008  0.2104141E+04  0.7818608E-02  0.8559421E-01
          2   -1    0    0  501    0  0.00000000000E+00  0.00000000000E+00  0.11879265426E+04  0.11879265426E+04  0.00000000000E+00 0. -1.
         -1   -1    0    0    0  501 -0.00000000000E+00 -0.00000000000E+00 -0.93175188757E+03  0.93175188757E+03  0.00000000000E+00 0.  1.
         24    2    1    2    0    0  0.80979202931E+03 -0.13403042823E+03 -0.21549850803E+02  0.82261325948E+03  0.50008920923E+02 0.  0.
        254    2    1    2    0    0 -0.80979202931E+03  0.13403042823E+03  0.27772450579E+03  0.12970651706E+04  0.96515276996E+03 0.  0.
         23    2    4    4    0    0 -0.19070776698E+03  0.47828050294E+03  0.25740064188E+03  0.58297404939E+03  0.92097556656E+02 0.  0.
         23    2    4    4    0    0 -0.61908426234E+03 -0.34425007472E+03  0.20323863913E+02  0.71409112126E+03  0.87975179446E+02 0.  0.
          4    1    3    3  502    0  0.66920600022E+03 -0.10961162398E+03 -0.36728018831E+02  0.67911731402E+03  0.00000000000E+00 0. -1.
         -3    1    3    3    0  502  0.14058602910E+03 -0.24418804242E+02  0.15178168028E+02  0.14349594546E+03  0.00000000000E+00 0.  1.
         11    1    5    5    0    0 -0.80222108241E+02  0.11893446981E+03  0.10274523703E+03  0.17645843276E+03  0.00000000000E+00 0. -1.
        -11    1    5    5    0    0 -0.11048565873E+03  0.35934603313E+03  0.15465540484E+03  0.40651561663E+03  0.00000000000E+00 0.  1.
          1    1    6    6  503    0 -0.10637418518E+03 -0.77904400750E+02 -0.26302414877E+02  0.13444842862E+03  0.00000000000E+00 0. -1.
         -1    1    6    6    0  503 -0.51271007716E+03 -0.26634567397E+03  0.46626278789E+02  0.57964269264E+03  0.00000000000E+00 0.  1.
<mgrwt>
<rscale>  0 0.21041414E+04</rscale>
<asrwt>0</asrwt>
<pdfrwt beam="1">  1        2 0.18275793E+00 0.21041414E+04</pdfrwt>
<pdfrwt beam="2">  1       -1 0.14334645E+00 0.21041414E+04</pdfrwt>
<totfact> 0.79681323E+00</totfact>
</mgrwt>
</event>
<event>
12    6  0.9533401E-008  0.1825152E+04  0.7818608E-02  0.8693037E-01
          2   -1    0    0  501    0  0.00000000000E+00  0.00000000000E+00  0.17923746425E+04  0.17923746425E+04  0.00000000000E+00 0. -1.
         -1   -1    0    0    0  501 -0.00000000000E+00 -0.00000000000E+00 -0.46463217210E+03  0.46463217210E+03  0.00000000000E+00 0.  1.
         24    2    1    2    0    0 -0.22785722129E+03  0.34048206314E+03  0.11872478140E+04  0.12585802988E+04  0.81363678471E+02 0.  0.
        254    2    1    2    0    0  0.22785722129E+03 -0.34048206314E+03  0.14049465648E+03  0.99842651583E+03  0.89959424765E+03 0.  0.
         23    2    4    4    0    0 -0.21467871218E+03 -0.99661434084E+02 -0.24916843073E+03  0.35508271321E+03  0.89327909641E+02 0.  0.
         23    2    4    4    0    0  0.44253593347E+03 -0.24082062906E+03  0.38966308721E+03  0.64334380262E+03  0.90671379476E+02 0.  0.
          2    1    3    3  502    0 -0.55679840282E+02  0.10780256977E+03  0.46293910014E+03  0.47857522826E+03  0.00000000000E+00 0. -1.
         -1    1    3    3    0  502 -0.17217738100E+03  0.23267949337E+03  0.72430871381E+03  0.78000507054E+03  0.00000000000E+00 0.  1.
         11    1    5    5    0    0 -0.17670513202E+03 -0.93363188635E+02 -0.15362057904E+03  0.25207274938E+03  0.00000000000E+00 0.  1.
        -11    1    5    5    0    0 -0.37973580157E+02 -0.62982454488E+01 -0.95547851687E+02  0.10300996383E+03  0.00000000000E+00 0. -1.
          3    1    6    6  503    0  0.31760593272E+03 -0.20304310505E+03  0.32484160008E+03  0.49761641467E+03  0.00000000000E+00 0. -1.
         -3    1    6    6    0  503  0.12493000075E+03 -0.37777524004E+02  0.64821487131E+02  0.14572738796E+03  0.00000000000E+00 0.  1.
<mgrwt>
<rscale>  0 0.18251520E+04</rscale>
<asrwt>0</asrwt>
<pdfrwt beam="1">  1        2 0.27574994E+00 0.18251520E+04</pdfrwt>
<pdfrwt beam="2">  1       -1 0.71481873E-01 0.18251520E+04</pdfrwt>
<totfact> 0.18474817E+01</totfact>
</mgrwt>
</event>
<event>
12    6  0.9533401E-008  0.1257656E+04  0.7818608E-02  0.9063835E-01
         -1   -1    0    0    0  501 -0.00000000000E+00  0.00000000000E+00  0.39776231760E+03  0.39776231760E+03  0.00000000000E+00 0.  1.
          2   -1    0    0  501    0  0.00000000000E+00 -0.00000000000E+00 -0.99412309985E+03  0.99412309985E+03  0.00000000000E+00 0. -1.
         24    2    1    2    0    0 -0.15366547693E+03  0.18453078826E+03  0.51400827937E+02  0.25827601073E+03  0.79998512405E+02 0.  0.
        254    2    1    2    0    0  0.15366547693E+03 -0.18453078826E+03 -0.64776161019E+03  0.11336094067E+04  0.89878278396E+03 0.  0.
         23    2    4    4    0    0  0.51050549545E+03 -0.19344693998E+03 -0.46642865553E+03  0.72393932214E+03  0.92167629738E+02 0.  0.
         23    2    4    4    0    0 -0.35684001851E+03  0.89161517173E+01 -0.18133295466E+03  0.40967008458E+03  0.86796550499E+02 0.  0.
          2    1    3    3  502    0 -0.16489243829E+02  0.42562435756E+02  0.39735594577E+02  0.60517547669E+02  0.00000000000E+00 0. -1.
         -1    1    3    3    0  502 -0.13717623310E+03  0.14196835251E+03  0.11665233360E+02  0.19775846306E+03  0.00000000000E+00 0.  1.
         11    1    5    5    0    0  0.46589924308E+03 -0.15388501715E+03 -0.43871857736E+03  0.65819198820E+03  0.00000000000E+00 0.  1.
        -11    1    5    5    0    0  0.44606252362E+02 -0.39561922834E+02 -0.27710078171E+02  0.65747333941E+02  0.00000000000E+00 0. -1.
          1    1    6    6  503    0 -0.10525290494E+03  0.40659123138E+01 -0.99943052756E+02  0.14520096224E+03  0.00000000000E+00 0. -1.
         -1    1    6    6    0  503 -0.25158711358E+03  0.48502394035E+01 -0.81389901908E+02  0.26446912234E+03  0.00000000000E+00 0.  1.
<mgrwt>
<rscale>  0 0.12576561E+04</rscale>
<asrwt>0</asrwt>
<pdfrwt beam="1">  1        2 0.15294201E+00 0.12576561E+04</pdfrwt>
<pdfrwt beam="2">  1       -1 0.61194203E-01 0.12576561E+04</pdfrwt>
<totfact> 0.77173821E+01</totfact>
</mgrwt>
</event>
<event>
12    6  0.9533401E-008  0.3567636E+04  0.7818608E-02  0.8097946E-01
         -1   -1    0    0    0  501 -0.00000000000E+00  0.00000000000E+00  0.18495164872E+04  0.18495164872E+04  0.00000000000E+00 0.  1.
          2   -1    0    0  501    0  0.00000000000E+00 -0.00000000000E+00 -0.17204529391E+04  0.17204529391E+04  0.00000000000E+00 0. -1.
         24    2    1    2    0    0 -0.89009433921E+03 -0.11389350062E+04  0.90180747498E+03  0.17055856895E+04  0.79529499567E+02 0.  0.
        254    2    1    2    0    0  0.89009433921E+03  0.11389350062E+04 -0.77274392686E+03  0.18643837368E+04  0.88845521011E+03 0.  0.
         23    2    4    4    0    0  0.37787676844E+03  0.33126707469E+03  0.14980953311E+03  0.53218330312E+03  0.90815444768E+02 0.  0.
         23    2    4    4    0    0  0.51221757076E+03  0.80766793154E+03 -0.92255345997E+03  0.13322004337E+04  0.94650839906E+02 0.  0.
          2    1    3    3  502    0 -0.27709314677E+02 -0.62639744405E+02  0.43854016033E+02  0.81330919220E+02  0.00000000000E+00 0. -1.
         -1    1    3    3    0  502 -0.86238502453E+03 -0.10762952618E+04  0.85795345895E+03  0.16242547703E+04  0.00000000000E+00 0.  1.
         11    1    5    5    0    0  0.31719928843E+03  0.28263982395E+03  0.15953427342E+03  0.45381917440E+03  0.00000000000E+00 0. -1.
        -11    1    5    5    0    0  0.60677480014E+02  0.48627250745E+02 -0.97247403098E+01  0.78364128719E+02  0.00000000000E+00 0.  1.
          4    1    6    6  503    0  0.22708487013E+03  0.29998691640E+03 -0.41004094594E+03  0.55650091249E+03  0.00000000000E+00 0. -1.
         -4    1    6    6    0  503  0.28513270064E+03  0.50768101514E+03 -0.51251251403E+03  0.77569952117E+03  0.00000000000E+00 0.  1.
<mgrwt>
<rscale>  0 0.35676357E+04</rscale>
<asrwt>0</asrwt>
<pdfrwt beam="1">  1        2 0.26468507E+00 0.35676357E+04</pdfrwt>
<pdfrwt beam="2">  1       -1 0.28454100E+00 0.35676357E+04</pdfrwt>
<totfact> 0.36953656E-01</totfact>
</mgrwt>
</event>
<event>
12    6  0.9533401E-008  0.1715384E+04  0.7818608E-02  0.8752639E-01
          2   -1    0    0  501    0  0.00000000000E+00  0.00000000000E+00  0.65481714313E+03  0.65481714313E+03  0.00000000000E+00 0. -1.
         -1   -1    0    0    0  501 -0.00000000000E+00 -0.00000000000E+00 -0.11234213354E+04  0.11234213354E+04  0.00000000000E+00 0.  1.
         24    2    1    2    0    0  0.41131792819E+03  0.44436056105E+03 -0.42065101287E+02  0.61216934446E+03  0.79643501256E+02 0.  0.
        254    2    1    2    0    0 -0.41131792819E+03 -0.44436056105E+03 -0.42653909098E+03  0.11660691341E+04  0.90063471121E+03 0.  0.
         23    2    4    4    0    0 -0.17204949996E+03 -0.64755185107E+03 -0.48875021725E+03  0.83363463978E+03  0.84531103764E+02 0.  0.
         23    2    4    4    0    0 -0.23926842822E+03  0.20319129003E+03  0.62211126278E+02  0.33243449429E+03  0.90035480077E+02 0.  0.
          4    1    3    3  502    0  0.21835074992E+03  0.24660943423E+03  0.16243974590E+02  0.32978345888E+03  0.00000000000E+00 0. -1.
         -3    1    3    3    0  502  0.19296717827E+03  0.19775112681E+03 -0.58309075877E+02  0.28238588558E+03  0.00000000000E+00 0.  1.
         11    1    5    5    0    0 -0.16509714743E+03 -0.62410452850E+03 -0.48782987738E+03  0.80916099748E+03  0.00000000000E+00 0.  1.
        -11    1    5    5    0    0 -0.69523525286E+01 -0.23447322575E+02 -0.92033987370E+00  0.24473642293E+02  0.00000000000E+00 0. -1.
          3    1    6    6  503    0 -0.84080401014E+02  0.57604195107E+02 -0.20811220896E+02  0.10402338220E+03  0.00000000000E+00 0. -1.
         -3    1    6    6    0  503 -0.15518802721E+03  0.14558709492E+03  0.83022347174E+02  0.22841111209E+03  0.00000000000E+00 0.  1.
<mgrwt>
<rscale>  0 0.17153840E+04</rscale>
<asrwt>0</asrwt>
<pdfrwt beam="1">  1        2 0.10074110E+00 0.17153840E+04</pdfrwt>
<pdfrwt beam="2">  1       -1 0.17283405E+00 0.17153840E+04</pdfrwt>
<totfact> 0.11343279E+01</totfact>
</mgrwt>
</event>
<event>
12    6  0.9533401E-008  0.2519434E+04  0.7818608E-02  0.8396095E-01
          2   -1    0    0  501    0  0.00000000000E+00  0.00000000000E+00  0.86765878384E+03  0.86765878384E+03  0.00000000000E+00 0. -1.
         -1   -1    0    0    0  501 -0.00000000000E+00 -0.00000000000E+00 -0.18289293358E+04  0.18289293358E+04  0.00000000000E+00 0.  1.
         24    2    1    2    0    0 -0.86966953056E+03 -0.29817209433E+03 -0.10406576994E+04  0.13913316170E+04  0.87198228387E+02 0.  0.
        254    2    1    2    0    0  0.86966953056E+03  0.29817209433E+03  0.79387147453E+02  0.13052565026E+04  0.92312541299E+03 0.  0.
         23    2    4    4    0    0  0.75241035996E+03  0.21258584025E+03 -0.33573052449E+03  0.85617753504E+03  0.94925745582E+02 0.  0.
         23    2    4    4    0    0  0.11725917060E+03  0.85586254087E+02  0.41511767195E+03  0.44907896754E+03  0.90964375152E+02 0.  0.
          4    1    3    3  502    0 -0.41682484547E+03 -0.15706399755E+03 -0.56659866136E+03  0.72072608818E+03  0.00000000000E+00 0. -1.
         -3    1    3    3    0  502 -0.45284468509E+03 -0.14110809678E+03 -0.47405903804E+03  0.67060552886E+03  0.00000000000E+00 0.  1.
         11    1    5    5    0    0  0.47420418303E+03  0.10525270447E+03 -0.16756398735E+03  0.51383404797E+03  0.00000000000E+00 0. -1.
        -11    1    5    5    0    0  0.27820617693E+03  0.10733313578E+03 -0.16816653715E+03  0.34234348706E+03  0.00000000000E+00 0.  1.
          1    1    6    6  503    0  0.79609616052E+02  0.10267716334E+03  0.31044886527E+03  0.33653943125E+03  0.00000000000E+00 0. -1.
         -1    1    6    6    0  503  0.37649554549E+02 -0.17090909257E+02  0.10466880668E+03  0.11253953629E+03  0.00000000000E+00 0.  1.
<mgrwt>
<rscale>  0 0.25194337E+04</rscale>
<asrwt>0</asrwt>
<pdfrwt beam="1">  1        2 0.13348597E+00 0.25194337E+04</pdfrwt>
<pdfrwt beam="2">  1       -1 0.28137374E+00 0.25194337E+04</pdfrwt>
<totfact> 0.13662099E+00</totfact>
</mgrwt>
</event>
<event>
12    6  0.9533401E-008  0.1645048E+04  0.7818608E-02  0.8793342E-01
         -1   -1    0    0    0  501 -0.00000000000E+00  0.00000000000E+00  0.10792229021E+04  0.10792229021E+04  0.00000000000E+00 0.  1.
          2   -1    0    0  501    0  0.00000000000E+00 -0.00000000000E+00 -0.62688211365E+03  0.62688211365E+03  0.00000000000E+00 0. -1.
         24    2    1    2    0    0  0.14894578036E+03  0.54391033987E+03  0.26290716360E+03  0.62739346047E+03  0.80492696981E+02 0.  0.
        254    2    1    2    0    0 -0.14894578036E+03 -0.54391033987E+03  0.18943362480E+03  0.10787115552E+04  0.89983899553E+03 0.  0.
         23    2    4    4    0    0  0.27007034376E+03 -0.67550857445E+02  0.30842004704E+03  0.42651916771E+03  0.96408329935E+02 0.  0.
         23    2    4    4    0    0 -0.41901612412E+03 -0.47635948242E+03 -0.11898642224E+03  0.65219238752E+03  0.93296692857E+02 0.  0.
          4    1    3    3  502    0  0.34678310061E+02  0.11146648404E+03  0.91755775180E+02  0.14848058638E+03  0.00000000000E+00 0. -1.
         -3    1    3    3    0  502  0.11426747030E+03  0.43244385583E+03  0.17115138842E+03  0.47891287409E+03  0.00000000000E+00 0.  1.
         11    1    5    5    0    0  0.14286582965E+03  0.13616253564E+02  0.15827240901E+03  0.21364972056E+03  0.00000000000E+00 0.  1.
        -11    1    5    5    0    0  0.12720451411E+03 -0.81167111009E+02  0.15014763803E+03  0.21286944714E+03  0.00000000000E+00 0. -1.
          2    1    6    6  503    0 -0.86380479146E+02 -0.96616271047E+02 -0.63509701813E+02  0.14432523422E+03  0.00000000000E+00 0. -1.
         -2    1    6    6    0  503 -0.33263564498E+03 -0.37974321138E+03 -0.55476720428E+02  0.50786715330E+03  0.00000000000E+00 0.  1.
<mgrwt>
<rscale>  0 0.16450478E+04</rscale>
<asrwt>0</asrwt>
<pdfrwt beam="1">  1        2 0.96443402E-01 0.16450478E+04</pdfrwt>
<pdfrwt beam="2">  1       -1 0.16603429E+00 0.16450478E+04</pdfrwt>
<totfact> 0.13511777E+01</totfact>
</mgrwt>
</event>
<event>
12    6  0.9533401E-008  0.2136754E+04  0.7818608E-02  0.8545223E-01
         -1   -1    0    0    0  501 -0.00000000000E+00  0.00000000000E+00  0.68241002911E+03  0.68241002911E+03  0.00000000000E+00 0.  1.
          2   -1    0    0  501    0  0.00000000000E+00 -0.00000000000E+00 -0.16726448677E+04  0.16726448677E+04  0.00000000000E+00 0. -1.
         24    2    1    2    0    0 -0.21825386741E+03  0.80469179299E+03 -0.70343384067E+03  0.10938231366E+04  0.80413018869E+02 0.  0.
        254    2    1    2    0    0  0.21825386741E+03 -0.80469179299E+03 -0.28680099794E+03  0.12612317602E+04  0.90182432229E+03 0.  0.
         23    2    4    4    0    0  0.45982896239E+03 -0.59732629232E+03  0.84009731070E+02  0.76429283412E+03  0.94045346591E+02 0.  0.
         23    2    4    4    0    0 -0.24157509499E+03 -0.20736550067E+03 -0.37081072901E+03  0.49693892612E+03  0.89937323482E+02 0.  0.
          4    1    3    3  502    0 -0.94724995521E+02  0.25159452652E+03 -0.19099766371E+03  0.32977680042E+03  0.00000000000E+00 0. -1.
         -3    1    3    3    0  502 -0.12352887188E+03  0.55309726648E+03 -0.51243617696E+03  0.76404633618E+03  0.00000000000E+00 0.  1.
         11    1    5    5    0    0  0.45409239187E+03 -0.57039792912E+03  0.93767281582E+02  0.73508230899E+03  0.00000000000E+00 0.  1.
        -11    1    5    5    0    0  0.57365705230E+01 -0.26928363205E+02 -0.97575505116E+01  0.29210525128E+02  0.00000000000E+00 0. -1.
          4    1    6    6  503    0 -0.10062544912E+03 -0.10372286154E+03 -0.23321892996E+03  0.27436286612E+03  0.00000000000E+00 0.  1.
         -4    1    6    6    0  503 -0.14094964587E+03 -0.10364263913E+03 -0.13759179905E+03  0.22257606000E+03  0.00000000000E+00 0. -1.
<mgrwt>
<rscale>  0 0.21367542E+04</rscale>
<asrwt>0</asrwt>
<pdfrwt beam="1">  1        2 0.25732998E+00 0.21367542E+04</pdfrwt>
<pdfrwt beam="2">  1       -1 0.10498616E+00 0.21367542E+04</pdfrwt>
<totfact> 0.90511439E+00</totfact>
</mgrwt>
</event>
<event>
12    6  0.9533401E-008  0.1905579E+04  0.7818608E-02  0.8652085E-01
          2   -1    0    0  501    0  0.00000000000E+00  0.00000000000E+00  0.22030728566E+04  0.22030728566E+04  0.00000000000E+00 0. -1.
         -1   -1    0    0    0  501 -0.00000000000E+00 -0.00000000000E+00 -0.41206421921E+03  0.41206421921E+03  0.00000000000E+00 0.  1.
         24    2    1    2    0    0  0.55690296801E+03  0.46067429526E+03  0.87034359165E+03  0.11340541086E+04  0.78860836836E+02 0.  0.
        254    2    1    2    0    0 -0.55690296801E+03 -0.46067429526E+03  0.92066504577E+03  0.14810829673E+04  0.90753562316E+03 0.  0.
         23    2    4    4    0    0 -0.54812638763E+03 -0.52358477182E+03  0.25521057508E+03  0.80636101164E+03  0.10247972173E+03 0.  0.
         23    2    4    4    0    0 -0.87765803750E+01  0.62910476562E+02  0.66545447069E+03  0.67472195561E+03  0.91571329544E+02 0.  0.
          4    1    3    3  502    0  0.64927549691E+02  0.84019222986E+02  0.10486697326E+03  0.14923772519E+03  0.00000000000E+00 0. -1.
         -3    1    3    3    0  502  0.49197541832E+03  0.37665507227E+03  0.76547661839E+03  0.98481638339E+03  0.00000000000E+00 0.  1.
         11    1    5    5    0    0 -0.52833087634E+03 -0.50592208941E+03  0.22321614387E+03  0.76479809253E+03  0.00000000000E+00 0. -1.
        -11    1    5    5    0    0 -0.19795511288E+02 -0.17662682409E+02  0.31994431205E+02  0.41562919112E+02  0.00000000000E+00 0.  1.
          3    1    6    6  503    0 -0.28806871627E+02  0.15941939775E+02  0.51072169379E+03  0.51178181855E+03  0.00000000000E+00 0. -1.
         -3    1    6    6    0  503  0.20030291252E+02  0.46968536787E+02  0.15473277690E+03  0.16294013706E+03  0.00000000000E+00 0.  1.
<mgrwt>
<rscale>  0 0.19055786E+04</rscale>
<asrwt>0</asrwt>
<pdfrwt beam="1">  1        2 0.33893428E+00 0.19055786E+04</pdfrwt>
<pdfrwt beam="2">  1       -1 0.63394497E-01 0.19055786E+04</pdfrwt>
<totfact> 0.13836961E+01</totfact>
</mgrwt>
</event>
<event>
12    6  0.9533401E-008  0.1653056E+04  0.7818608E-02  0.8788601E-01
         -1   -1    0    0    0  501 -0.00000000000E+00  0.00000000000E+00  0.15685283206E+04  0.15685283206E+04  0.00000000000E+00 0.  1.
          2   -1    0    0  501    0  0.00000000000E+00 -0.00000000000E+00 -0.43553452875E+03  0.43553452875E+03  0.00000000000E+00 0. -1.
         24    2    1    2    0    0  0.35288461096E+02 -0.52507914265E+03  0.67701276500E+03  0.86131771543E+03  0.81046538581E+02 0.  0.
        254    2    1    2    0    0 -0.35288461096E+02  0.52507914265E+03  0.45598102681E+03  0.11427451339E+04  0.90608739241E+03 0.  0.
         23    2    4    4    0    0 -0.19391656357E+03  0.11007294913E+03 -0.22184844595E+03  0.32685177883E+03  0.88857552280E+02 0.  0.
         23    2    4    4    0    0  0.15862810247E+03  0.41500619352E+03  0.67782947276E+03  0.81589335505E+03  0.94000835774E+02 0.  0.
          2    1    3    3  502    0  0.56064807109E+02 -0.44984946961E+03  0.55703872555E+03  0.71819213980E+03  0.00000000000E+00 0. -1.
         -1    1    3    3    0  502 -0.20776346013E+02 -0.75229673034E+02  0.11997403945E+03  0.14312557563E+03  0.00000000000E+00 0.  1.
         11    1    5    5    0    0 -0.12022579212E+03  0.41768234838E+02 -0.71395343178E+02  0.14593190727E+03  0.00000000000E+00 0.  1.
        -11    1    5    5    0    0 -0.73690771451E+02  0.68304714289E+02 -0.15045310277E+03  0.18091987156E+03  0.00000000000E+00 0. -1.
          4    1    6    6  503    0 -0.62668772939E+01  0.53823683422E+02  0.54517066150E+02  0.76865942717E+02  0.00000000000E+00 0. -1.
         -4    1    6    6    0  503  0.16489497977E+03  0.36118251010E+03  0.62331240661E+03  0.73902741234E+03  0.00000000000E+00 0.  1.
<mgrwt>
<rscale>  0 0.16530556E+04</rscale>
<asrwt>0</asrwt>
<pdfrwt beam="1">  1        2 0.67005313E-01 0.16530556E+04</pdfrwt>
<pdfrwt beam="2">  1       -1 0.24131205E+00 0.16530556E+04</pdfrwt>
<totfact> 0.62671450E+00</totfact>
</mgrwt>
</event>
<event>
12    6  0.9533401E-008  0.1734538E+04  0.7818608E-02  0.8741907E-01
         -1   -1    0    0    0  501 -0.00000000000E+00  0.00000000000E+00  0.34454619163E+03  0.34454619163E+03  0.00000000000E+00 0.  1.
          2   -1    0    0  501    0  0.00000000000E+00 -0.00000000000E+00 -0.21830330622E+04  0.21830330622E+04  0.00000000000E+00 0. -1.
         24    2    1    2    0    0  0.35553066772E+03  0.48917736876E+03 -0.43127307686E+03  0.74703073770E+03  0.79761534913E+02 0.  0.
        254    2    1    2    0    0 -0.35553066772E+03 -0.48917736876E+03 -0.14072137937E+04  0.17805485161E+04  0.90796795277E+03 0.  0.
         23    2    4    4    0    0 -0.41985499240E+02  0.11812011499E+03 -0.92800753779E+03  0.94092292438E+03  0.91775899386E+02 0.  0.
         23    2    4    4    0    0 -0.31354516849E+03 -0.60729748375E+03 -0.47920625588E+03  0.83962559171E+03  0.90618387433E+02 0.  0.
          4    1    3    3  502    0  0.15410951460E+03  0.24143038675E+03 -0.16015578214E+03  0.32815887720E+03  0.00000000000E+00 0. -1.
         -3    1    3    3    0  502  0.20142115312E+03  0.24774698201E+03 -0.27111729472E+03  0.41887186050E+03  0.00000000000E+00 0.  1.
         11    1    5    5    0    0  0.67340458658E+01  0.63246257740E+02 -0.65978662403E+03  0.66284525022E+03  0.00000000000E+00 0. -1.
        -11    1    5    5    0    0 -0.48719545105E+02  0.54873857250E+02 -0.26822091377E+03  0.27807767416E+03  0.00000000000E+00 0.  1.
          3    1    6    6  503    0 -0.29909157668E+03 -0.56033640949E+03 -0.46871360105E+03  0.78938273534E+03  0.00000000000E+00 0. -1.
         -3    1    6    6    0  503 -0.14453591803E+02 -0.46961074252E+02 -0.10492654828E+02  0.50242856370E+02  0.00000000000E+00 0.  1.
<mgrwt>
<rscale>  0 0.17345382E+04</rscale>
<asrwt>0</asrwt>
<pdfrwt beam="1">  1        2 0.33585125E+00 0.17345382E+04</pdfrwt>
<pdfrwt beam="2">  1       -1 0.53007105E-01 0.17345382E+04</pdfrwt>
<totfact> 0.20479351E+01</totfact>
</mgrwt>
</event>
<event>
12    6  0.9533401E-008  0.1604330E+04  0.7818608E-02  0.8817892E-01
         -1   -1    0    0    0  501 -0.00000000000E+00  0.00000000000E+00  0.15822163468E+04  0.15822163468E+04  0.00000000000E+00 0.  1.
          2   -1    0    0  501    0  0.00000000000E+00 -0.00000000000E+00 -0.40668836944E+03  0.40668836944E+03  0.00000000000E+00 0. -1.
         24    2    1    2    0    0 -0.39626093444E+03 -0.23147499930E+03  0.39141297528E+02  0.46782547760E+03  0.82007517053E+02 0.  0.
        254    2    1    2    0    0  0.39626093444E+03  0.23147499930E+03  0.11363866798E+04  0.15210792386E+04  0.90094614747E+03 0.  0.
         23    2    4    4    0    0  0.34426895551E+03  0.49255943243E+03  0.38724649119E+03  0.72059440515E+03  0.90335727109E+02 0.  0.
         23    2    4    4    0    0  0.51991978928E+02 -0.26108443313E+03  0.74914018859E+03  0.80048483344E+03  0.93256095306E+02 0.  0.
          2    1    3    3  502    0 -0.21139499170E+03 -0.11284526856E+03  0.60459606829E+02  0.24713814196E+03  0.00000000000E+00 0. -1.
         -1    1    3    3    0  502 -0.18486594274E+03 -0.11862973074E+03 -0.21318309301E+02  0.22068733564E+03  0.00000000000E+00 0.  1.
         11    1    5    5    0    0  0.22478058998E+03  0.30355942140E+03  0.29254854746E+03  0.47776488838E+03  0.00000000000E+00 0. -1.
        -11    1    5    5    0    0  0.11948836553E+03  0.18900001103E+03  0.94697943731E+02  0.24282951677E+03  0.00000000000E+00 0.  1.
          2    1    6    6  503    0  0.73341662725E+02 -0.22942623658E+03  0.60017355760E+03  0.64670217007E+03  0.00000000000E+00 0. -1.
         -2    1    6    6    0  503 -0.21349683797E+02 -0.31658196555E+02  0.14896663099E+03  0.15378266338E+03  0.00000000000E+00 0.  1.
<mgrwt>
<rscale>  0 0.16043304E+04</rscale>
<asrwt>0</asrwt>
<pdfrwt beam="1">  1        2 0.62567442E-01 0.16043304E+04</pdfrwt>
<pdfrwt beam="2">  1       -1 0.24341790E+00 0.16043304E+04</pdfrwt>
<totfact> 0.65896115E+00</totfact>
</mgrwt>
</event>
<event>
12    6  0.9533401E-008  0.4936706E+04  0.7818608E-02  0.7838346E-01
         -1   -1    0    0    0  501 -0.00000000000E+00  0.00000000000E+00  0.18062783625E+04  0.18062783625E+04  0.00000000000E+00 0.  1.
          2   -1    0    0  501    0  0.00000000000E+00 -0.00000000000E+00 -0.33731044174E+04  0.33731044174E+04  0.00000000000E+00 0. -1.
         24    2    1    2    0    0 -0.82553909741E+03  0.23608752852E+03 -0.30924584727E+04  0.32104381862E+04  0.79761014242E+02 0.  0.
        254    2    1    2    0    0  0.82553909741E+03 -0.23608752852E+03  0.15256324179E+04  0.19689445937E+04  0.90107514464E+03 0.  0.
         23    2    4    4    0    0 -0.15337448166E+03 -0.67659233508E+02  0.51438988988E+03  0.54839755643E+03  0.89673951534E+02 0.  0.
         23    2    4    4    0    0  0.97891357907E+03 -0.16842829501E+03  0.10112425280E+04  0.14205470373E+04  0.93287453327E+02 0.  0.
          2    1    3    3  502    0 -0.71812314083E+03  0.22070811677E+03 -0.26132007190E+04  0.27190496347E+04  0.00000000000E+00 0. -1.
         -1    1    3    3    0  502 -0.10741595658E+03  0.15379411748E+02 -0.47925775368E+03  0.49138855145E+03  0.00000000000E+00 0.  1.
         11    1    5    5    0    0 -0.11430416030E+03 -0.40330593826E+01  0.28216283831E+03  0.30446276284E+03  0.00000000000E+00 0.  1.
        -11    1    5    5    0    0 -0.39070321357E+02 -0.63626174125E+02  0.23222705157E+03  0.24393479359E+03  0.00000000000E+00 0. -1.
          4    1    6    6  503    0  0.66152210624E+03 -0.15765328459E+03  0.68298818632E+03  0.96381477362E+03  0.00000000000E+00 0.  1.
         -4    1    6    6    0  503  0.31739147283E+03 -0.10775010417E+02  0.32825434165E+03  0.45673226368E+03  0.00000000000E+00 0. -1.
<mgrwt>
<rscale>  0 0.49367056E+04</rscale>
<asrwt>0</asrwt>
<pdfrwt beam="1">  1        2 0.51893914E+00 0.49367056E+04</pdfrwt>
<pdfrwt beam="2">  1       -1 0.27788898E+00 0.49367056E+04</pdfrwt>
<totfact> 0.37905382E-02</totfact>
</mgrwt>
</event>
<event>
12    6  0.9533401E-008  0.1872271E+04  0.7818608E-02  0.8668783E-01
         -1   -1    0    0    0  501 -0.00000000000E+00  0.00000000000E+00  0.45780511595E+03  0.45780511595E+03  0.00000000000E+00 0.  1.
          2   -1    0    0  501    0  0.00000000000E+00 -0.00000000000E+00 -0.19142422975E+04  0.19142422975E+04  0.00000000000E+00 0. -1.
         24    2    1    2    0    0  0.61020992286E+02 -0.15817529507E+02  0.34533351997E+03  0.35995331136E+03  0.79607729578E+02 0.  0.
        254    2    1    2    0    0 -0.61020992286E+02  0.15817529507E+02 -0.18017707015E+04  0.20120941021E+04  0.89340430886E+03 0.  0.
         23    2    4    4    0    0  0.22135947306E+03  0.36538263466E+03 -0.89684758244E+03  0.99772289290E+03  0.92794929084E+02 0.  0.
         23    2    4    4    0    0 -0.28238046535E+03 -0.34956510515E+03 -0.90492311910E+03  0.10143712092E+04  0.90158796859E+02 0.  0.
          4    1    3    3  502    0  0.16891382833E+02  0.32122353964E+02  0.11626927186E+03  0.12180192123E+03  0.00000000000E+00 0. -1.
         -3    1    3    3    0  502  0.44129609453E+02 -0.47939883471E+02  0.22906424811E+03  0.23815139013E+03  0.00000000000E+00 0.  1.
         11    1    5    5    0    0  0.83486814149E+02  0.69649404854E+02 -0.26920961603E+03  0.29033584879E+03  0.00000000000E+00 0. -1.
        -11    1    5    5    0    0  0.13787265891E+03  0.29573322980E+03 -0.62763796641E+03  0.70738704410E+03  0.00000000000E+00 0.  1.
          3    1    6    6  503    0 -0.18007423232E+03 -0.19541872337E+03 -0.62128503739E+03  0.67572946086E+03  0.00000000000E+00 0. -1.
         -3    1    6    6    0  503 -0.10230623303E+03 -0.15414638178E+03 -0.28363808171E+03  0.33864174835E+03  0.00000000000E+00 0.  1.
<mgrwt>
<rscale>  0 0.18722713E+04</rscale>
<asrwt>0</asrwt>
<pdfrwt beam="1">  1        2 0.29449882E+00 0.18722713E+04</pdfrwt>
<pdfrwt beam="2">  1       -1 0.70431556E-01 0.18722713E+04</pdfrwt>
<totfact> 0.16237030E+01</totfact>
</mgrwt>
</event>
<event>
12    6  0.9533401E-008  0.2444564E+04  0.7818608E-02  0.8423005E-01
          2   -1    0    0  501    0  0.00000000000E+00  0.00000000000E+00  0.14342080553E+04  0.14342080553E+04  0.00000000000E+00 0. -1.
         -1   -1    0    0    0  501 -0.00000000000E+00 -0.00000000000E+00 -0.10416715581E+04  0.10416715581E+04  0.00000000000E+00 0.  1.
         24    2    1    2    0    0 -0.22723818537E+03  0.51797481477E+03 -0.71606543572E+03  0.91613095746E+03  0.81308802440E+02 0.  0.
        254    2    1    2    0    0  0.22723818537E+03 -0.51797481477E+03  0.11086019329E+04  0.15597486559E+04  0.94015026591E+03 0.  0.
         23    2    4    4    0    0  0.39884660915E+03  0.35005912028E+02  0.79443678776E+03  0.89430131608E+03  0.91329090114E+02 0.  0.
         23    2    4    4    0    0 -0.17160842379E+03 -0.55298072680E+03  0.31416514513E+03  0.66544733986E+03  0.94251198311E+02 0.  0.
          2    1    3    3  502    0 -0.63034634630E+01  0.73605958653E+02 -0.11483282039E+03  0.13654357341E+03  0.00000000000E+00 0. -1.
         -1    1    3    3    0  502 -0.22093472190E+03  0.44436885612E+03 -0.60123261533E+03  0.77958738405E+03  0.00000000000E+00 0.  1.
         11    1    5    5    0    0  0.52795807133E+02  0.21984250454E+02  0.63349191213E+02  0.85345325274E+02  0.00000000000E+00 0.  1.
        -11    1    5    5    0    0  0.34605080202E+03  0.13021661574E+02  0.73108759654E+03  0.80895599081E+03  0.00000000000E+00 0. -1.
          3    1    6    6  503    0 -0.10304168128E+03 -0.23296096512E+03  0.96527728773E+02  0.27240778582E+03  0.00000000000E+00 0. -1.
         -3    1    6    6    0  503 -0.68566742504E+02 -0.32001976168E+03  0.21763741635E+03  0.39303955404E+03  0.00000000000E+00 0.  1.
<mgrwt>
<rscale>  0 0.24445644E+04</rscale>
<asrwt>0</asrwt>
<pdfrwt beam="1">  1        2 0.22064739E+00 0.24445644E+04</pdfrwt>
<pdfrwt beam="2">  1       -1 0.16025716E+00 0.24445644E+04</pdfrwt>
<totfact> 0.41079925E+00</totfact>
</mgrwt>
</event>
<event>
12    6  0.9533401E-008  0.1724458E+04  0.7818608E-02  0.8747537E-01
          2   -1    0    0  501    0  0.00000000000E+00  0.00000000000E+00  0.12103264436E+04  0.12103264436E+04  0.00000000000E+00 0. -1.
         -1   -1    0    0    0  501 -0.00000000000E+00 -0.00000000000E+00 -0.61424621857E+03  0.61424621857E+03  0.00000000000E+00 0.  1.
         24    2    1    2    0    0  0.27638392318E+03  0.45033369026E+03 -0.14827170040E+03  0.55427913961E+03  0.77796927241E+02 0.  0.
        254    2    1    2    0    0 -0.27638392318E+03 -0.45033369026E+03  0.74435192539E+03  0.12702935225E+04  0.88340100687E+03 0.  0.
         23    2    4    4    0    0  0.31384049493E+03 -0.15336303668E+03  0.29399750005E+03  0.46557054784E+03  0.91133570652E+02 0.  0.
         23    2    4    4    0    0 -0.59022441811E+03 -0.29697065358E+03  0.45035442534E+03  0.80472297468E+03  0.90573311376E+02 0.  0.
          4    1    3    3  502    0  0.49248182466E+02  0.10969949431E+03 -0.64226822957E+02  0.13632478614E+03  0.00000000000E+00 0. -1.
         -3    1    3    3    0  502  0.22713574071E+03  0.34063419595E+03 -0.84044877441E+02  0.41795435347E+03  0.00000000000E+00 0.  1.
         11    1    5    5    0    0  0.11204313653E+03 -0.20256515166E+02  0.58197718876E+02  0.12787089322E+03  0.00000000000E+00 0.  1.
        -11    1    5    5    0    0  0.20179735840E+03 -0.13310652152E+03  0.23579978117E+03  0.33769965462E+03  0.00000000000E+00 0. -1.
          3    1    6    6  503    0 -0.14899283987E+03 -0.59530580552E+02  0.67185089038E+02  0.17394422250E+03  0.00000000000E+00 0. -1.
         -3    1    6    6    0  503 -0.44123157824E+03 -0.23744007303E+03  0.38316933630E+03  0.63077875217E+03  0.00000000000E+00 0.  1.
<mgrwt>
<rscale>  0 0.17244575E+04</rscale>
<asrwt>0</asrwt>
<pdfrwt beam="1">  1        2 0.18620407E+00 0.17244575E+04</pdfrwt>
<pdfrwt beam="2">  1       -1 0.94499418E-01 0.17244575E+04</pdfrwt>
<totfact> 0.21913974E+01</totfact>
</mgrwt>
</event>
<event>
12    6  0.9533401E-008  0.4918032E+04  0.7818608E-02  0.7841277E-01
          2   -1    0    0  501    0  0.00000000000E+00  0.00000000000E+00  0.24040454797E+04  0.24040454797E+04  0.00000000000E+00 0. -1.
         -1   -1    0    0    0  501 -0.00000000000E+00 -0.00000000000E+00 -0.25152433944E+04  0.25152433944E+04  0.00000000000E+00 0.  1.
         24    2    1    2    0    0 -0.10440352919E+04 -0.21262623513E+04  0.15581538639E+03  0.23752285173E+04  0.80192252720E+02 0.  0.
        254    2    1    2    0    0  0.10440352919E+04  0.21262623513E+04 -0.26701330106E+03  0.25440603568E+04  0.88878890568E+03 0.  0.
         23    2    4    4    0    0  0.70852874548E+03  0.15158543428E+04  0.21865968782E+03  0.16900135340E+04  0.92229682196E+02 0.  0.
         23    2    4    4    0    0  0.33550654644E+03  0.61040800853E+03 -0.48567298888E+03  0.85404682285E+03  0.91406476244E+02 0.  0.
          4    1    3    3  502    0 -0.17254970091E+03 -0.29261842418E+03  0.11480421126E+02  0.33989813404E+03  0.00000000000E+00 0. -1.
         -3    1    3    3    0  502 -0.87148559101E+03 -0.18336439271E+04  0.14433496527E+03  0.20353303833E+04  0.00000000000E+00 0.  1.
         11    1    5    5    0    0  0.94509242285E+01  0.73710647492E+01  0.73031376152E+01  0.14035255015E+02  0.00000000000E+00 0.  1.
        -11    1    5    5    0    0  0.69907782125E+03  0.15084832780E+04  0.21135655020E+03  0.16759782790E+04  0.00000000000E+00 0. -1.
          3    1    6    6  503    0  0.27387434625E+03  0.48415199065E+03 -0.34136025126E+03  0.65263858967E+03  0.00000000000E+00 0. -1.
         -3    1    6    6    0  503  0.61632200185E+02  0.12625601788E+03 -0.14431273762E+03  0.20140823318E+03  0.00000000000E+00 0.  1.
<mgrwt>
<rscale>  0 0.49180319E+04</rscale>
<asrwt>0</asrwt>
<pdfrwt beam="1">  1        2 0.36985315E+00 0.49180319E+04</pdfrwt>
<pdfrwt beam="2">  1       -1 0.38696052E+00 0.49180319E+04</pdfrwt>
<totfact> 0.28946838E-02</totfact>
</mgrwt>
</event>
<event>
12    6  0.9533401E-008  0.2378654E+04  0.7818608E-02  0.8447539E-01
          2   -1    0    0  501    0  0.00000000000E+00  0.00000000000E+00  0.14542030289E+04  0.14542030289E+04  0.00000000000E+00 0. -1.
         -1   -1    0    0    0  501 -0.00000000000E+00 -0.00000000000E+00 -0.97269662584E+03  0.97269662584E+03  0.00000000000E+00 0.  1.
         24    2    1    2    0    0  0.71993590098E+03 -0.67073465407E+03  0.47016485567E+03  0.10935274758E+04  0.80960922916E+02 0.  0.
        254    2    1    2    0    0 -0.71993590098E+03  0.67073465407E+03  0.11341547352E+02  0.13333721789E+04  0.89975555525E+03 0.  0.
         23    2    4    4    0    0  0.94160159248E+02 -0.51775658393E+02 -0.17444759220E+03  0.22544459021E+03  0.94055549766E+02 0.  0.
         23    2    4    4    0    0 -0.81409606023E+03  0.72251031247E+03  0.18578913955E+03  0.11079275887E+04  0.90622241193E+02 0.  0.
          4    1    3    3  502    0  0.29436833450E+03 -0.32915578909E+03  0.20746309067E+03  0.48789054493E+03  0.00000000000E+00 0. -1.
         -3    1    3    3    0  502  0.42556756649E+03 -0.34157886499E+03  0.26270176501E+03  0.60563693083E+03  0.00000000000E+00 0.  1.
         11    1    5    5    0    0  0.70038449181E+02 -0.79152421560E+02 -0.12007702055E+03  0.15996556213E+03  0.00000000000E+00 0. -1.
        -11    1    5    5    0    0  0.24121710067E+02  0.27376763166E+02 -0.54370571647E+02  0.65479028087E+02  0.00000000000E+00 0.  1.
          1    1    6    6  503    0 -0.80294830816E+03  0.70093380172E+03  0.19165484229E+03  0.10829431003E+04  0.00000000000E+00 0. -1.
         -1    1    6    6    0  503 -0.11147752067E+02  0.21576510752E+02 -0.58657027405E+01  0.24984488408E+02  0.00000000000E+00 0.  1.
<mgrwt>
<rscale>  0 0.23786537E+04</rscale>
<asrwt>0</asrwt>
<pdfrwt beam="1">  1        2 0.22372354E+00 0.23786537E+04</pdfrwt>
<pdfrwt beam="2">  1       -1 0.14964563E+00 0.23786537E+04</pdfrwt>
<totfact> 0.48559853E+00</totfact>
</mgrwt>
</event>
<event>
12    6  0.9533401E-008  0.1327470E+04  0.7818608E-02  0.9008061E-01
         -1   -1    0    0    0  501 -0.00000000000E+00  0.00000000000E+00  0.19982102940E+03  0.19982102940E+03  0.00000000000E+00 0.  1.
          2   -1    0    0  501    0  0.00000000000E+00 -0.00000000000E+00 -0.22046924433E+04  0.22046924433E+04  0.00000000000E+00 0. -1.
         24    2    1    2    0    0  0.22954837498E+03  0.15796617568E+03 -0.93446115888E+03  0.97825760281E+03  0.78259254322E+02 0.  0.
        254    2    1    2    0    0 -0.22954837498E+03 -0.15796617568E+03 -0.10704102550E+04  0.14262558699E+04  0.90043429701E+03 0.  0.
         23    2    4    4    0    0 -0.28987544587E+03 -0.46979180134E+03 -0.42857247524E+03  0.70471872403E+03  0.90675259775E+02 0.  0.
         23    2    4    4    0    0  0.60327070896E+02  0.31182562566E+03 -0.64183777979E+03  0.72153714587E+03  0.88235712774E+02 0.  0.
          4    1    3    3  502    0  0.21918735737E+03  0.14239366028E+03 -0.77913316211E+03  0.82180748136E+03  0.00000000000E+00 0. -1.
         -3    1    3    3    0  502  0.10361017613E+02  0.15572515400E+02 -0.15532799677E+03  0.15645012145E+03  0.00000000000E+00 0.  1.
         11    1    5    5    0    0 -0.14920766250E+03 -0.18070700160E+03 -0.14177946768E+03  0.27389663093E+03  0.00000000000E+00 0.  1.
        -11    1    5    5    0    0 -0.14066778337E+03 -0.28908479974E+03 -0.28679300756E+03  0.43082209310E+03  0.00000000000E+00 0. -1.
          3    1    6    6  503    0  0.21091614261E+01  0.16629566568E+03 -0.25832848666E+03  0.30723330550E+03  0.00000000000E+00 0. -1.
         -3    1    6    6    0  503  0.58217909470E+02  0.14552995998E+03 -0.38350929313E+03  0.41430384037E+03  0.00000000000E+00 0.  1.
<mgrwt>
<rscale>  0 0.13274696E+04</rscale>
<asrwt>0</asrwt>
<pdfrwt beam="1">  1        2 0.33918344E+00 0.13274696E+04</pdfrwt>
<pdfrwt beam="2">  1       -1 0.30741698E-01 0.13274696E+04</pdfrwt>
<totfact> 0.56013206E+01</totfact>
</mgrwt>
</event>
<event>
12    6  0.9533401E-008  0.3302396E+04  0.7818608E-02  0.8162286E-01
         -1   -1    0    0    0  501 -0.00000000000E+00  0.00000000000E+00  0.13290046235E+04  0.13290046235E+04  0.00000000000E+00 0.  1.
          2   -1    0    0  501    0  0.00000000000E+00 -0.00000000000E+00 -0.20515019938E+04  0.20515019938E+04  0.00000000000E+00 0. -1.
         24    2    1    2    0    0 -0.80291833574E+03 -0.12876908792E+04 -0.16511300651E+03  0.15285464474E+04  0.79788989476E+02 0.  0.
        254    2    1    2    0    0  0.80291833574E+03  0.12876908792E+04 -0.55738436385E+03  0.18519601699E+04  0.90346748003E+03 0.  0.
         23    2    4    4    0    0  0.93664705294E+02  0.21884042159E+03 -0.50438863327E+03  0.56506527797E+03  0.90700980456E+02 0.  0.
         23    2    4    4    0    0  0.70925363044E+03  0.10688504576E+04 -0.52995730579E+02  0.12868948919E+04  0.88362335312E+02 0.  0.
          4    1    3    3  502    0 -0.31343774089E+03 -0.57654200945E+03 -0.65386847498E+02  0.65948415137E+03  0.00000000000E+00 0. -1.
         -3    1    3    3    0  502 -0.48948059484E+03 -0.71114886974E+03 -0.99726159014E+02  0.86906229607E+03  0.00000000000E+00 0.  1.
         11    1    5    5    0    0  0.25008000144E+02 -0.34400621222E+00 -0.52601925500E+02  0.58245008179E+02  0.00000000000E+00 0.  1.
        -11    1    5    5    0    0  0.68656705150E+02  0.21918442780E+03 -0.45178670777E+03  0.50682026979E+03  0.00000000000E+00 0. -1.
          3    1    6    6  503    0  0.55026380119E+03  0.75823461038E+03 -0.38959774383E+02  0.93767149861E+03  0.00000000000E+00 0. -1.
         -3    1    6    6    0  503  0.15898982925E+03  0.31061584721E+03 -0.14035956197E+02  0.34922339328E+03  0.00000000000E+00 0.  1.
<mgrwt>
<rscale>  0 0.33023965E+04</rscale>
<asrwt>0</asrwt>
<pdfrwt beam="1">  1        2 0.31561569E+00 0.33023965E+04</pdfrwt>
<pdfrwt beam="2">  1       -1 0.20446225E+00 0.33023965E+04</pdfrwt>
<totfact> 0.83296273E-01</totfact>
</mgrwt>
</event>
<event>
12    6  0.9533401E-008  0.1546842E+04  0.7818608E-02  0.8853887E-01
         -1   -1    0    0    0  501 -0.00000000000E+00  0.00000000000E+00  0.35878943227E+03  0.35878943227E+03  0.00000000000E+00 0.  1.
          2   -1    0    0  501    0  0.00000000000E+00 -0.00000000000E+00 -0.16672183256E+04  0.16672183256E+04  0.00000000000E+00 0. -1.
         24    2    1    2    0    0  0.48778594800E+03  0.59330905829E+02 -0.34723537251E+03  0.60689031340E+03  0.79297926422E+02 0.  0.
        254    2    1    2    0    0 -0.48778594800E+03 -0.59330905829E+02 -0.96119352078E+03  0.14191174444E+04  0.92116559272E+03 0.  0.
         23    2    4    4    0    0 -0.67808797474E+03  0.47803873009E+02 -0.96208274682E+03  0.11814132507E+04  0.89696965104E+02 0.  0.
         23    2    4    4    0    0  0.19030202675E+03 -0.10713477884E+03  0.88922603944E+00  0.23770419367E+03  0.93860378996E+02 0.  0.
          2    1    3    3  502    0  0.41179254479E+03  0.20415508131E+02 -0.29124937674E+03  0.50479311839E+03  0.00000000000E+00 0. -1.
         -1    1    3    3    0  502  0.75993403204E+02  0.38915397698E+02 -0.55985995766E+02  0.10209719502E+03  0.00000000000E+00 0.  1.
         11    1    5    5    0    0 -0.54504078263E+03  0.31346505151E+02 -0.82817647068E+03  0.99193161291E+03  0.00000000000E+00 0.  1.
        -11    1    5    5    0    0 -0.13304719211E+03  0.16457367859E+02 -0.13390627614E+03  0.18948163783E+03  0.00000000000E+00 0. -1.
          4    1    6    6  503    0  0.18037788324E+03 -0.10486952754E+03 -0.24757442088E+02  0.21011123127E+03  0.00000000000E+00 0. -1.
         -4    1    6    6    0  503  0.99241435041E+01 -0.22652512984E+01  0.25646668127E+02  0.27592962395E+02  0.00000000000E+00 0.  1.
<mgrwt>
<rscale>  0 0.15468424E+04</rscale>
<asrwt>0</asrwt>
<pdfrwt beam="1">  1        2 0.25649513E+00 0.15468424E+04</pdfrwt>
<pdfrwt beam="2">  1       -1 0.55198373E-01 0.15468424E+04</pdfrwt>
<totfact> 0.37220541E+01</totfact>
</mgrwt>
</event>
<event>
12    6  0.9533401E-008  0.1947153E+04  0.7818608E-02  0.8631735E-01
          4   -1    0    0  501    0  0.00000000000E+00  0.00000000000E+00  0.12072078296E+04  0.12072078296E+04  0.00000000000E+00 0. -1.
         -3   -1    0    0    0  501 -0.00000000000E+00 -0.00000000000E+00 -0.78515972009E+03  0.78515972009E+03  0.00000000000E+00 0.  1.
         24    2    1    2    0    0  0.29879045870E+03  0.60831604563E+03 -0.19505696902E+03  0.70942710656E+03  0.76911954651E+02 0.  0.
        254    2    1    2    0    0 -0.29879045870E+03 -0.60831604563E+03  0.61710507851E+03  0.12829404431E+04  0.89765993173E+03 0.  0.
         23    2    4    4    0    0 -0.40395418786E+02 -0.21621972266E+03 -0.21635969233E+03  0.32130952118E+03  0.89696898542E+02 0.  0.
         23    2    4    4    0    0 -0.25839503992E+03 -0.39209632297E+03  0.83346477084E+03  0.96163092192E+03  0.97790503749E+02 0.  0.
          4    1    3    3  502    0  0.11963174321E+03  0.28056411000E+03 -0.12377890335E+03  0.32916438252E+03  0.00000000000E+00 0. -1.
         -3    1    3    3    0  502  0.17915871550E+03  0.32775193563E+03 -0.71278065671E+02  0.38026272404E+03  0.00000000000E+00 0.  1.
         11    1    5    5    0    0 -0.29436062251E+02 -0.44086722452E+02 -0.10020484108E+03  0.11336282915E+03  0.00000000000E+00 0. -1.
        -11    1    5    5    0    0 -0.10959356535E+02 -0.17213300021E+03 -0.11615485126E+03  0.20794669203E+03  0.00000000000E+00 0.  1.
          4    1    6    6  503    0 -0.95132466953E+01  0.46737603156E+01  0.27282909995E+02  0.29269490532E+02  0.00000000000E+00 0.  1.
         -4    1    6    6    0  503 -0.24888179322E+03 -0.39677008329E+03  0.80618186084E+03  0.93236143139E+03  0.00000000000E+00 0. -1.
<mgrwt>
<rscale>  0 0.19471528E+04</rscale>
<asrwt>0</asrwt>
<pdfrwt beam="1">  1        4 0.18572428E+00 0.19471528E+04</pdfrwt>
<pdfrwt beam="2">  1       -3 0.12079380E+00 0.19471528E+04</pdfrwt>
<totfact> 0.19459005E-01</totfact>
</mgrwt>
</event>
<event>
12    6  0.9533401E-008  0.1134837E+04  0.7818608E-02  0.9171888E-01
          2   -1    0    0  501    0  0.00000000000E+00  0.00000000000E+00  0.84625971944E+03  0.84625971944E+03  0.00000000000E+00 0. -1.
         -1   -1    0    0    0  501 -0.00000000000E+00 -0.00000000000E+00 -0.38045471455E+03  0.38045471455E+03  0.00000000000E+00 0.  1.
         24    2    1    2    0    0  0.93804535617E+02  0.16458222823E+03  0.10207397024E+02  0.20505388058E+03  0.77822247692E+02 0.  0.
        254    2    1    2    0    0 -0.93804535617E+02 -0.16458222823E+03  0.45559760787E+03  0.10216605534E+04  0.89461416562E+03 0.  0.
         23    2    4    4    0    0 -0.26826533061E+03 -0.21564827078E+03 -0.14737842930E+03  0.38540030146E+03  0.91337432884E+02 0.  0.
         23    2    4    4    0    0  0.17446079499E+03  0.51066042545E+02  0.60297603717E+03  0.63626025195E+03  0.90568742456E+02 0.  0.
          4    1    3    3  502    0 -0.41022717936E+01  0.82767722716E+01 -0.16285980574E+02  0.18723428007E+02  0.00000000000E+00 0. -1.
         -3    1    3    3    0  502  0.97906807410E+02  0.15630545596E+03  0.26493377597E+02  0.18633045258E+03  0.00000000000E+00 0.  1.
         11    1    5    5    0    0 -0.16791415458E+03 -0.18713869780E+03 -0.11196310377E+03  0.27523043460E+03  0.00000000000E+00 0.  1.
        -11    1    5    5    0    0 -0.10035117603E+03 -0.28509572975E+02 -0.35415325531E+02  0.11016986686E+03  0.00000000000E+00 0. -1.
          1    1    6    6  503    0 -0.47784179229E+01 -0.38281934359E+00  0.95284745040E+02  0.95405253869E+02  0.00000000000E+00 0. -1.
         -1    1    6    6    0  503  0.17923921292E+03  0.51448861888E+02  0.50769129213E+03  0.54085499808E+03  0.00000000000E+00 0.  1.
<mgrwt>
<rscale>  0 0.11348366E+04</rscale>
<asrwt>0</asrwt>
<pdfrwt beam="1">  1        2 0.13019380E+00 0.11348366E+04</pdfrwt>
<pdfrwt beam="2">  1       -1 0.58531494E-01 0.11348366E+04</pdfrwt>
<totfact> 0.10680375E+02</totfact>
</mgrwt>
</event>
<event>
12    6  0.9533401E-008  0.2019734E+04  0.7818608E-02  0.8597450E-01
          2   -1    0    0  501    0  0.00000000000E+00  0.00000000000E+00  0.35504169981E+04  0.35504169981E+04  0.00000000000E+00 0. -1.
         -1   -1    0    0    0  501 -0.00000000000E+00 -0.00000000000E+00 -0.28724255788E+03  0.28724255788E+03  0.00000000000E+00 0.  1.
         24    2    1    2    0    0 -0.19897752964E+03 -0.54501695219E+03  0.23826215199E+04  0.24535784540E+04  0.80786059787E+02 0.  0.
        254    2    1    2    0    0  0.19897752964E+03  0.54501695219E+03  0.88055292040E+03  0.13840811020E+04  0.89647728131E+03 0.  0.
         23    2    4    4    0    0  0.17879497867E+03  0.22375279848E+03  0.98803924361E+03  0.10326746582E+04  0.90346242214E+02 0.  0.
         23    2    4    4    0    0  0.20182550968E+02  0.32126415371E+03 -0.10748632320E+03  0.35140644387E+03  0.91187648810E+02 0.  0.
          4    1    3    3  502    0 -0.17532061909E+03 -0.37833819483E+03  0.16522839189E+04  0.17040889818E+04  0.00000000000E+00 0. -1.
         -3    1    3    3    0  502 -0.23656910549E+02 -0.16667875736E+03  0.73033760097E+03  0.74948947222E+03  0.00000000000E+00 0.  1.
         11    1    5    5    0    0  0.41577191420E+02  0.69973143533E+02  0.16181064187E+03  0.18112864899E+03  0.00000000000E+00 0. -1.
        -11    1    5    5    0    0  0.13721778725E+03  0.15377965495E+03  0.82622860174E+03  0.85154600918E+03  0.00000000000E+00 0.  1.
          4    1    6    6  503    0  0.50110724349E+02  0.16764601892E+03 -0.32921771031E+02  0.17804526212E+03  0.00000000000E+00 0.  1.
         -4    1    6    6    0  503 -0.29928173381E+02  0.15361813479E+03 -0.74564552173E+02  0.17336118175E+03  0.00000000000E+00 0. -1.
<mgrwt>
<rscale>  0 0.20197335E+04</rscale>
<asrwt>0</asrwt>
<pdfrwt beam="1">  1        2 0.54621797E+00 0.20197335E+04</pdfrwt>
<pdfrwt beam="2">  1       -1 0.44191165E-01 0.20197335E+04</pdfrwt>
<totfact> 0.40297881E+00</totfact>
</mgrwt>
</event>
<event>
12    6  0.9533401E-008  0.1085879E+04  0.7818608E-02  0.9219066E-01
          2   -1    0    0  501    0  0.00000000000E+00  0.00000000000E+00  0.22856365594E+04  0.22856365594E+04  0.00000000000E+00 0. -1.
         -1   -1    0    0    0  501 -0.00000000000E+00 -0.00000000000E+00 -0.12897206029E+03  0.12897206029E+03  0.00000000000E+00 0.  1.
         24    2    1    2    0    0 -0.23162360329E+02 -0.76813029787E+02  0.70763132488E+03  0.71688396291E+03  0.82120568890E+02 0.  0.
        254    2    1    2    0    0  0.23162360329E+02  0.76813029787E+02  0.14490331743E+04  0.16977246568E+04  0.88098531984E+03 0.  0.
         23    2    4    4    0    0 -0.19112872922E+03 -0.21252874689E+03  0.13019791129E+03  0.32758067358E+03  0.93053437399E+02 0.  0.
         23    2    4    4    0    0  0.21429108955E+03  0.28934177668E+03  0.13188352630E+04  0.13701439832E+04  0.91261980744E+02 0.  0.
          4    1    3    3  502    0 -0.40373976352E+02 -0.83168129887E+02  0.64593121595E+03  0.65251370218E+03  0.00000000000E+00 0. -1.
         -1    1    3    3    0  502  0.17211616023E+02  0.63551001003E+01  0.61700108931E+02  0.64370260723E+02  0.00000000000E+00 0.  1.
         11    1    5    5    0    0 -0.16597751678E+03 -0.19413592595E+03  0.14432168277E+03  0.29337014494E+03  0.00000000000E+00 0. -1.
        -11    1    5    5    0    0 -0.25151212438E+02 -0.18392820945E+02 -0.14123771484E+02  0.34210528648E+02  0.00000000000E+00 0.  1.
          3    1    6    6  503    0  0.16059786083E+03  0.24503189165E+03  0.11652877807E+04  0.12015522929E+04  0.00000000000E+00 0. -1.
         -3    1    6    6    0  503  0.53693228722E+02  0.44309885026E+02  0.15354748229E+03  0.16859169030E+03  0.00000000000E+00 0.  1.
<mgrwt>
<rscale>  0 0.10858789E+04</rscale>
<asrwt>0</asrwt>
<pdfrwt beam="1">  1        2 0.35163636E+00 0.10858789E+04</pdfrwt>
<pdfrwt beam="2">  1       -1 0.19841857E-01 0.10858789E+04</pdfrwt>
<totfact> 0.10901962E+02</totfact>
</mgrwt>
</event>
<event>
12    6  0.9533401E-008  0.1780265E+04  0.7818608E-02  0.8716865E-01
          2   -1    0    0  501    0  0.00000000000E+00  0.00000000000E+00  0.89929072370E+03  0.89929072370E+03  0.00000000000E+00 0. -1.
         -1   -1    0    0    0  501 -0.00000000000E+00 -0.00000000000E+00 -0.88106727092E+03  0.88106727092E+03  0.00000000000E+00 0.  1.
         24    2    1    2    0    0  0.90461948510E+02  0.14542587624E+02  0.66169234220E+03  0.67284016489E+03  0.80512612538E+02 0.  0.
        254    2    1    2    0    0 -0.90461948510E+02 -0.14542587624E+02 -0.64346888942E+03  0.11075178297E+04  0.89674337496E+03 0.  0.
         23    2    4    4    0    0 -0.30921719653E+03 -0.35680019888E+03 -0.39814259708E+03  0.62456977864E+03  0.92995829138E+02 0.  0.
         23    2    4    4    0    0  0.21875524802E+03  0.34225761125E+03 -0.24532629234E+03  0.48294805109E+03  0.89775828264E+02 0.  0.
          4    1    3    3  502    0  0.65758764200E+02 -0.28760817421E+02  0.41498874516E+03  0.42114968633E+03  0.00000000000E+00 0. -1.
         -3    1    3    3    0  502  0.24703184310E+02  0.43303405045E+02  0.24670359704E+03  0.25169047856E+03  0.00000000000E+00 0.  1.
         11    1    5    5    0    0 -0.73375843253E+01 -0.16931589324E+02  0.25171831135E+01  0.18624045521E+02  0.00000000000E+00 0.  1.
        -11    1    5    5    0    0 -0.30187961220E+03 -0.33986860955E+03 -0.40065978019E+03  0.60594573312E+03  0.00000000000E+00 0. -1.
          1    1    6    6  503    0  0.13902206954E+03  0.26941439150E+03 -0.21194860982E+03  0.36991007471E+03  0.00000000000E+00 0. -1.
         -1    1    6    6    0  503  0.79733178472E+02  0.72843219755E+02 -0.33377682524E+02  0.11303797638E+03  0.00000000000E+00 0.  1.
<mgrwt>
<rscale>  0 0.17802647E+04</rscale>
<asrwt>0</asrwt>
<pdfrwt beam="1">  1        2 0.13835242E+00 0.17802647E+04</pdfrwt>
<pdfrwt beam="2">  1       -1 0.13554881E+00 0.17802647E+04</pdfrwt>
<totfact> 0.14441021E+01</totfact>
</mgrwt>
</event>
<event>
12    6  0.9533401E-008  0.1940050E+04  0.7818608E-02  0.8635174E-01
         -1   -1    0    0    0  501 -0.00000000000E+00  0.00000000000E+00  0.33336502041E+03  0.33336502041E+03  0.00000000000E+00 0.  1.
          2   -1    0    0  501    0  0.00000000000E+00 -0.00000000000E+00 -0.28225779386E+04  0.28225779386E+04  0.00000000000E+00 0. -1.
         24    2    1    2    0    0 -0.74665849720E+03  0.55955552017E+02 -0.12157846386E+04  0.14301640869E+04  0.81284025385E+02 0.  0.
        254    2    1    2    0    0  0.74665849720E+03 -0.55955552017E+02 -0.12734282796E+04  0.17257788721E+04  0.89222373700E+03 0.  0.
         23    2    4    4    0    0 -0.22213404998E+01  0.31189311933E+03 -0.32908015374E+03  0.46224295302E+03  0.89958589331E+02 0.  0.
         23    2    4    4    0    0  0.74887983770E+03 -0.36784867134E+03 -0.94434812582E+03  0.12635359191E+04  0.92714506271E+02 0.  0.
          2    1    3    3  502    0 -0.63376269073E+03  0.45853286084E+02 -0.10823570715E+04  0.12550914318E+04  0.00000000000E+00 0. -1.
         -1    1    3    3    0  502 -0.11289580647E+03  0.10102265932E+02 -0.13342756706E+03  0.17507265506E+03  0.00000000000E+00 0.  1.
         11    1    5    5    0    0 -0.45011169766E+02  0.12748671949E+03 -0.14304725695E+03  0.19682831801E+03  0.00000000000E+00 0. -1.
        -11    1    5    5    0    0  0.42789829266E+02  0.18440639983E+03 -0.18603289679E+03  0.26541463500E+03  0.00000000000E+00 0.  1.
          2    1    6    6  503    0  0.93451571509E+02 -0.35803926143E+02 -0.73638168085E+02  0.12424852974E+03  0.00000000000E+00 0. -1.
         -2    1    6    6    0  503  0.65542826619E+03 -0.33204474520E+03 -0.87070995773E+03  0.11392873893E+04  0.00000000000E+00 0.  1.
<mgrwt>
<rscale>  0 0.19400503E+04</rscale>
<asrwt>0</asrwt>
<pdfrwt beam="1">  1        2 0.43424275E+00 0.19400503E+04</pdfrwt>
<pdfrwt beam="2">  1       -1 0.51286927E-01 0.19400503E+04</pdfrwt>
<totfact> 0.91215770E+00</totfact>
</mgrwt>
</event>
<event>
12    6  0.9533401E-008  0.1506925E+04  0.7818608E-02  0.8879861E-01
         -1   -1    0    0    0  501 -0.00000000000E+00  0.00000000000E+00  0.58214538252E+03  0.58214538252E+03  0.00000000000E+00 0.  1.
          2   -1    0    0  501    0  0.00000000000E+00 -0.00000000000E+00 -0.97519526750E+03  0.97519526750E+03  0.00000000000E+00 0. -1.
         24    2    1    2    0    0  0.63087052291E+02  0.27088218466E+02 -0.60997650787E+03  0.61908202693E+03  0.80482719675E+02 0.  0.
        254    2    1    2    0    0 -0.63087052291E+02 -0.27088218466E+02  0.21692662289E+03  0.93825862310E+03  0.91025179832E+03 0.  0.
         23    2    4    4    0    0  0.43350634111E+02  0.38270888690E+03 -0.91602023978E+02  0.40616609006E+03  0.90744654531E+02 0.  0.
         23    2    4    4    0    0 -0.10643768640E+03 -0.40979710537E+03  0.30852864687E+03  0.53209253303E+03  0.93112239331E+02 0.  0.
          2    1    3    3  502    0  0.64091384369E+02  0.49982638753E+02 -0.42604233746E+03  0.43372576939E+03  0.00000000000E+00 0. -1.
         -1    1    3    3    0  502 -0.10043320776E+01 -0.22894420288E+02 -0.18393417041E+03  0.18535625754E+03  0.00000000000E+00 0.  1.
         11    1    5    5    0    0  0.56316003102E+02  0.34008638056E+03 -0.10374384379E+03  0.35999031039E+03  0.00000000000E+00 0.  1.
        -11    1    5    5    0    0 -0.12965368990E+02  0.42622506347E+02  0.12141819815E+02  0.46175779677E+02  0.00000000000E+00 0. -1.
          3    1    6    6  503    0  0.98854494426E+01 -0.17593656213E+02  0.33626975966E+02  0.39217755702E+02  0.00000000000E+00 0. -1.
         -3    1    6    6    0  503 -0.11632313585E+03 -0.39220344916E+03  0.27490167091E+03  0.49287477733E+03  0.00000000000E+00 0.  1.
<mgrwt>
<rscale>  0 0.15069246E+04</rscale>
<asrwt>0</asrwt>
<pdfrwt beam="1">  1        2 0.15003004E+00 0.15069246E+04</pdfrwt>
<pdfrwt beam="2">  1       -1 0.89560830E-01 0.15069246E+04</pdfrwt>
<totfact> 0.35175536E+01</totfact>
</mgrwt>
</event>
<event>
12    6  0.9533401E-008  0.1243678E+04  0.7818608E-02  0.9075461E-01
         -1   -1    0    0    0  501 -0.00000000000E+00  0.00000000000E+00  0.17508233533E+03  0.17508233533E+03  0.00000000000E+00 0.  1.
          2   -1    0    0  501    0  0.00000000000E+00 -0.00000000000E+00 -0.22085836015E+04  0.22085836015E+04  0.00000000000E+00 0. -1.
         24    2    1    2    0    0 -0.86074146801E+02  0.22870165627E+02 -0.10141291406E+04  0.10211987279E+04  0.80356236693E+02 0.  0.
        254    2    1    2    0    0  0.86074146801E+02 -0.22870165627E+02 -0.10193721255E+04  0.13624672089E+04  0.89959188624E+03 0.  0.
         23    2    4    4    0    0 -0.32207204016E+03  0.23877935279E+03 -0.45034283569E+03  0.60922980672E+03  0.87214158079E+02 0.  0.
         23    2    4    4    0    0  0.40814618696E+03 -0.26164951842E+03 -0.56902928981E+03  0.75323740216E+03  0.92349720776E+02 0.  0.
          2    1    3    3  502    0 -0.50470197081E+02 -0.60575921489E+01 -0.82579592305E+03  0.82735895580E+03  0.00000000000E+00 0. -1.
         -1    1    3    3    0  502 -0.35603949720E+02  0.28927757776E+02 -0.18833321758E+03  0.19383977211E+03  0.00000000000E+00 0.  1.
         11    1    5    5    0    0 -0.28013895515E+03  0.20595347050E+03 -0.42811785858E+03  0.55152476557E+03  0.00000000000E+00 0. -1.
        -11    1    5    5    0    0 -0.41933085003E+02  0.32825882295E+02 -0.22224977107E+02  0.57705041147E+02  0.00000000000E+00 0.  1.
          1    1    6    6  503    0  0.17954190313E+03 -0.67417964394E+02 -0.19125837954E+03  0.27085096390E+03  0.00000000000E+00 0. -1.
         -1    1    6    6    0  503  0.22860428382E+03 -0.19423155403E+03 -0.37777091027E+03  0.48238643825E+03  0.00000000000E+00 0.  1.
<mgrwt>
<rscale>  0 0.12436784E+04</rscale>
<asrwt>0</asrwt>
<pdfrwt beam="1">  1        2 0.33978208E+00 0.12436784E+04</pdfrwt>
<pdfrwt beam="2">  1       -1 0.26935745E-01 0.12436784E+04</pdfrwt>
<totfact> 0.70670412E+01</totfact>
</mgrwt>
</event>
<event>
12    6  0.9533401E-008  0.1187736E+04  0.7818608E-02  0.9123660E-01
          2   -1    0    0  501    0  0.00000000000E+00  0.00000000000E+00  0.21199105825E+04  0.21199105825E+04  0.00000000000E+00 0. -1.
         -1   -1    0    0    0  501 -0.00000000000E+00 -0.00000000000E+00 -0.16636509765E+03  0.16636509765E+03  0.00000000000E+00 0.  1.
         24    2    1    2    0    0  0.14409555656E+03 -0.10917028453E+03  0.73381130434E+03  0.75982839393E+03  0.78603291230E+02 0.  0.
        254    2    1    2    0    0 -0.14409555656E+03  0.10917028453E+03  0.12197341805E+04  0.15264472862E+04  0.89978228815E+03 0.  0.
         23    2    4    4    0    0 -0.36975881666E+03  0.23565524840E+02  0.12102420018E+04  0.12690050294E+04  0.91712295740E+02 0.  0.
         23    2    4    4    0    0  0.22566326010E+03  0.85604759686E+02  0.94921786043E+01  0.25744225676E+03  0.89074868914E+02 0.  0.
          2    1    3    3  502    0  0.58343300244E+02 -0.44136692132E+01  0.28936410951E+03  0.29522027206E+03  0.00000000000E+00 0. -1.
         -1    1    3    3    0  502  0.85752256316E+02 -0.10475661531E+03  0.44444719483E+03  0.46460812187E+03  0.00000000000E+00 0.  1.
         11    1    5    5    0    0 -0.31972868502E+03 -0.28392301932E+01  0.10933474267E+04  0.11391413822E+04  0.00000000000E+00 0. -1.
        -11    1    5    5    0    0 -0.50030131639E+02  0.26404755034E+02  0.11689457517E+03  0.12986364720E+03  0.00000000000E+00 0.  1.
          4    1    6    6  503    0  0.17807537370E+03  0.73839199365E+02 -0.29219686054E+02  0.19497911718E+03  0.00000000000E+00 0. -1.
         -4    1    6    6    0  503  0.47587886398E+02  0.11765560321E+02  0.38711864658E+02  0.62463139584E+02  0.00000000000E+00 0.  1.
<mgrwt>
<rscale>  0 0.11877359E+04</rscale>
<asrwt>0</asrwt>
<pdfrwt beam="1">  1        2 0.32614007E+00 0.11877359E+04</pdfrwt>
<pdfrwt beam="2">  1       -1 0.25594632E-01 0.11877359E+04</pdfrwt>
<totfact> 0.86869608E+01</totfact>
</mgrwt>
</event>
<event>
12    6  0.9533401E-008  0.1459113E+04  0.7818608E-02  0.8912107E-01
         -1   -1    0    0    0  501 -0.00000000000E+00  0.00000000000E+00  0.14485138434E+03  0.14485138434E+03  0.00000000000E+00 0.  1.
          2   -1    0    0  501    0  0.00000000000E+00 -0.00000000000E+00 -0.36744725217E+04  0.36744725217E+04  0.00000000000E+00 0. -1.
         24    2    1    2    0    0 -0.42703311615E+03  0.13225312876E+03 -0.11062706693E+04  0.11959207570E+04  0.80891846192E+02 0.  0.
        254    2    1    2    0    0  0.42703311615E+03 -0.13225312876E+03 -0.24233504680E+04  0.26234031490E+04  0.89987133481E+03 0.  0.
         23    2    4    4    0    0  0.14864687960E+03  0.36451413970E+03 -0.72946755330E+03  0.83408326561E+03  0.92765994840E+02 0.  0.
         23    2    4    4    0    0  0.27838623655E+03 -0.49676726846E+03 -0.16938829147E+04  0.17893198834E+04  0.90275693078E+02 0.  0.
          2    1    3    3  502    0 -0.23474249389E+03  0.99213992903E+02 -0.54336768638E+03  0.60016322566E+03  0.00000000000E+00 0. -1.
         -1    1    3    3    0  502 -0.19229062226E+03  0.33039135857E+02 -0.56290298296E+03  0.59575753133E+03  0.00000000000E+00 0.  1.
         11    1    5    5    0    0  0.86621050822E+02  0.13650953624E+03 -0.37158013626E+03  0.40522815499E+03  0.00000000000E+00 0. -1.
        -11    1    5    5    0    0  0.62025828782E+02  0.22800460346E+03 -0.35788741704E+03  0.42885511062E+03  0.00000000000E+00 0.  1.
          1    1    6    6  503    0  0.17764176811E+02 -0.91777235795E+02 -0.23088227016E+03  0.24908883889E+03  0.00000000000E+00 0. -1.
         -1    1    6    6    0  503  0.26062205974E+03 -0.40499003267E+03 -0.14630006445E+04  0.15402310445E+04  0.00000000000E+00 0.  1.
<mgrwt>
<rscale>  0 0.14591127E+04</rscale>
<asrwt>0</asrwt>
<pdfrwt beam="1">  1        2 0.56530343E+00 0.14591127E+04</pdfrwt>
<pdfrwt beam="2">  1       -1 0.22284830E-01 0.14591127E+04</pdfrwt>
<totfact> 0.11680213E+01</totfact>
</mgrwt>
</event>
<event>
12    6  0.9533401E-008  0.1678281E+04  0.7818608E-02  0.8773849E-01
         -1   -1    0    0    0  501 -0.00000000000E+00  0.00000000000E+00  0.36922576765E+03  0.36922576765E+03  0.00000000000E+00 0.  1.
          2   -1    0    0  501    0  0.00000000000E+00 -0.00000000000E+00 -0.19071173080E+04  0.19071173080E+04  0.00000000000E+00 0. -1.
         24    2    1    2    0    0  0.39956108123E+02  0.55359790962E+03 -0.26466622233E+03  0.62012939042E+03  0.80281476772E+02 0.  0.
        254    2    1    2    0    0 -0.39956108123E+02 -0.55359790962E+03 -0.12732253180E+04  0.16562136852E+04  0.90214961319E+03 0.  0.
         23    2    4    4    0    0  0.26249766305E+03 -0.42466600016E+03 -0.22691967128E+03  0.55566503128E+03  0.89581554848E+02 0.  0.
         23    2    4    4    0    0 -0.30245377117E+03 -0.12893190946E+03 -0.10463056467E+04  0.11005486539E+04  0.91378949252E+02 0.  0.
          2    1    3    3  502    0  0.44758607415E+02  0.29938620783E+03 -0.10758580933E+03  0.32126335108E+03  0.00000000000E+00 0. -1.
         -1    1    3    3    0  502 -0.48024992918E+01  0.25421170179E+03 -0.15708041300E+03  0.29886603935E+03  0.00000000000E+00 0.  1.
         11    1    5    5    0    0  0.60351204228E+02 -0.17114144631E+03 -0.61138872862E+02  0.19149314419E+03  0.00000000000E+00 0. -1.
        -11    1    5    5    0    0  0.20214645882E+03 -0.25352455385E+03 -0.16578079842E+03  0.36417188709E+03  0.00000000000E+00 0.  1.
          3    1    6    6  503    0 -0.79766469678E+02 -0.15027073138E+02 -0.38631089918E+03  0.39474626463E+03  0.00000000000E+00 0. -1.
         -3    1    6    6    0  503 -0.22268730149E+03 -0.11390483632E+03 -0.65999474753E+03  0.70580238930E+03  0.00000000000E+00 0.  1.
<mgrwt>
<rscale>  0 0.16782811E+04</rscale>
<asrwt>0</asrwt>
<pdfrwt beam="1">  1        2 0.29340266E+00 0.16782811E+04</pdfrwt>
<pdfrwt beam="2">  1       -1 0.56803965E-01 0.16782811E+04</pdfrwt>
<totfact> 0.25630260E+01</totfact>
</mgrwt>
</event>
<event>
12    6  0.9533401E-008  0.2788387E+04  0.7818608E-02  0.8306883E-01
          2   -1    0    0  501    0  0.00000000000E+00  0.00000000000E+00  0.24500085692E+04  0.24500085692E+04  0.00000000000E+00 0. -1.
         -1   -1    0    0    0  501 -0.00000000000E+00 -0.00000000000E+00 -0.79337481473E+03  0.79337481473E+03  0.00000000000E+00 0.  1.
         24    2    1    2    0    0 -0.10151109735E+04  0.50598173361E+03  0.13429656087E+04  0.17596297222E+04  0.79198042867E+02 0.  0.
        254    2    1    2    0    0  0.10151109735E+04 -0.50598173361E+03  0.31366814575E+03  0.14837536617E+04  0.90369763735E+03 0.  0.
         23    2    4    4    0    0  0.86730508350E+03 -0.31565534257E+03 -0.16343776278E+03  0.94174659979E+03  0.91205003998E+02 0.  0.
         23    2    4    4    0    0  0.14780588996E+03 -0.19032639104E+03  0.47710590853E+03  0.54200706191E+03  0.89838137650E+02 0.  0.
          2    1    3    3  502    0 -0.26676476323E+03  0.11517894461E+03  0.29760896272E+03  0.41593355584E+03  0.00000000000E+00 0. -1.
         -1    1    3    3    0  502 -0.74834621022E+03  0.39080278900E+03  0.10453566460E+04  0.13436961664E+04  0.00000000000E+00 0.  1.
         11    1    5    5    0    0  0.54356721917E+03 -0.16094234284E+03 -0.12824403589E+03  0.58121793865E+03  0.00000000000E+00 0.  1.
        -11    1    5    5    0    0  0.32373786433E+03 -0.15471299973E+03 -0.35193726892E+02  0.36052866113E+03  0.00000000000E+00 0. -1.
          1    1    6    6  503    0 -0.72987737210E+01  0.31572324725E+01  0.26572908215E+02  0.27737333428E+02  0.00000000000E+00 0. -1.
         -1    1    6    6    0  503  0.15510466368E+03 -0.19348362351E+03  0.45053300031E+03  0.51426972848E+03  0.00000000000E+00 0.  1.
<mgrwt>
<rscale>  0 0.27883867E+04</rscale>
<asrwt>0</asrwt>
<pdfrwt beam="1">  1        2 0.37692439E+00 0.27883867E+04</pdfrwt>
<pdfrwt beam="2">  1       -1 0.12205766E+00 0.27883867E+04</pdfrwt>
<totfact> 0.21869945E+00</totfact>
</mgrwt>
</event>
<event>
12    6  0.9533401E-008  0.2340766E+04  0.7818608E-02  0.8462019E-01
         -1   -1    0    0    0  501 -0.00000000000E+00  0.00000000000E+00  0.58463657634E+03  0.58463657634E+03  0.00000000000E+00 0.  1.
          2   -1    0    0  501    0  0.00000000000E+00 -0.00000000000E+00 -0.23429888011E+04  0.23429888011E+04  0.00000000000E+00 0. -1.
         24    2    1    2    0    0 -0.33093764108E+02  0.69010404234E+03 -0.15439990508E+04  0.16934399976E+04  0.80418718794E+02 0.  0.
        254    2    1    2    0    0  0.33093764108E+02 -0.69010404234E+03 -0.21435317400E+03  0.12341853798E+04  0.99996374038E+03 0.  0.
         23    2    4    4    0    0 -0.23678247196E+03  0.17131929627E+03 -0.89741673171E+02  0.31891153305E+03  0.90745565756E+02 0.  0.
         23    2    4    4    0    0  0.26987623607E+03 -0.86142333861E+03 -0.12461150083E+03  0.91527384677E+03  0.85526822419E+02 0.  0.
          4    1    3    3  502    0 -0.12100611206E+02  0.64293420304E+03 -0.14051270011E+04  0.15452807846E+04  0.00000000000E+00 0. -1.
         -3    1    3    3    0  502 -0.20993152902E+02  0.47169839301E+02 -0.13887204970E+03  0.14815921300E+03  0.00000000000E+00 0.  1.
         11    1    5    5    0    0 -0.23218047258E+02  0.61319669433E+02 -0.14227243625E+02  0.67093919539E+02  0.00000000000E+00 0. -1.
        -11    1    5    5    0    0 -0.21356442471E+03  0.10999962683E+03 -0.75514429546E+02  0.25181761351E+03  0.00000000000E+00 0.  1.
          3    1    6    6  503    0  0.13761741939E+03 -0.55981275959E+03 -0.99282484587E+02  0.58496657312E+03  0.00000000000E+00 0. -1.
         -3    1    6    6    0  503  0.13225881668E+03 -0.30161057902E+03 -0.25329016244E+02  0.33030727366E+03  0.00000000000E+00 0.  1.
<mgrwt>
<rscale>  0 0.23407665E+04</rscale>
<asrwt>0</asrwt>
<pdfrwt beam="1">  1        2 0.36045982E+00 0.23407665E+04</pdfrwt>
<pdfrwt beam="2">  1       -1 0.89944089E-01 0.23407665E+04</pdfrwt>
<totfact> 0.53284600E+00</totfact>
</mgrwt>
</event>
<event>
12    6  0.9533401E-008  0.1720108E+04  0.7818608E-02  0.8749978E-01
          2   -1    0    0  501    0  0.00000000000E+00  0.00000000000E+00  0.32200425122E+04  0.32200425122E+04  0.00000000000E+00 0. -1.
         -1   -1    0    0    0  501 -0.00000000000E+00 -0.00000000000E+00 -0.22971524166E+03  0.22971524166E+03  0.00000000000E+00 0.  1.
         24    2    1    2    0    0  0.26015549506E+03  0.38136164761E+03  0.24784046798E+03  0.53031754846E+03  0.81818193343E+02 0.  0.
        254    2    1    2    0    0 -0.26015549506E+03 -0.38136164761E+03  0.27424868025E+04  0.29194402054E+04  0.88813268311E+03 0.  0.
         23    2    4    4    0    0 -0.99778796957E+02 -0.37631736292E+03  0.27005002353E+04  0.27299115107E+04  0.90248375099E+02 0.  0.
         23    2    4    4    0    0 -0.16037669810E+03 -0.50442846865E+01  0.41986567175E+02  0.18952869466E+03  0.91717632840E+02 0.  0.
          4    1    3    3  502    0  0.18486020785E+03  0.23331551642E+03  0.12098019630E+03  0.32131858730E+03  0.00000000000E+00 0. -1.
         -3    1    3    3    0  502  0.75295287216E+02  0.14804613119E+03  0.12686027168E+03  0.20899896116E+03  0.00000000000E+00 0.  1.
         11    1    5    5    0    0 -0.70360539352E+02 -0.29034175387E+03  0.17754370788E+04  0.18003960010E+04  0.00000000000E+00 0.  1.
        -11    1    5    5    0    0 -0.29418257605E+02 -0.85975609047E+02  0.92506315650E+03  0.92951550969E+03  0.00000000000E+00 0. -1.
          4    1    6    6  503    0 -0.16164744070E+03 -0.15984386262E+02  0.55898530433E+02  0.17178486951E+03  0.00000000000E+00 0. -1.
         -4    1    6    6    0  503  0.12707425946E+01  0.10940101575E+02 -0.13911963258E+02  0.17743825148E+02  0.00000000000E+00 0.  1.
<mgrwt>
<rscale>  0 0.17201080E+04</rscale>
<asrwt>0</asrwt>
<pdfrwt beam="1">  1        2 0.49539112E+00 0.17201080E+04</pdfrwt>
<pdfrwt beam="2">  1       -1 0.35340809E-01 0.17201080E+04</pdfrwt>
<totfact> 0.10446867E+01</totfact>
</mgrwt>
</event>
<event>
12    6  0.9533401E-008  0.2761976E+04  0.7818608E-02  0.8315172E-01
          4   -1    0    0  501    0  0.00000000000E+00  0.00000000000E+00  0.12744526616E+04  0.12744526616E+04  0.00000000000E+00 0. -1.
         -3   -1    0    0    0  501 -0.00000000000E+00 -0.00000000000E+00 -0.14964284077E+04  0.14964284077E+04  0.00000000000E+00 0.  1.
         24    2    1    2    0    0 -0.26641008491E+01  0.47936210937E+03  0.10399888490E+04  0.11484776946E+04  0.87344602620E+02 0.  0.
        254    2    1    2    0    0  0.26641008491E+01 -0.47936210937E+03 -0.12619645951E+04  0.16224033747E+04  0.89991274108E+03 0.  0.
         23    2    4    4    0    0 -0.12745775780E+03 -0.49022380370E+03 -0.13466944416E+04  0.14417680982E+04  0.92436314326E+02 0.  0.
         23    2    4    4    0    0  0.13012185865E+03  0.10861694330E+02  0.84729846493E+02  0.18063527650E+03  0.91653050823E+02 0.  0.
          2    1    3    3  502    0 -0.33591498416E+01  0.48325546115E+03  0.10301410361E+04  0.11378654046E+04  0.00000000000E+00 0. -1.
         -1    1    3    3    0  502  0.69504899248E+00 -0.38933517737E+01  0.98478128639E+01  0.10612290014E+02  0.00000000000E+00 0.  1.
         11    1    5    5    0    0 -0.10123818586E+03 -0.45909322676E+03 -0.11806226198E+04  0.12707814649E+04  0.00000000000E+00 0.  1.
        -11    1    5    5    0    0 -0.26219571942E+02 -0.31130576940E+02 -0.16607182175E+03  0.17098663325E+03  0.00000000000E+00 0. -1.
          1    1    6    6  503    0  0.77018988703E+02  0.43625981300E+02  0.20040057388E+02  0.90756568717E+02  0.00000000000E+00 0. -1.
         -1    1    6    6    0  503  0.53102869950E+02 -0.32764286970E+02  0.64689789105E+02  0.89878707779E+02  0.00000000000E+00 0.  1.
<mgrwt>
<rscale>  0 0.27619755E+04</rscale>
<asrwt>0</asrwt>
<pdfrwt beam="1">  1        4 0.19606964E+00 0.27619755E+04</pdfrwt>
<pdfrwt beam="2">  1       -3 0.23021976E+00 0.27619755E+04</pdfrwt>
<totfact> 0.26505142E-02</totfact>
</mgrwt>
</event>
<event>
12    6  0.9533401E-008  0.1408053E+04  0.7818608E-02  0.8948010E-01
         -1   -1    0    0    0  501 -0.00000000000E+00  0.00000000000E+00  0.86147844108E+03  0.86147844108E+03  0.00000000000E+00 0.  1.
          2   -1    0    0  501    0  0.00000000000E+00 -0.00000000000E+00 -0.57535192056E+03  0.57535192056E+03  0.00000000000E+00 0. -1.
         24    2    1    2    0    0 -0.18841319262E+03 -0.12687927697E+03 -0.26283320039E+03  0.35734060066E+03  0.83744442042E+02 0.  0.
        254    2    1    2    0    0  0.18841319262E+03  0.12687927697E+03  0.54895972091E+03  0.10794897610E+04  0.90130099678E+03 0.  0.
         23    2    4    4    0    0 -0.17760090092E+03 -0.24443925428E+03 -0.17668464359E+01  0.31613604765E+03  0.92985213001E+02 0.  0.
         23    2    4    4    0    0  0.36601409354E+03  0.37131853126E+03  0.55072656735E+03  0.76335371332E+03  0.86979143138E+02 0.  0.
          2    1    3    3  502    0 -0.13267437498E+03 -0.52190696406E+02 -0.19726152360E+03  0.24338953811E+03  0.00000000000E+00 0. -1.
         -1    1    3    3    0  502 -0.55738817639E+02 -0.74688580568E+02 -0.65571676790E+02  0.11395106255E+03  0.00000000000E+00 0.  1.
         11    1    5    5    0    0 -0.16696766561E+03 -0.20978141206E+03 -0.30543719518E+02  0.26985062721E+03  0.00000000000E+00 0. -1.
        -11    1    5    5    0    0 -0.10633235307E+02 -0.34657842226E+02  0.28776873083E+02  0.46285420440E+02  0.00000000000E+00 0.  1.
          1    1    6    6  503    0  0.29120041284E+03  0.31472170867E+03  0.40348757549E+03  0.58876961362E+03  0.00000000000E+00 0. -1.
         -1    1    6    6    0  503  0.74813680696E+02  0.56596822583E+02  0.14723899186E+03  0.17458409970E+03  0.00000000000E+00 0.  1.
<mgrwt>
<rscale>  0 0.14080529E+04</rscale>
<asrwt>0</asrwt>
<pdfrwt beam="1">  1        2 0.88515680E-01 0.14080529E+04</pdfrwt>
<pdfrwt beam="2">  1       -1 0.13253515E+00 0.14080529E+04</pdfrwt>
<totfact> 0.28013607E+01</totfact>
</mgrwt>
</event>
<event>
12    6  0.9533401E-008  0.2777307E+04  0.7818608E-02  0.8310348E-01
          2   -1    0    0  501    0  0.00000000000E+00  0.00000000000E+00  0.49662784523E+03  0.49662784523E+03  0.00000000000E+00 0. -1.
         -1   -1    0    0    0  501 -0.00000000000E+00 -0.00000000000E+00 -0.38829047711E+04  0.38829047711E+04  0.00000000000E+00 0.  1.
         24    2    1    2    0    0  0.36255069392E+03  0.96671993077E+03 -0.47225678569E+03  0.11380641187E+04  0.78568672831E+02 0.  0.
        254    2    1    2    0    0 -0.36255069392E+03 -0.96671993077E+03 -0.29140201401E+04  0.32414684976E+04  0.97448151022E+03 0.  0.
         23    2    4    4    0    0 -0.56823678386E+03 -0.45321225472E+03 -0.95641428842E+03  0.12047946045E+04  0.92235337642E+02 0.  0.
         23    2    4    4    0    0  0.20568608994E+03 -0.51350767605E+03 -0.19576058517E+04  0.20366738932E+04  0.99110924892E+02 0.  0.
          2    1    3    3  502    0  0.28718311626E+03  0.84214027844E+03 -0.40062743261E+03  0.97579543481E+03  0.00000000000E+00 0. -1.
         -1    1    3    3    0  502  0.75367577665E+02  0.12457965233E+03 -0.71629353082E+02  0.16226868386E+03  0.00000000000E+00 0.  1.
         11    1    5    5    0    0 -0.53474417455E+03 -0.44887506418E+03 -0.92272697866E+03  0.11570934416E+04  0.00000000000E+00 0.  1.
        -11    1    5    5    0    0 -0.33492609304E+02 -0.43371905416E+01 -0.33687309761E+02  0.47701162866E+02  0.00000000000E+00 0. -1.
          3    1    6    6  503    0  0.87886810725E+02 -0.10574557329E+03 -0.48976492974E+03  0.50870021051E+03  0.00000000000E+00 0. -1.
         -3    1    6    6    0  503  0.11779927921E+03 -0.40776210276E+03 -0.14678409220E+04  0.15279736827E+04  0.00000000000E+00 0.  1.
<mgrwt>
<rscale>  0 0.27773071E+04</rscale>
<asrwt>0</asrwt>
<pdfrwt beam="1">  1        2 0.76404282E-01 0.27773071E+04</pdfrwt>
<pdfrwt beam="2">  1       -1 0.59736998E+00 0.27773071E+04</pdfrwt>
<totfact> 0.27498163E-02</totfact>
</mgrwt>
</event>
<event>
12    6  0.9533401E-008  0.3058640E+04  0.7818608E-02  0.8227181E-01
          2   -1    0    0  501    0  0.00000000000E+00  0.00000000000E+00  0.26019798177E+04  0.26019798177E+04  0.00000000000E+00 0. -1.
         -1   -1    0    0    0  501 -0.00000000000E+00 -0.00000000000E+00 -0.89886180839E+03  0.89886180839E+03  0.00000000000E+00 0.  1.
         24    2    1    2    0    0  0.63653784093E+03 -0.37659160017E+03 -0.57663243633E+03  0.94128712192E+03  0.80714453500E+02 0.  0.
        254    2    1    2    0    0 -0.63653784093E+03  0.37659160017E+03  0.22797504456E+04  0.25595545042E+04  0.89836268243E+03 0.  0.
         23    2    4    4    0    0 -0.12230739348E+03  0.38469763823E+03  0.29932368505E+03  0.51116569575E+03  0.93511115492E+02 0.  0.
         23    2    4    4    0    0 -0.51423044745E+03 -0.81060380556E+01  0.19804267606E+04  0.20483888084E+04  0.96477435131E+02 0.  0.
          4    1    3    3  502    0  0.71173594033E+02 -0.36281316409E+02 -0.96155013662E+02  0.12501120374E+03  0.00000000000E+00 0. -1.
         -3    1    3    3    0  502  0.56536424690E+03 -0.34031028376E+03 -0.48047742267E+03  0.81627591818E+03  0.00000000000E+00 0.  1.
         11    1    5    5    0    0 -0.91168390454E+02  0.26158542190E+03  0.14956683221E+03  0.31481557405E+03  0.00000000000E+00 0. -1.
        -11    1    5    5    0    0 -0.31139003030E+02  0.12311221633E+03  0.14975685284E+03  0.19635012170E+03  0.00000000000E+00 0.  1.
          1    1    6    6  503    0 -0.17731112454E+03  0.17284042539E+02  0.85381040901E+03  0.87219847944E+03  0.00000000000E+00 0. -1.
         -1    1    6    6    0  503 -0.33691932291E+03 -0.25390080595E+02  0.11266163516E+04  0.11761903290E+04  0.00000000000E+00 0.  1.
<mgrwt>
<rscale>  0 0.30586404E+04</rscale>
<asrwt>0</asrwt>
<pdfrwt beam="1">  1        2 0.40030458E+00 0.30586404E+04</pdfrwt>
<pdfrwt beam="2">  1       -1 0.13828643E+00 0.30586404E+04</pdfrwt>
<totfact> 0.12715451E+00</totfact>
</mgrwt>
</event>
<event>
12    6  0.9533401E-008  0.1826010E+04  0.7818608E-02  0.8692589E-01
         -1   -1    0    0    0  501 -0.00000000000E+00  0.00000000000E+00  0.37529757760E+03  0.37529757760E+03  0.00000000000E+00 0.  1.
          2   -1    0    0  501    0  0.00000000000E+00 -0.00000000000E+00 -0.22211123810E+04  0.22211123810E+04  0.00000000000E+00 0. -1.
         24    2    1    2    0    0 -0.49751988893E+03  0.56924464557E+02 -0.13494541748E+04  0.14416362598E+04  0.80759526675E+02 0.  0.
        254    2    1    2    0    0  0.49751988893E+03 -0.56924464557E+02 -0.49636062853E+03  0.11547736987E+04  0.91452828670E+03 0.  0.
         23    2    4    4    0    0 -0.23154247699E+03 -0.16610785366E+03 -0.15363884152E+03  0.33659579564E+03  0.92130876037E+02 0.  0.
         23    2    4    4    0    0  0.72906236591E+03  0.10918338910E+03 -0.34272178700E+03  0.81817790309E+03  0.92216657788E+02 0.  0.
          2    1    3    3  502    0 -0.48093950172E+03  0.69124777124E+02 -0.13085258354E+04  0.13958226611E+04  0.00000000000E+00 0. -1.
         -1    1    3    3    0  502 -0.16580387205E+02 -0.12200312567E+02 -0.40928339390E+02  0.45813598765E+02  0.00000000000E+00 0.  1.
         11    1    5    5    0    0 -0.14972191689E+01 -0.31471414229E+02 -0.66346258475E+01  0.32197978803E+02  0.00000000000E+00 0. -1.
        -11    1    5    5    0    0 -0.23004525782E+03 -0.13463643943E+03 -0.14700421568E+03  0.30439781683E+03  0.00000000000E+00 0.  1.
          3    1    6    6  503    0  0.11130562755E+03  0.49889035292E+02 -0.65944496125E+02  0.13865978197E+03  0.00000000000E+00 0. -1.
         -3    1    6    6    0  503  0.61775673836E+03  0.59294353809E+02 -0.27677729088E+03  0.67951812112E+03  0.00000000000E+00 0.  1.
<mgrwt>
<rscale>  0 0.18260100E+04</rscale>
<asrwt>0</asrwt>
<pdfrwt beam="1">  1        2 0.34170959E+00 0.18260100E+04</pdfrwt>
<pdfrwt beam="2">  1       -1 0.57738091E-01 0.18260100E+04</pdfrwt>
<totfact> 0.16381848E+01</totfact>
</mgrwt>
</event>
<event>
12    6  0.9533401E-008  0.1467437E+04  0.7818608E-02  0.8906401E-01
         -1   -1    0    0    0  501 -0.00000000000E+00  0.00000000000E+00  0.18729659692E+03  0.18729659692E+03  0.00000000000E+00 0.  1.
          2   -1    0    0  501    0  0.00000000000E+00 -0.00000000000E+00 -0.28742780975E+04  0.28742780975E+04  0.00000000000E+00 0. -1.
         24    2    1    2    0    0  0.26853742975E+03  0.14967289178E+02 -0.14823233522E+04  0.15086279974E+04  0.79621247373E+02 0.  0.
        254    2    1    2    0    0 -0.26853742975E+03 -0.14967289178E+02 -0.12046581484E+04  0.15529466970E+04  0.94239366431E+03 0.  0.
         23    2    4    4    0    0  0.10592804776E+03 -0.39929258208E+03 -0.40703539128E+03  0.58696762848E+03  0.90542088166E+02 0.  0.
         23    2    4    4    0    0 -0.37446547750E+03  0.38432529290E+03 -0.79762275708E+03  0.96597906856E+03  0.94779605874E+02 0.  0.
          4    1    3    3  502    0  0.23552185666E+03  0.11340646749E+01 -0.13859823005E+04  0.14058516167E+04  0.00000000000E+00 0. -1.
         -3    1    3    3    0  502  0.33015573088E+02  0.13833224503E+02 -0.96341051746E+02  0.10277638064E+03  0.00000000000E+00 0.  1.
         11    1    5    5    0    0  0.11638629728E+03 -0.38510934704E+03 -0.37290062682E+03  0.54855251057E+03  0.00000000000E+00 0. -1.
        -11    1    5    5    0    0 -0.10458249526E+02 -0.14183235037E+02 -0.34134764464E+02  0.38415117913E+02  0.00000000000E+00 0.  1.
          4    1    6    6  503    0 -0.37414028261E+03  0.35995242960E+03 -0.77426380375E+03  0.93221839739E+03  0.00000000000E+00 0. -1.
         -4    1    6    6    0  503 -0.32519489304E+00  0.24372863298E+02 -0.23358953331E+02  0.33760671169E+02  0.00000000000E+00 0.  1.
<mgrwt>
<rscale>  0 0.14674365E+04</rscale>
<asrwt>0</asrwt>
<pdfrwt beam="1">  1        2 0.44219661E+00 0.14674365E+04</pdfrwt>
<pdfrwt beam="2">  1       -1 0.28814862E-01 0.14674365E+04</pdfrwt>
<totfact> 0.25329636E+01</totfact>
</mgrwt>
</event>
<event>
12    6  0.9533401E-008  0.1124479E+04  0.7818608E-02  0.9181656E-01
         -1   -1    0    0    0  501 -0.00000000000E+00  0.00000000000E+00  0.14330757931E+03  0.14330757931E+03  0.00000000000E+00 0.  1.
          2   -1    0    0  501    0  0.00000000000E+00 -0.00000000000E+00 -0.22058373605E+04  0.22058373605E+04  0.00000000000E+00 0. -1.
         24    2    1    2    0    0 -0.16292684171E+03  0.57496739486E+02 -0.48236981792E+03  0.51811093318E+03  0.76858747330E+02 0.  0.
        254    2    1    2    0    0  0.16292684171E+03 -0.57496739486E+02 -0.15801599633E+04  0.18310340066E+04  0.90880635621E+03 0.  0.
         23    2    4    4    0    0 -0.36470411969E+03  0.18677919220E+02 -0.76975382953E+03  0.85687739519E+03  0.91432777015E+02 0.  0.
         23    2    4    4    0    0  0.52763096140E+03 -0.76174658706E+02 -0.81040613376E+03  0.97415661146E+03  0.89587900700E+02 0.  0.
          4    1    3    3  502    0 -0.13162781803E+03  0.26082554248E+02 -0.42450227183E+03  0.44520597582E+03  0.00000000000E+00 0. -1.
         -3    1    3    3    0  502 -0.31299023685E+02  0.31414185238E+02 -0.57867546085E+02  0.72904957360E+02  0.00000000000E+00 0.  1.
         11    1    5    5    0    0 -0.15785216240E+03  0.17938793464E+02 -0.43796380567E+03  0.46588775533E+03  0.00000000000E+00 0. -1.
        -11    1    5    5    0    0 -0.20685195729E+03  0.73912575555E+00 -0.33179002386E+03  0.39098963986E+03  0.00000000000E+00 0.  1.
          4    1    6    6  503    0  0.48495984398E+03 -0.59532414918E+02 -0.69121408250E+03  0.84646740430E+03  0.00000000000E+00 0. -1.
         -4    1    6    6    0  503  0.42671117418E+02 -0.16642243788E+02 -0.11919205126E+03  0.12768920715E+03  0.00000000000E+00 0.  1.
<mgrwt>
<rscale>  0 0.11244789E+04</rscale>
<asrwt>0</asrwt>
<pdfrwt beam="1">  1        2 0.33935958E+00 0.11244789E+04</pdfrwt>
<pdfrwt beam="2">  1       -1 0.22047321E-01 0.11244789E+04</pdfrwt>
<totfact> 0.10086302E+02</totfact>
</mgrwt>
</event>
<event>
12    6  0.9533401E-008  0.1213922E+04  0.7818608E-02  0.9100758E-01
          2   -1    0    0  501    0  0.00000000000E+00  0.00000000000E+00  0.35268040607E+03  0.35268040607E+03  0.00000000000E+00 0. -1.
         -1   -1    0    0    0  501 -0.00000000000E+00 -0.00000000000E+00 -0.10445757590E+04  0.10445757590E+04  0.00000000000E+00 0.  1.
         24    2    1    2    0    0 -0.37341150488E+02 -0.22770218089E+03 -0.23648216519E+02  0.24482811529E+03  0.78351280717E+02 0.  0.
        254    2    1    2    0    0  0.37341150488E+02  0.22770218089E+03 -0.66824713639E+03  0.11524280498E+04  0.91010632888E+03 0.  0.
         23    2    4    4    0    0 -0.70423655556E+02  0.23567195585E+03 -0.86766301777E+03  0.90644088056E+03  0.91077963884E+02 0.  0.
         23    2    4    4    0    0  0.10776480604E+03 -0.79697749593E+01  0.19941588138E+03  0.24598716920E+03  0.95216715606E+02 0.  0.
          2    1    3    3  502    0 -0.61437879788E+02 -0.17636421292E+03 -0.13807666944E+02  0.18726879168E+03  0.00000000000E+00 0. -1.
         -1    1    3    3    0  502  0.24096729299E+02 -0.51337967967E+02 -0.98405495754E+01  0.57559323605E+02  0.00000000000E+00 0.  1.
         11    1    5    5    0    0  0.22146801710E+02  0.37338174514E+02 -0.14171558114E+03  0.14821580900E+03  0.00000000000E+00 0.  1.
        -11    1    5    5    0    0 -0.92570457266E+02  0.19833378133E+03 -0.72594743663E+03  0.75822507155E+03  0.00000000000E+00 0. -1.
          3    1    6    6  503    0  0.10719116453E+03 -0.16926437147E+02  0.10452098685E+03  0.15066879810E+03  0.00000000000E+00 0. -1.
         -3    1    6    6    0  503  0.57364151317E+00  0.89566621881E+01  0.94894894529E+02  0.95318371104E+02  0.00000000000E+00 0.  1.
<mgrwt>
<rscale>  0 0.12139216E+04</rscale>
<asrwt>0</asrwt>
<pdfrwt beam="1">  1        2 0.54258524E-01 0.12139216E+04</pdfrwt>
<pdfrwt beam="2">  1       -1 0.16070396E+00 0.12139216E+04</pdfrwt>
<totfact> 0.29857609E+01</totfact>
</mgrwt>
</event>
<event>
12    6  0.9533401E-008  0.1170956E+04  0.7818608E-02  0.9138665E-01
          2   -1    0    0  501    0  0.00000000000E+00  0.00000000000E+00  0.36494559906E+03  0.36494559906E+03  0.00000000000E+00 0. -1.
         -1   -1    0    0    0  501 -0.00000000000E+00 -0.00000000000E+00 -0.93927577773E+03  0.93927577773E+03  0.00000000000E+00 0.  1.
         24    2    1    2    0    0 -0.21058826174E+02  0.19958868632E+03  0.62204763454E+01  0.21627802601E+03  0.80363999027E+02 0.  0.
        254    2    1    2    0    0  0.21058826174E+02 -0.19958868632E+03 -0.58055065502E+03  0.10879433508E+04  0.89794351359E+03 0.  0.
         23    2    4    4    0    0 -0.47212997394E+02 -0.49416974191E+02  0.22949987176E+03  0.25625766913E+03  0.91250739123E+02 0.  0.
         23    2    4    4    0    0  0.68271823568E+02 -0.15017171213E+03 -0.81005052678E+03  0.83168568165E+03  0.91140726893E+02 0.  0.
          2    1    3    3  502    0 -0.12509236983E+02  0.13983800818E+03 -0.33094165080E+02  0.14424414478E+03  0.00000000000E+00 0. -1.
         -1    1    3    3    0  502 -0.85495891904E+01  0.59750678143E+02  0.39314641426E+02  0.72033881225E+02  0.00000000000E+00 0.  1.
         11    1    5    5    0    0 -0.31131073808E+02 -0.76396631503E+02  0.17098690394E+03  0.18984759777E+03  0.00000000000E+00 0. -1.
        -11    1    5    5    0    0 -0.16081923586E+02  0.26979657311E+02  0.58512967826E+02  0.66410071365E+02  0.00000000000E+00 0.  1.
          1    1    6    6  503    0  0.34009137894E+02 -0.33875142454E+02 -0.43228502216E+03  0.43494193534E+03  0.00000000000E+00 0. -1.
         -1    1    6    6    0  503  0.34262685674E+02 -0.11629656968E+03 -0.37776550462E+03  0.39674374631E+03  0.00000000000E+00 0.  1.
<mgrwt>
<rscale>  0 0.11709561E+04</rscale>
<asrwt>0</asrwt>
<pdfrwt beam="1">  1        2 0.56145477E-01 0.11709561E+04</pdfrwt>
<pdfrwt beam="2">  1       -1 0.14450397E+00 0.11709561E+04</pdfrwt>
<totfact> 0.38486562E+01</totfact>
</mgrwt>
</event>
<event>
12    6  0.9533401E-008  0.1173738E+04  0.7818608E-02  0.9136160E-01
          2   -1    0    0  501    0  0.00000000000E+00  0.00000000000E+00  0.34362633327E+04  0.34362633327E+04  0.00000000000E+00 0. -1.
         -1   -1    0    0    0  501 -0.00000000000E+00 -0.00000000000E+00 -0.10022949793E+03  0.10022949793E+03  0.00000000000E+00 0.  1.
         24    2    1    2    0    0  0.14945050932E+03 -0.84300794022E+02  0.11454588905E+04  0.11610041676E+04  0.80078266347E+02 0.  0.
        254    2    1    2    0    0 -0.14945050932E+03  0.84300794022E+02  0.21905749443E+04  0.23754886631E+04  0.90271020997E+03 0.  0.
         23    2    4    4    0    0 -0.15964352437E+01 -0.28103371124E+03  0.17585961424E+04  0.17832121959E+04  0.90569575361E+02 0.  0.
         23    2    4    4    0    0 -0.14785407407E+03  0.36533450526E+03  0.43197880186E+03  0.59227646716E+03  0.94104199396E+02 0.  0.
          2    1    3    3  502    0  0.87317423462E+02 -0.87067077236E+02  0.86405076389E+03  0.87280509334E+03  0.00000000000E+00 0. -1.
         -1    1    3    3    0  502  0.62133085854E+02  0.27662832135E+01  0.28140812661E+03  0.28819907426E+03  0.00000000000E+00 0.  1.
         11    1    5    5    0    0 -0.37994367290E+02 -0.20820119272E+03  0.13619210572E+04  0.13782671275E+04  0.00000000000E+00 0. -1.
        -11    1    5    5    0    0  0.36397932046E+02 -0.72832518522E+02  0.39667508523E+03  0.40494506844E+03  0.00000000000E+00 0.  1.
          1    1    6    6  503    0 -0.99460035626E+02  0.32641727659E+03  0.34353170895E+03  0.48420509311E+03  0.00000000000E+00 0. -1.
         -1    1    6    6    0  503 -0.48394038446E+02  0.38917228672E+02  0.88447092912E+02  0.10807137405E+03  0.00000000000E+00 0.  1.
<mgrwt>
<rscale>  0 0.11737375E+04</rscale>
<asrwt>0</asrwt>
<pdfrwt beam="1">  1        2 0.52865581E+00 0.11737375E+04</pdfrwt>
<pdfrwt beam="2">  1       -1 0.15419925E-01 0.11737375E+04</pdfrwt>
<totfact> 0.32703836E+01</totfact>
</mgrwt>
</event>
<event>
12    6  0.9533401E-008  0.3075558E+04  0.7818608E-02  0.8222478E-01
          2   -1    0    0  501    0  0.00000000000E+00  0.00000000000E+00  0.19355795396E+04  0.19355795396E+04  0.00000000000E+00 0. -1.
         -1   -1    0    0    0  501 -0.00000000000E+00 -0.00000000000E+00 -0.12217343385E+04  0.12217343385E+04  0.00000000000E+00 0.  1.
         24    2    1    2    0    0 -0.69194558357E+03 -0.74655773495E+03 -0.66790251330E+03  0.12200207694E+04  0.78865507925E+02 0.  0.
        254    2    1    2    0    0  0.69194558357E+03  0.74655773495E+03  0.13817477144E+04  0.19372931086E+04  0.89874395704E+03 0.  0.
         23    2    4    4    0    0  0.13979977220E+03 -0.18320782252E+03  0.41169964471E+03  0.48165217502E+03  0.96866597466E+02 0.  0.
         23    2    4    4    0    0  0.55214581137E+03  0.92976555747E+03  0.97004806967E+03  0.14556409336E+04  0.92565011058E+02 0.  0.
          4    1    3    3  502    0 -0.10467085549E+02 -0.95492644355E+01  0.28762559863E+00  0.14171487559E+02  0.00000000000E+00 0. -1.
         -3    1    3    3    0  502 -0.68147849802E+03 -0.73700847051E+03 -0.66819013890E+03  0.12058492819E+04  0.00000000000E+00 0.  1.
         11    1    5    5    0    0  0.76441399586E+02 -0.39469924075E+02  0.95183945683E+02  0.12830099763E+03  0.00000000000E+00 0. -1.
        -11    1    5    5    0    0  0.63358372610E+02 -0.14373789844E+03  0.31651569903E+03  0.35335117739E+03  0.00000000000E+00 0.  1.
          3    1    6    6  503    0  0.79357646548E+02  0.20599478352E+03  0.20299162525E+03  0.29989512638E+03  0.00000000000E+00 0. -1.
         -3    1    6    6    0  503  0.47278816482E+03  0.72377077395E+03  0.76705644442E+03  0.11557458072E+04  0.00000000000E+00 0.  1.
<mgrwt>
<rscale>  0 0.30755578E+04</rscale>
<asrwt>0</asrwt>
<pdfrwt beam="1">  1        2 0.29778147E+00 0.30755578E+04</pdfrwt>
<pdfrwt beam="2">  1       -1 0.18795913E+00 0.30755578E+04</pdfrwt>
<totfact> 0.12825879E+00</totfact>
</mgrwt>
</event>
<event>
12    6  0.9533401E-008  0.2311783E+04  0.7818608E-02  0.8473290E-01
          2   -1    0    0  501    0  0.00000000000E+00  0.00000000000E+00  0.22402167630E+04  0.22402167630E+04  0.00000000000E+00 0. -1.
         -1   -1    0    0    0  501 -0.00000000000E+00 -0.00000000000E+00 -0.59640900378E+03  0.59640900378E+03  0.00000000000E+00 0.  1.
         24    2    1    2    0    0  0.87801524445E+03  0.43486729679E+03  0.68447846426E+03  0.11977651627E+04  0.78168291196E+02 0.  0.
        254    2    1    2    0    0 -0.87801524445E+03 -0.43486729679E+03  0.95932929497E+03  0.16388606040E+04  0.89751381493E+03 0.  0.
         23    2    4    4    0    0 -0.46561861479E+03  0.21466167096E+03  0.56878799051E+03  0.77134179181E+03  0.92563784661E+02 0.  0.
         23    2    4    4    0    0 -0.41239662966E+03 -0.64952896775E+03  0.39054130446E+03  0.86751881223E+03  0.90041762434E+02 0.  0.
          2    1    3    3  502    0  0.85008096249E+03  0.40426669632E+03  0.66003756127E+03  0.11496602919E+04  0.00000000000E+00 0. -1.
         -1    1    3    3    0  502  0.27934281964E+02  0.30600600473E+02  0.24440902992E+02  0.48104870826E+02  0.00000000000E+00 0.  1.
         11    1    5    5    0    0 -0.17130756058E+03  0.10521349883E+03  0.28025230539E+03  0.34490218226E+03  0.00000000000E+00 0.  1.
        -11    1    5    5    0    0 -0.29431105421E+03  0.10944817213E+03  0.28853568512E+03  0.42643960956E+03  0.00000000000E+00 0. -1.
          4    1    6    6  503    0 -0.24678502168E+03 -0.42382104377E+03  0.29173244423E+03  0.57064432274E+03  0.00000000000E+00 0. -1.
         -4    1    6    6    0  503 -0.16561160798E+03 -0.22570792398E+03  0.98808860228E+02  0.29687448948E+03  0.00000000000E+00 0.  1.
<mgrwt>
<rscale>  0 0.23117832E+04</rscale>
<asrwt>0</asrwt>
<pdfrwt beam="1">  1        2 0.34464873E+00 0.23117832E+04</pdfrwt>
<pdfrwt beam="2">  1       -1 0.91755232E-01 0.23117832E+04</pdfrwt>
<totfact> 0.58450085E+00</totfact>
</mgrwt>
</event>
<event>
12    6  0.9533401E-008  0.1902960E+04  0.7818608E-02  0.8653385E-01
          2   -1    0    0  501    0  0.00000000000E+00  0.00000000000E+00  0.70126447417E+03  0.70126447417E+03  0.00000000000E+00 0. -1.
         -1   -1    0    0    0  501 -0.00000000000E+00 -0.00000000000E+00 -0.12909736929E+04  0.12909736929E+04  0.00000000000E+00 0.  1.
         24    2    1    2    0    0  0.31420902788E+03 -0.81790054540E+02  0.45753348303E+03  0.56713254612E+03  0.82978976572E+02 0.  0.
        254    2    1    2    0    0 -0.31420902788E+03  0.81790054540E+02 -0.10472427017E+04  0.14251056209E+04  0.91038004605E+03 0.  0.
         23    2    4    4    0    0 -0.23794870495E+03  0.40905887652E+03 -0.94651776996E+03  0.10619502860E+04  0.88846893791E+02 0.  0.
         23    2    4    4    0    0 -0.76260322932E+02 -0.32726882197E+03 -0.10072493177E+03  0.36315533488E+03  0.93892314289E+02 0.  0.
          4    1    3    3  502    0  0.14947589861E+03  0.33521623941E+01  0.19535990431E+03  0.24600766954E+03  0.00000000000E+00 0. -1.
         -3    1    3    3    0  502  0.16473312927E+03 -0.85142216934E+02  0.26217357872E+03  0.32112487658E+03  0.00000000000E+00 0.  1.
         11    1    5    5    0    0 -0.34584181303E+02  0.79560668249E+02 -0.25574282448E+03  0.27005621230E+03  0.00000000000E+00 0. -1.
        -11    1    5    5    0    0 -0.20336452365E+03  0.32949820827E+03 -0.69077494547E+03  0.79189407374E+03  0.00000000000E+00 0.  1.
          2    1    6    6  503    0 -0.63859449386E+02 -0.29244525269E+03 -0.54983513797E+02  0.30434428183E+03  0.00000000000E+00 0.  1.
         -2    1    6    6    0  503 -0.12400873547E+02 -0.34823569287E+02 -0.45741417970E+02  0.58811053047E+02  0.00000000000E+00 0. -1.
<mgrwt>
<rscale>  0 0.19029598E+04</rscale>
<asrwt>0</asrwt>
<pdfrwt beam="1">  1        2 0.10788684E+00 0.19029598E+04</pdfrwt>
<pdfrwt beam="2">  1       -1 0.19861133E+00 0.19029598E+04</pdfrwt>
<totfact> 0.67232816E+00</totfact>
</mgrwt>
</event>
<event>
12    6  0.9533401E-008  0.3310595E+04  0.7818608E-02  0.8160205E-01
         -1   -1    0    0    0  501 -0.00000000000E+00  0.00000000000E+00  0.17648071118E+04  0.17648071118E+04  0.00000000000E+00 0.  1.
          2   -1    0    0  501    0  0.00000000000E+00 -0.00000000000E+00 -0.15525833409E+04  0.15525833409E+04  0.00000000000E+00 0. -1.
         24    2    1    2    0    0  0.25151552757E+03  0.10174167223E+04  0.12177867031E+04  0.16086757891E+04  0.80227754683E+02 0.  0.
        254    2    1    2    0    0 -0.25151552757E+03 -0.10174167223E+04 -0.10055629322E+04  0.17087146637E+04  0.90008452031E+03 0.  0.
         23    2    4    4    0    0 -0.19086019582E+03 -0.91359126869E+03 -0.29661233563E+03  0.98389246713E+03  0.94809749707E+02 0.  0.
         23    2    4    4    0    0 -0.60655331748E+02 -0.10382545365E+03 -0.70895059656E+03  0.72482219653E+03  0.91090472229E+02 0.  0.
          4    1    3    3  502    0  0.13124558958E+03  0.48557392341E+03  0.64351079296E+03  0.81677021281E+03  0.00000000000E+00 0. -1.
         -3    1    3    3    0  502  0.12026993799E+03  0.53184279893E+03  0.57427591011E+03  0.79190557625E+03  0.00000000000E+00 0.  1.
         11    1    5    5    0    0 -0.11511259624E+03 -0.73739493691E+03 -0.23485457973E+03  0.78240582591E+03  0.00000000000E+00 0. -1.
        -11    1    5    5    0    0 -0.75747599578E+02 -0.17619633178E+03 -0.61757755907E+02  0.20148664122E+03  0.00000000000E+00 0.  1.
          3    1    6    6  503    0 -0.74180643654E+02 -0.10822586796E+03 -0.55870793664E+03  0.57390780170E+03  0.00000000000E+00 0. -1.
         -3    1    6    6    0  503  0.13525311906E+02  0.44004143078E+01 -0.15024265991E+03  0.15091439483E+03  0.00000000000E+00 0.  1.
<mgrwt>
<rscale>  0 0.33105952E+04</rscale>
<asrwt>0</asrwt>
<pdfrwt beam="1">  1        2 0.23885897E+00 0.33105952E+04</pdfrwt>
<pdfrwt beam="2">  1       -1 0.27150879E+00 0.33105952E+04</pdfrwt>
<totfact> 0.56898000E-01</totfact>
</mgrwt>
</event>
<event>
12    6  0.9533401E-008  0.1997627E+04  0.7818608E-02  0.8607731E-01
         -1   -1    0    0    0  501 -0.00000000000E+00  0.00000000000E+00  0.10852988729E+04  0.10852988729E+04  0.00000000000E+00 0.  1.
          2   -1    0    0  501    0  0.00000000000E+00 -0.00000000000E+00 -0.91921993652E+03  0.91921993652E+03  0.00000000000E+00 0. -1.
         24    2    1    2    0    0 -0.11371398610E+03 -0.71941228396E+03 -0.25117317118E+03  0.77457352901E+03  0.79945512574E+02 0.  0.
        254    2    1    2    0    0  0.11371398610E+03  0.71941228396E+03  0.41725210758E+03  0.12299452804E+04  0.89898896913E+03 0.  0.
         23    2    4    4    0    0  0.11466384990E+03  0.92223926626E+03  0.30850542883E+03  0.98341848731E+03  0.90902468975E+02 0.  0.
         23    2    4    4    0    0 -0.94986380563E+00 -0.20282698230E+03  0.10874667875E+03  0.24652679311E+03  0.88373823006E+02 0.  0.
          2    1    3    3  502    0 -0.10199619127E+03 -0.64350275198E+03 -0.24971491817E+03  0.69775106964E+03  0.00000000000E+00 0. -1.
         -1    1    3    3    0  502 -0.11717794823E+02 -0.75909531983E+02 -0.14582530120E+01  0.76822459367E+02  0.00000000000E+00 0.  1.
         11    1    5    5    0    0  0.89052776821E+01  0.31507596199E+03  0.72211087997E+02  0.32336760355E+03  0.00000000000E+00 0.  1.
        -11    1    5    5    0    0  0.10575857222E+03  0.60716330427E+03  0.23629434083E+03  0.66005088377E+03  0.00000000000E+00 0. -1.
          4    1    6    6  503    0  0.30545469302E+02 -0.37959217138E+02  0.46951816163E+02  0.67663881810E+02  0.00000000000E+00 0. -1.
         -4    1    6    6    0  503 -0.31495333108E+02 -0.16486776516E+03  0.61794862587E+02  0.17886291130E+03  0.00000000000E+00 0.  1.
<mgrwt>
<rscale>  0 0.19976270E+04</rscale>
<asrwt>0</asrwt>
<pdfrwt beam="1">  1        2 0.14141845E+00 0.19976270E+04</pdfrwt>
<pdfrwt beam="2">  1       -1 0.16696906E+00 0.19976270E+04</pdfrwt>
<totfact> 0.78175234E+00</totfact>
</mgrwt>
</event>
<event>
12    6  0.9533401E-008  0.2011018E+04  0.7818608E-02  0.8601487E-01
          2   -1    0    0  501    0  0.00000000000E+00  0.00000000000E+00  0.84498627739E+03  0.84498627739E+03  0.00000000000E+00 0. -1.
         -1   -1    0    0    0  501 -0.00000000000E+00 -0.00000000000E+00 -0.11965265417E+04  0.11965265417E+04  0.00000000000E+00 0.  1.
         24    2    1    2    0    0  0.41943203992E+03 -0.60902676027E+03 -0.47463501314E+03  0.88278613677E+03  0.84830046226E+02 0.  0.
        254    2    1    2    0    0 -0.41943203992E+03  0.60902676027E+03  0.12309474885E+03  0.11587266823E+04  0.88354874017E+03 0.  0.
         23    2    4    4    0    0 -0.37085210875E+02 -0.20375492460E+03 -0.67637508627E+02  0.23607730890E+03  0.90919090626E+02 0.  0.
         23    2    4    4    0    0 -0.38234682904E+03  0.81278168488E+03  0.19073225747E+03  0.92264937340E+03  0.89999484683E+02 0.  0.
          2    1    3    3  502    0  0.34117959499E+03 -0.52980159998E+03 -0.37454957561E+03  0.73306250481E+03  0.00000000000E+00 0. -1.
         -1    1    3    3    0  502  0.78252444929E+02 -0.79225160297E+02 -0.10008543753E+03  0.14972363196E+03  0.00000000000E+00 0.  1.
         11    1    5    5    0    0 -0.49743226566E+02 -0.18865613888E+03 -0.35390779546E+02  0.19828775707E+03  0.00000000000E+00 0. -1.
        -11    1    5    5    0    0  0.12658015690E+02 -0.15098785724E+02 -0.32246729082E+02  0.37789551837E+02  0.00000000000E+00 0.  1.
          3    1    6    6  503    0 -0.15232848713E+03  0.42844621833E+03  0.89524824601E+02  0.46344883667E+03  0.00000000000E+00 0. -1.
         -3    1    6    6    0  503 -0.23001834191E+03  0.38433546655E+03  0.10120743287E+03  0.45920053673E+03  0.00000000000E+00 0.  1.
<mgrwt>
<rscale>  0 0.20110182E+04</rscale>
<asrwt>0</asrwt>
<pdfrwt beam="1">  1        2 0.12999789E+00 0.20110182E+04</pdfrwt>
<pdfrwt beam="2">  1       -1 0.18408100E+00 0.20110182E+04</pdfrwt>
<totfact> 0.65941058E+00</totfact>
</mgrwt>
</event>
<event>
12    6  0.9533401E-008  0.1245560E+04  0.7818608E-02  0.9073887E-01
         -1   -1    0    0    0  501 -0.00000000000E+00  0.00000000000E+00  0.55247318812E+03  0.55247318812E+03  0.00000000000E+00 0.  1.
          2   -1    0    0  501    0  0.00000000000E+00 -0.00000000000E+00 -0.70203426767E+03  0.70203426767E+03  0.00000000000E+00 0. -1.
         24    2    1    2    0    0 -0.91802210824E+02  0.15464784921E+03 -0.25820601272E+03  0.32461539594E+03  0.79757175839E+02 0.  0.
        254    2    1    2    0    0  0.91802210824E+02 -0.15464784921E+03  0.10864493317E+03  0.92989205985E+03  0.90584320845E+03 0.  0.
         23    2    4    4    0    0  0.22482960364E+03 -0.14816386507E+02 -0.34862173300E+03  0.42500853149E+03  0.91253839067E+02 0.  0.
         23    2    4    4    0    0 -0.13302739282E+03 -0.13983146270E+03  0.45726666617E+03  0.50488352836E+03  0.92549705660E+02 0.  0.
          4    1    3    3  502    0 -0.40342273604E+02  0.12230613671E+03 -0.21284362341E+03  0.24877439205E+03  0.00000000000E+00 0. -1.
         -3    1    3    3    0  502 -0.51459937220E+02  0.32341712498E+02 -0.45362389315E+02  0.75841003885E+02  0.00000000000E+00 0.  1.
         11    1    5    5    0    0  0.17370234527E+02  0.30701740325E+01  0.14389675116E+01  0.17698068923E+02  0.00000000000E+00 0.  1.
        -11    1    5    5    0    0  0.20745936911E+03 -0.17886560540E+02 -0.35006070051E+03  0.40731046257E+03  0.00000000000E+00 0. -1.
          2    1    6    6  503    0 -0.92397293564E+02 -0.90726300340E+02  0.39538248993E+03  0.41604787558E+03  0.00000000000E+00 0. -1.
         -2    1    6    6    0  503 -0.40630099252E+02 -0.49105162358E+02  0.61884176235E+02  0.88835652773E+02  0.00000000000E+00 0.  1.
<mgrwt>
<rscale>  0 0.12455603E+04</rscale>
<asrwt>0</asrwt>
<pdfrwt beam="1">  1        2 0.10800527E+00 0.12455603E+04</pdfrwt>
<pdfrwt beam="2">  1       -1 0.84995875E-01 0.12455603E+04</pdfrwt>
<totfact> 0.62840546E+01</totfact>
</mgrwt>
</event>
<event>
12    6  0.9533401E-008  0.2176942E+04  0.7818608E-02  0.8528087E-01
         -1   -1    0    0    0  501 -0.00000000000E+00  0.00000000000E+00  0.17266276720E+04  0.17266276720E+04  0.00000000000E+00 0.  1.
          2   -1    0    0  501    0  0.00000000000E+00 -0.00000000000E+00 -0.68617531081E+03  0.68617531081E+03  0.00000000000E+00 0. -1.
         24    2    1    2    0    0 -0.20391147277E+03  0.79312340237E+03  0.85308613807E+03  0.11853199162E+04  0.81257152100E+02 0.  0.
        254    2    1    2    0    0  0.20391147277E+03 -0.79312340237E+03  0.18736622312E+03  0.12274830666E+04  0.89497707067E+03 0.  0.
         23    2    4    4    0    0 -0.15082133693E+03 -0.25894325679E+03 -0.28700079540E+03  0.42460659381E+03  0.90125562632E+02 0.  0.
         23    2    4    4    0    0  0.35473280970E+03 -0.53418014558E+03  0.47436701852E+03  0.80287647275E+03  0.91666613500E+02 0.  0.
          2    1    3    3  502    0 -0.10481537935E+03  0.49489029071E+03  0.47797474889E+03  0.69596158239E+03  0.00000000000E+00 0. -1.
         -1    1    3    3    0  502 -0.99096093420E+02  0.29823311166E+03  0.37511138917E+03  0.48935833385E+03  0.00000000000E+00 0.  1.
         11    1    5    5    0    0 -0.84439540255E+02 -0.61504946091E+02 -0.89502886134E+02  0.13756329808E+03  0.00000000000E+00 0. -1.
        -11    1    5    5    0    0 -0.66381796671E+02 -0.19743831070E+03 -0.19749790927E+03  0.28704329573E+03  0.00000000000E+00 0.  1.
          2    1    6    6  503    0  0.94468573439E+02 -0.12090364357E+03  0.16200213070E+03  0.22312931844E+03  0.00000000000E+00 0.  1.
         -2    1    6    6    0  503  0.26026423626E+03 -0.41327650201E+03  0.31236488782E+03  0.57974715431E+03  0.00000000000E+00 0. -1.
<mgrwt>
<rscale>  0 0.21769421E+04</rscale>
<asrwt>0</asrwt>
<pdfrwt beam="1">  1        2 0.10556543E+00 0.21769421E+04</pdfrwt>
<pdfrwt beam="2">  1       -1 0.26563502E+00 0.21769421E+04</pdfrwt>
<totfact> 0.24223655E+00</totfact>
</mgrwt>
</event>
<event>
12    6  0.9533401E-008  0.1321961E+04  0.7818608E-02  0.9012329E-01
          2   -1    0    0  501    0  0.00000000000E+00  0.00000000000E+00  0.80370338094E+03  0.80370338094E+03  0.00000000000E+00 0. -1.
         -1   -1    0    0    0  501 -0.00000000000E+00 -0.00000000000E+00 -0.54360221973E+03  0.54360221973E+03  0.00000000000E+00 0.  1.
         24    2    1    2    0    0  0.28727286872E+03 -0.66529340025E+02 -0.10937728090E+03  0.32404842066E+03  0.78052131068E+02 0.  0.
        254    2    1    2    0    0 -0.28727286872E+03  0.66529340025E+02  0.36947844211E+03  0.10232571800E+04  0.90751808967E+03 0.  0.
         23    2    4    4    0    0 -0.35192254850E+03  0.12840389517E+03  0.62663531226E+03  0.73593605998E+03  0.92698594256E+02 0.  0.
         23    2    4    4    0    0  0.64649679777E+02 -0.61874555143E+02 -0.25715687015E+03  0.28732112003E+03  0.91737279676E+02 0.  0.
          2    1    3    3  502    0  0.19256190414E+03 -0.55970537531E+02 -0.11005898565E+03  0.22874826408E+03  0.00000000000E+00 0. -1.
         -1    1    3    3    0  502  0.94710964580E+02 -0.10558802494E+02  0.68170474826E+00  0.95300156574E+02  0.00000000000E+00 0.  1.
         11    1    5    5    0    0 -0.19284489934E+03  0.26818186138E+02  0.27658478490E+03  0.33824179746E+03  0.00000000000E+00 0.  1.
        -11    1    5    5    0    0 -0.15907764916E+03  0.10158570903E+03  0.35005052736E+03  0.39769426252E+03  0.00000000000E+00 0. -1.
          4    1    6    6  503    0  0.54471763138E+01 -0.66444950617E+02 -0.16168323212E+03  0.17488873818E+03  0.00000000000E+00 0. -1.
         -4    1    6    6    0  503  0.59202503463E+02  0.45703954742E+01 -0.95473638023E+02  0.11243238185E+03  0.00000000000E+00 0.  1.
<mgrwt>
<rscale>  0 0.13219606E+04</rscale>
<asrwt>0</asrwt>
<pdfrwt beam="1">  1        2 0.12364667E+00 0.13219606E+04</pdfrwt>
<pdfrwt beam="2">  1       -1 0.83631111E-01 0.13219606E+04</pdfrwt>
<totfact> 0.54268508E+01</totfact>
</mgrwt>
</event>
<event>
12    6  0.9533401E-008  0.3571751E+04  0.7818608E-02  0.8096993E-01
         -1   -1    0    0    0  501 -0.00000000000E+00  0.00000000000E+00  0.13169281575E+04  0.13169281575E+04  0.00000000000E+00 0.  1.
          2   -1    0    0  501    0  0.00000000000E+00 -0.00000000000E+00 -0.24218107806E+04  0.24218107806E+04  0.00000000000E+00 0. -1.
         24    2    1    2    0    0 -0.44355236303E+03 -0.15083972780E+04  0.76789815627E+02  0.15760657659E+04  0.78010100374E+02 0.  0.
        254    2    1    2    0    0  0.44355236303E+03  0.15083972780E+04 -0.11816724387E+04  0.21626731722E+04  0.89933556051E+03 0.  0.
         23    2    4    4    0    0  0.26859024279E+03  0.72166593623E+01 -0.28777388902E+03  0.40440352318E+03  0.92388309113E+02 0.  0.
         23    2    4    4    0    0  0.17496212023E+03  0.15011806186E+04 -0.89389854967E+03  0.17582696490E+04  0.91118320504E+02 0.  0.
          4    1    3    3  502    0 -0.18813129945E+03 -0.70265658542E+03  0.70180043372E+02  0.73078375827E+03  0.00000000000E+00 0. -1.
         -3    1    3    3    0  502 -0.25542106357E+03 -0.80574069254E+03  0.66097722550E+01  0.84528200763E+03  0.00000000000E+00 0.  1.
         11    1    5    5    0    0  0.23221722682E+03  0.31627458046E+02 -0.20780104943E+03  0.31321943215E+03  0.00000000000E+00 0.  1.
        -11    1    5    5    0    0  0.36373015970E+02 -0.24410798684E+02 -0.79972839596E+02  0.91184091026E+02  0.00000000000E+00 0. -1.
          3    1    6    6  503    0  0.17701406722E+03  0.14136936902E+04 -0.82087326702E+03  0.16442921730E+04  0.00000000000E+00 0. -1.
         -3    1    6    6    0  503 -0.20519469875E+01  0.87486928345E+02 -0.73025282654E+02  0.11397747595E+03  0.00000000000E+00 0.  1.
<mgrwt>
<rscale>  0 0.35717507E+04</rscale>
<asrwt>0</asrwt>
<pdfrwt beam="1">  1        2 0.37258627E+00 0.35717507E+04</pdfrwt>
<pdfrwt beam="2">  1       -1 0.20260433E+00 0.35717507E+04</pdfrwt>
<totfact> 0.51787714E-01</totfact>
</mgrwt>
</event>
<event>
12    6  0.9533401E-008  0.2910896E+04  0.7818608E-02  0.8269643E-01
         -1   -1    0    0    0  501 -0.00000000000E+00  0.00000000000E+00  0.85881337636E+03  0.85881337636E+03  0.00000000000E+00 0.  1.
          2   -1    0    0  501    0  0.00000000000E+00 -0.00000000000E+00 -0.24665759656E+04  0.24665759656E+04  0.00000000000E+00 0. -1.
         24    2    1    2    0    0 -0.25842216502E+03  0.10359930566E+03  0.74119366658E+03  0.79584819976E+03  0.80569685197E+02 0.  0.
        254    2    1    2    0    0  0.25842216502E+03 -0.10359930566E+03 -0.23489562559E+04  0.25295411422E+04  0.89636380274E+03 0.  0.
         23    2    4    4    0    0  0.15786386708E+03 -0.46308296036E+03 -0.87819910748E+03  0.10095931529E+04  0.93154888604E+02 0.  0.
         23    2    4    4    0    0  0.10055829794E+03  0.35948365470E+03 -0.14707571484E+04  0.15199479894E+04  0.88175005387E+02 0.  0.
          2    1    3    3  502    0 -0.13623321058E+03  0.40996706664E+02  0.27172123474E+03  0.30671264570E+03  0.00000000000E+00 0. -1.
         -1    1    3    3    0  502 -0.12218895444E+03  0.62602598995E+02  0.46947243184E+03  0.48913555406E+03  0.00000000000E+00 0.  1.
         11    1    5    5    0    0  0.15165106803E+03 -0.34648689600E+03 -0.71574054890E+03  0.80952810259E+03  0.00000000000E+00 0.  1.
        -11    1    5    5    0    0  0.62127990428E+01 -0.11659606435E+03 -0.16245855858E+03  0.20006505029E+03  0.00000000000E+00 0. -1.
          2    1    6    6  503    0  0.10793575899E+03  0.29810918265E+03 -0.13072008047E+04  0.13450996828E+04  0.00000000000E+00 0. -1.
         -2    1    6    6    0  503 -0.73774610485E+01  0.61374472052E+02 -0.16355634366E+03  0.17484830655E+03  0.00000000000E+00 0.  1.
<mgrwt>
<rscale>  0 0.29108957E+04</rscale>
<asrwt>0</asrwt>
<pdfrwt beam="1">  1        2 0.37947322E+00 0.29108957E+04</pdfrwt>
<pdfrwt beam="2">  1       -1 0.13212514E+00 0.29108957E+04</pdfrwt>
<totfact> 0.17360403E+00</totfact>
</mgrwt>
</event>
<event>
12    6  0.9533401E-008  0.2856875E+04  0.7818608E-02  0.8285825E-01
         -1   -1    0    0    0  501 -0.00000000000E+00  0.00000000000E+00  0.10552173951E+04  0.10552173951E+04  0.00000000000E+00 0.  1.
          2   -1    0    0  501    0  0.00000000000E+00 -0.00000000000E+00 -0.19336621148E+04  0.19336621148E+04  0.00000000000E+00 0. -1.
         24    2    1    2    0    0 -0.81857593106E+02  0.11026438117E+03 -0.17321386104E+04  0.17399220742E+04  0.90364592310E+02 0.  0.
        254    2    1    2    0    0  0.81857593106E+02 -0.11026438117E+03  0.85369389073E+03  0.12489574357E+04  0.90124498211E+03 0.  0.
         23    2    4    4    0    0  0.26041392416E+03 -0.11507990456E+03  0.97141265705E+03  0.10162596971E+04  0.89902309639E+02 0.  0.
         23    2    4    4    0    0 -0.17855633105E+03  0.48155233987E+01 -0.11771876632E+03  0.23269773861E+03  0.91569519972E+02 0.  0.
          4    1    3    3  502    0 -0.66391821421E+02  0.11887012986E+03 -0.16626284377E+04  0.16681940246E+04  0.00000000000E+00 0. -1.
         -3    1    3    3    0  502 -0.15465771685E+02 -0.86057486982E+01 -0.69510172659E+02  0.71728049657E+02  0.00000000000E+00 0.  1.
         11    1    5    5    0    0  0.26178165700E+03 -0.10366536744E+03  0.95836867626E+03  0.99887269659E+03  0.00000000000E+00 0.  1.
        -11    1    5    5    0    0 -0.13677328480E+01 -0.11414537122E+02  0.13043980787E+02  0.17387000478E+02  0.00000000000E+00 0. -1.
          2    1    6    6  503    0 -0.50004166732E+02 -0.27230385696E+02 -0.22946831641E+01  0.56983999215E+02  0.00000000000E+00 0. -1.
         -2    1    6    6    0  503 -0.12855216432E+03  0.32045909094E+02 -0.11542408316E+03  0.17571373940E+03  0.00000000000E+00 0.  1.
<mgrwt>
<rscale>  0 0.28568751E+04</rscale>
<asrwt>0</asrwt>
<pdfrwt beam="1">  1        2 0.29748648E+00 0.28568751E+04</pdfrwt>
<pdfrwt beam="2">  1       -1 0.16234114E+00 0.28568751E+04</pdfrwt>
<totfact> 0.20110240E+00</totfact>
</mgrwt>
</event>
<event>
12    6  0.9533401E-008  0.2889479E+04  0.7818608E-02  0.8276015E-01
         -1   -1    0    0    0  501 -0.00000000000E+00  0.00000000000E+00  0.15794186534E+04  0.15794186534E+04  0.00000000000E+00 0.  1.
          2   -1    0    0  501    0  0.00000000000E+00 -0.00000000000E+00 -0.13215446535E+04  0.13215446535E+04  0.00000000000E+00 0. -1.
         24    2    1    2    0    0  0.47760726152E+03  0.32958065735E+03 -0.10537025230E+04  0.12055884594E+04  0.80140005910E+02 0.  0.
        254    2    1    2    0    0 -0.47760726152E+03 -0.32958065735E+03  0.13115765228E+04  0.16953748475E+04  0.90406348909E+03 0.  0.
         23    2    4    4    0    0 -0.35689044176E+03 -0.85081883015E+02  0.13523878232E+04  0.14040946647E+04  0.88990387402E+02 0.  0.
         23    2    4    4    0    0 -0.12071681976E+03 -0.24449877433E+03 -0.40811300328E+02  0.29128018276E+03  0.93948823369E+02 0.  0.
          4    1    3    3  502    0  0.25109350546E+03  0.22126646874E+03 -0.60910585022E+03  0.69499405425E+03  0.00000000000E+00 0. -1.
         -3    1    3    3    0  502  0.22651375606E+03  0.10831418861E+03 -0.44459667278E+03  0.51059440516E+03  0.00000000000E+00 0.  1.
         11    1    5    5    0    0 -0.10461318819E+03 -0.33004198034E+02  0.26906820647E+03  0.29056995020E+03  0.00000000000E+00 0.  1.
        -11    1    5    5    0    0 -0.25227725357E+03 -0.52077684981E+02  0.10833196167E+04  0.11135247145E+04  0.00000000000E+00 0. -1.
          3    1    6    6  503    0 -0.10907322156E+03 -0.25098374199E+03 -0.44944691491E+02  0.27732621891E+03  0.00000000000E+00 0. -1.
         -3    1    6    6    0  503 -0.11643598205E+02  0.64849676545E+01  0.41333911640E+01  0.13953963851E+02  0.00000000000E+00 0.  1.
<mgrwt>
<rscale>  0 0.28894790E+04</rscale>
<asrwt>0</asrwt>
<pdfrwt beam="1">  1        2 0.20331456E+00 0.28894790E+04</pdfrwt>
<pdfrwt beam="2">  1       -1 0.24298748E+00 0.28894790E+04</pdfrwt>
<totfact> 0.12245846E+00</totfact>
</mgrwt>
</event>
<event>
12    6  0.9533401E-008  0.1569726E+04  0.7818608E-02  0.8839365E-01
         -1   -1    0    0    0  501 -0.00000000000E+00  0.00000000000E+00  0.49548793262E+03  0.49548793262E+03  0.00000000000E+00 0.  1.
          2   -1    0    0  501    0  0.00000000000E+00 -0.00000000000E+00 -0.12432394221E+04  0.12432394221E+04  0.00000000000E+00 0. -1.
         24    2    1    2    0    0  0.46549466481E+03 -0.13044576267E+03 -0.47126411773E+03  0.67991400821E+03  0.80571768875E+02 0.  0.
        254    2    1    2    0    0 -0.46549466481E+03  0.13044576267E+03 -0.27648737179E+03  0.10588133465E+04  0.90052154672E+03 0.  0.
         23    2    4    4    0    0 -0.43309958829E+03  0.17193643157E+03 -0.57309547130E+03  0.74382068231E+03  0.87712019255E+02 0.  0.
         23    2    4    4    0    0 -0.32395076517E+02 -0.41490668903E+02  0.29660809950E+03  0.31499266424E+03  0.92049428272E+02 0.  0.
          2    1    3    3  502    0  0.58843783282E+02 -0.33346000565E+02 -0.10033560456E+03  0.12100322363E+03  0.00000000000E+00 0. -1.
         -1    1    3    3    0  502  0.40665088153E+03 -0.97099762103E+02 -0.37092851316E+03  0.55891078458E+03  0.00000000000E+00 0.  1.
         11    1    5    5    0    0 -0.18171276747E+03  0.67887638890E+02 -0.30773817316E+03  0.36377334234E+03  0.00000000000E+00 0. -1.
        -11    1    5    5    0    0 -0.25138682082E+03  0.10404879268E+03 -0.26535729814E+03  0.38004733997E+03  0.00000000000E+00 0.  1.
          4    1    6    6  503    0 -0.29759894188E+02  0.24726423016E+02  0.88509810775E+02  0.96597276880E+02  0.00000000000E+00 0. -1.
         -4    1    6    6    0  503 -0.26351823286E+01 -0.66217091919E+02  0.20809828873E+03  0.21839538736E+03  0.00000000000E+00 0.  1.
<mgrwt>
<rscale>  0 0.15697263E+04</rscale>
<asrwt>0</asrwt>
<pdfrwt beam="1">  1        2 0.19126760E+00 0.15697263E+04</pdfrwt>
<pdfrwt beam="2">  1       -1 0.76228913E-01 0.15697263E+04</pdfrwt>
<totfact> 0.33804410E+01</totfact>
</mgrwt>
</event>
<event>
12    6  0.9533401E-008  0.2257380E+04  0.7818608E-02  0.8494918E-01
          2   -1    0    0  501    0  0.00000000000E+00  0.00000000000E+00  0.12432794083E+04  0.12432794083E+04  0.00000000000E+00 0. -1.
         -1   -1    0    0    0  501 -0.00000000000E+00 -0.00000000000E+00 -0.10246620254E+04  0.10246620254E+04  0.00000000000E+00 0.  1.
         24    2    1    2    0    0  0.79464766411E+02 -0.69182708223E+03 -0.55461679574E+03  0.89383113135E+03  0.79968371526E+02 0.  0.
        254    2    1    2    0    0 -0.79464766411E+02  0.69182708223E+03  0.77323417863E+03  0.13741103024E+04  0.89741220597E+03 0.  0.
         23    2    4    4    0    0  0.26951056061E+03  0.66052628891E+03  0.69754124687E+03  0.10024720688E+04  0.97239585787E+02 0.  0.
         23    2    4    4    0    0 -0.34897532703E+03  0.31300793318E+02  0.75692931763E+02  0.37163823361E+03  0.98091988604E+02 0.  0.
          4    1    3    3  502    0 -0.13148821461E+02 -0.96144724307E+02 -0.60392253841E+02  0.11429752334E+03  0.00000000000E+00 0. -1.
         -1    1    3    3    0  502  0.92613587871E+02 -0.59568235792E+03 -0.49422454190E+03  0.77953360801E+03  0.00000000000E+00 0.  1.
         11    1    5    5    0    0  0.30023812325E+01 -0.16799342483E+01 -0.11387879519E+01  0.36239909138E+01  0.00000000000E+00 0.  1.
        -11    1    5    5    0    0  0.26650817938E+03  0.66220622316E+03  0.69868003482E+03  0.99884807790E+03  0.00000000000E+00 0. -1.
          4    1    6    6  503    0 -0.52574056156E+02 -0.11518141782E+02 -0.19732715636E+02  0.57324331982E+02  0.00000000000E+00 0.  1.
         -4    1    6    6    0  503 -0.29640127087E+03  0.42818935100E+02  0.95425647399E+02  0.31431390163E+03  0.00000000000E+00 0. -1.
<mgrwt>
<rscale>  0 0.22573801E+04</rscale>
<asrwt>0</asrwt>
<pdfrwt beam="1">  1        2 0.19127376E+00 0.22573801E+04</pdfrwt>
<pdfrwt beam="2">  1       -1 0.15764031E+00 0.22573801E+04</pdfrwt>
<totfact> 0.56381939E+00</totfact>
</mgrwt>
</event>
<event>
12    6  0.9533401E-008  0.1832562E+04  0.7818608E-02  0.8689172E-01
          2   -1    0    0  501    0  0.00000000000E+00  0.00000000000E+00  0.50902360612E+03  0.50902360612E+03  0.00000000000E+00 0. -1.
         -1   -1    0    0    0  501 -0.00000000000E+00 -0.00000000000E+00 -0.16493759310E+04  0.16493759310E+04  0.00000000000E+00 0.  1.
         24    2    1    2    0    0 -0.65740985914E+03  0.26243607482E+03 -0.30422628187E+03  0.77456410847E+03  0.79595925013E+02 0.  0.
        254    2    1    2    0    0  0.65740985914E+03 -0.26243607482E+03 -0.83612604299E+03  0.13838354286E+04  0.84547815910E+03 0.  0.
         23    2    4    4    0    0  0.83801152949E+03 -0.26546476442E+03 -0.56893390956E+03  0.10510154106E+04  0.90624142092E+02 0.  0.
         23    2    4    4    0    0 -0.18060167034E+03  0.30286895923E+01 -0.26719213343E+03  0.33282001806E+03  0.82166854413E+02 0.  0.
          4    1    3    3  502    0 -0.26990013904E+03  0.79196883888E+02 -0.15174922429E+03  0.31960297018E+03  0.00000000000E+00 0. -1.
         -3    1    3    3    0  502 -0.38750972010E+03  0.18323919094E+03 -0.15247705758E+03  0.45496113829E+03  0.00000000000E+00 0.  1.
         11    1    5    5    0    0  0.74606082711E+03 -0.26419129067E+03 -0.51787260634E+03  0.94583076298E+03  0.00000000000E+00 0. -1.
        -11    1    5    5    0    0  0.91950702380E+02 -0.12734737485E+01 -0.51061303222E+02  0.10518464760E+03  0.00000000000E+00 0.  1.
          2    1    6    6  503    0 -0.17786294343E+03  0.21839209408E+02 -0.23658804012E+03  0.29679298921E+03  0.00000000000E+00 0. -1.
         -2    1    6    6    0  503 -0.27387269095E+01 -0.18810519815E+02 -0.30604093303E+02  0.36027028850E+02  0.00000000000E+00 0.  1.
<mgrwt>
<rscale>  0 0.18325625E+04</rscale>
<asrwt>0</asrwt>
<pdfrwt beam="1">  1        2 0.78311325E-01 0.18325625E+04</pdfrwt>
<pdfrwt beam="2">  1       -1 0.25375014E+00 0.18325625E+04</pdfrwt>
<totfact> 0.42764361E+00</totfact>
</mgrwt>
</event>
<event>
12    6  0.9533401E-008  0.1456762E+04  0.7818608E-02  0.8913726E-01
          2   -1    0    0  501    0  0.00000000000E+00  0.00000000000E+00  0.47272038422E+04  0.47272038422E+04  0.00000000000E+00 0. -1.
         -1   -1    0    0    0  501 -0.00000000000E+00 -0.00000000000E+00 -0.11223100296E+03  0.11223100296E+03  0.00000000000E+00 0.  1.
         24    2    1    2    0    0  0.63723227627E+02 -0.11617625666E+03  0.19819162513E+02  0.15572319262E+03  0.79368388960E+02 0.  0.
        254    2    1    2    0    0 -0.63723227627E+02  0.11617625666E+03  0.45951536768E+04  0.46837116526E+04  0.89674966348E+03 0.  0.
         23    2    4    4    0    0  0.35361760051E+03  0.88801628581E+02  0.32600348639E+04  0.32815977418E+04  0.90140379904E+02 0.  0.
         23    2    4    4    0    0 -0.41734082813E+03  0.27374628082E+02  0.13351188128E+04  0.14021139108E+04  0.91969763462E+02 0.  0.
          4    1    3    3  502    0 -0.14611243929E+02 -0.14391756197E+02  0.17976030671E+02  0.27271757814E+02  0.00000000000E+00 0. -1.
         -3    1    3    3    0  502  0.78334471556E+02 -0.10178450047E+03  0.18431318414E+01  0.12845143481E+03  0.00000000000E+00 0.  1.
         11    1    5    5    0    0  0.32851930707E+03  0.66542208046E+02  0.27296626982E+04  0.27501656762E+04  0.00000000000E+00 0.  1.
        -11    1    5    5    0    0  0.25098293439E+02  0.22259420534E+02  0.53037216575E+03  0.53143206560E+03  0.00000000000E+00 0. -1.
          1    1    6    6  503    0 -0.41275556865E+02 -0.42852624552E+01  0.65040729967E+02  0.77151355292E+02  0.00000000000E+00 0. -1.
         -1    1    6    6    0  503 -0.37606527127E+03  0.31659890537E+02  0.12700780829E+04  0.13249625555E+04  0.00000000000E+00 0.  1.
<mgrwt>
<rscale>  0 0.14567619E+04</rscale>
<asrwt>0</asrwt>
<pdfrwt beam="1">  1        2 0.72726198E+00 0.14567619E+04</pdfrwt>
<pdfrwt beam="2">  1       -1 0.17266312E-01 0.14567619E+04</pdfrwt>
<totfact> 0.21633230E+00</totfact>
</mgrwt>
</event>
<event>
12    6  0.9533401E-008  0.1949356E+04  0.7818608E-02  0.8630671E-01
          2   -1    0    0  501    0  0.00000000000E+00  0.00000000000E+00  0.29895344385E+04  0.29895344385E+04  0.00000000000E+00 0. -1.
         -1   -1    0    0    0  501 -0.00000000000E+00 -0.00000000000E+00 -0.31777433350E+03  0.31777433350E+03  0.00000000000E+00 0.  1.
         24    2    1    2    0    0  0.54253358843E+03 -0.39561381806E+03  0.44555859753E+03  0.81020062420E+03  0.83961896143E+02 0.  0.
        254    2    1    2    0    0 -0.54253358843E+03  0.39561381806E+03  0.22262015075E+04  0.24971081478E+04  0.91034222266E+03 0.  0.
         23    2    4    4    0    0  0.85524463971E+02 -0.70616614287E+02  0.11746761998E+04  0.11834056763E+04  0.91014724880E+02 0.  0.
         23    2    4    4    0    0 -0.62805805240E+03  0.46623043235E+03  0.10515253077E+04  0.13137024715E+04  0.90999877815E+02 0.  0.
          4    1    3    3  502    0  0.29011415562E+03 -0.18708288320E+03  0.27292286177E+03  0.44006035604E+03  0.00000000000E+00 0. -1.
         -3    1    3    3    0  502  0.25241943280E+03 -0.20853093486E+03  0.17263573576E+03  0.37014026816E+03  0.00000000000E+00 0.  1.
         11    1    5    5    0    0  0.19882062420E+01 -0.36060434210E+02  0.13306762768E+03  0.13788147597E+03  0.00000000000E+00 0. -1.
        -11    1    5    5    0    0  0.83536257729E+02 -0.34556180077E+02  0.10416085721E+04  0.10455242003E+04  0.00000000000E+00 0.  1.
          3    1    6    6  503    0 -0.21521753899E+03  0.21344928557E+03  0.42177471258E+03  0.51939685672E+03  0.00000000000E+00 0. -1.
         -3    1    6    6    0  503 -0.41284051340E+03  0.25278114678E+03  0.62975059510E+03  0.79430561480E+03  0.00000000000E+00 0.  1.
<mgrwt>
<rscale>  0 0.19493561E+04</rscale>
<asrwt>0</asrwt>
<pdfrwt beam="1">  1        2 0.45992836E+00 0.19493561E+04</pdfrwt>
<pdfrwt beam="2">  1       -1 0.48888361E-01 0.19493561E+04</pdfrwt>
<totfact> 0.78844683E+00</totfact>
</mgrwt>
</event>
<event>
12    6  0.9533401E-008  0.2097387E+04  0.7818608E-02  0.8562395E-01
         -1   -1    0    0    0  501 -0.00000000000E+00  0.00000000000E+00  0.76872341578E+03  0.76872341578E+03  0.00000000000E+00 0.  1.
          2   -1    0    0  501    0  0.00000000000E+00 -0.00000000000E+00 -0.14306289574E+04  0.14306289574E+04  0.00000000000E+00 0. -1.
         24    2    1    2    0    0  0.17537610422E+03 -0.55720273053E+03  0.38166336866E+03  0.70223335455E+03  0.78949961530E+02 0.  0.
        254    2    1    2    0    0 -0.17537610422E+03  0.55720273053E+03 -0.10435689103E+04  0.14971190187E+04  0.90060958499E+03 0.  0.
         23    2    4    4    0    0  0.23895650527E+03  0.42097742182E+03 -0.17818409258E+03  0.52388430230E+03  0.91558671131E+02 0.  0.
         23    2    4    4    0    0 -0.41433260949E+03  0.13622530872E+03 -0.86538481773E+03  0.97323471635E+03  0.89811381928E+02 0.  0.
          2    1    3    3  502    0  0.18752710875E+01 -0.10586012252E+03  0.65324566011E+02  0.12440731934E+03  0.00000000000E+00 0. -1.
         -1    1    3    3    0  502  0.17350083313E+03 -0.45134260802E+03  0.31633880265E+03  0.57782603521E+03  0.00000000000E+00 0.  1.
         11    1    5    5    0    0 -0.84172749061E+01  0.12367224006E+02 -0.43596741209E+01  0.15582217586E+02  0.00000000000E+00 0.  1.
        -11    1    5    5    0    0  0.24737378018E+03  0.40861019781E+03 -0.17382441846E+03  0.50830208472E+03  0.00000000000E+00 0. -1.
          4    1    6    6  503    0 -0.40071080024E+03  0.12951316303E+03 -0.77915443618E+03  0.88567739062E+03  0.00000000000E+00 0. -1.
         -4    1    6    6    0  503 -0.13621809247E+02  0.67121456912E+01 -0.86230381554E+02  0.87557325735E+02  0.00000000000E+00 0.  1.
<mgrwt>
<rscale>  0 0.20973869E+04</rscale>
<asrwt>0</asrwt>
<pdfrwt beam="1">  1        2 0.22009676E+00 0.20973869E+04</pdfrwt>
<pdfrwt beam="2">  1       -1 0.11826514E+00 0.20973869E+04</pdfrwt>
<totfact> 0.93655994E+00</totfact>
</mgrwt>
</event>
<event>
12    6  0.9533401E-008  0.1678923E+04  0.7818608E-02  0.8773477E-01
         -1   -1    0    0    0  501 -0.00000000000E+00  0.00000000000E+00  0.10706486290E+04  0.10706486290E+04  0.00000000000E+00 0.  1.
          2   -1    0    0  501    0  0.00000000000E+00 -0.00000000000E+00 -0.65819518169E+03  0.65819518169E+03  0.00000000000E+00 0. -1.
         24    2    1    2    0    0  0.79884373263E+02  0.55561763635E+03  0.34466322971E+03  0.66354790207E+03  0.80066257097E+02 0.  0.
        254    2    1    2    0    0 -0.79884373263E+02 -0.55561763635E+03  0.67790217586E+02  0.10652959086E+04  0.90286620735E+03 0.  0.
         23    2    4    4    0    0 -0.47852492567E+03 -0.25994479154E+03 -0.24347587461E+02  0.55207263072E+03  0.87372681333E+02 0.  0.
         23    2    4    4    0    0  0.39864055241E+03 -0.29567284480E+03  0.92137805047E+02  0.51322327788E+03  0.92585293954E+02 0.  0.
          4    1    3    3  502    0  0.67630729267E+01  0.13142838412E+03  0.11952955568E+03  0.17778209694E+03  0.00000000000E+00 0. -1.
         -3    1    3    3    0  502  0.73121300336E+02  0.42418925222E+03  0.22513367402E+03  0.48576580514E+03  0.00000000000E+00 0.  1.
         11    1    5    5    0    0 -0.16759715341E+03 -0.90437562116E+02  0.33148838642E+02  0.19330443341E+03  0.00000000000E+00 0. -1.
        -11    1    5    5    0    0 -0.31092777226E+03 -0.16950722942E+03 -0.57496426103E+02  0.35876819732E+03  0.00000000000E+00 0.  1.
          4    1    6    6  503    0  0.16730067188E+03 -0.86833399380E+02  0.94426810775E+00  0.18849521400E+03  0.00000000000E+00 0. -1.
         -4    1    6    6    0  503  0.23133988052E+03 -0.20883944542E+03  0.91193536939E+02  0.32472806387E+03  0.00000000000E+00 0.  1.
<mgrwt>
<rscale>  0 0.16789232E+04</rscale>
<asrwt>0</asrwt>
<pdfrwt beam="1">  1        2 0.10126080E+00 0.16789232E+04</pdfrwt>
<pdfrwt beam="2">  1       -1 0.16471517E+00 0.16789232E+04</pdfrwt>
<totfact> 0.12977752E+01</totfact>
</mgrwt>
</event>
<event>
12    6  0.9533401E-008  0.1131429E+04  0.7818608E-02  0.9175089E-01
          2   -1    0    0  501    0  0.00000000000E+00  0.00000000000E+00  0.10437276344E+04  0.10437276344E+04  0.00000000000E+00 0. -1.
         -1   -1    0    0    0  501 -0.00000000000E+00 -0.00000000000E+00 -0.30662471969E+03  0.30662471969E+03  0.00000000000E+00 0.  1.
         24    2    1    2    0    0  0.27213584708E+02  0.64787951216E+02 -0.74556175021E+02  0.13278862223E+03  0.84475660068E+02 0.  0.
        254    2    1    2    0    0 -0.27213584708E+02 -0.64787951216E+02  0.81165908974E+03  0.12175637319E+04  0.90483860738E+03 0.  0.
         23    2    4    4    0    0 -0.39459522011E+02 -0.18552844598E+03 -0.14181674478E+03  0.25186327160E+03  0.85704494259E+02 0.  0.
         23    2    4    4    0    0  0.12245937302E+02  0.12074049476E+03  0.95347583453E+03  0.96570046027E+03  0.93450424786E+02 0.  0.
          2    1    3    3  502    0 -0.26247169372E+02  0.13695644311E+02 -0.27831741487E+01  0.29736015730E+02  0.00000000000E+00 0. -1.
         -1    1    3    3    0  502  0.53460754080E+02  0.51092306905E+02 -0.71773000872E+02  0.10305260650E+03  0.00000000000E+00 0.  1.
         11    1    5    5    0    0 -0.30560852249E+02 -0.23638290325E+02 -0.35869902590E+01  0.38802074156E+02  0.00000000000E+00 0. -1.
        -11    1    5    5    0    0 -0.88986697619E+01 -0.16189015565E+03 -0.13822975452E+03  0.21306119745E+03  0.00000000000E+00 0.  1.
          3    1    6    6  503    0  0.74197008288E+01  0.88834372327E+02  0.34372738977E+03  0.35509874140E+03  0.00000000000E+00 0. -1.
         -3    1    6    6    0  503  0.48262364737E+01  0.31906122436E+02  0.60974844475E+03  0.61060171887E+03  0.00000000000E+00 0.  1.
<mgrwt>
<rscale>  0 0.11314286E+04</rscale>
<asrwt>0</asrwt>
<pdfrwt beam="1">  1        2 0.16057348E+00 0.11314286E+04</pdfrwt>
<pdfrwt beam="2">  1       -1 0.47173034E-01 0.11314286E+04</pdfrwt>
<totfact> 0.11960745E+02</totfact>
</mgrwt>
</event>
<event>
12    6  0.9533401E-008  0.2031812E+04  0.7818608E-02  0.8591890E-01
          2   -1    0    0  501    0  0.00000000000E+00  0.00000000000E+00  0.15989288381E+04  0.15989288381E+04  0.00000000000E+00 0. -1.
         -1   -1    0    0    0  501 -0.00000000000E+00 -0.00000000000E+00 -0.64547250312E+03  0.64547250312E+03  0.00000000000E+00 0.  1.
         24    2    1    2    0    0 -0.57481044980E+03 -0.35168222182E+03 -0.11896561682E+03  0.68900081721E+03  0.80510060224E+02 0.  0.
        254    2    1    2    0    0  0.57481044980E+03  0.35168222182E+03  0.10724219518E+04  0.15554005240E+04  0.90282584648E+03 0.  0.
         23    2    4    4    0    0  0.71887274684E+03 -0.10373315533E+02  0.73586841533E+03  0.10326341632E+04  0.89136740204E+02 0.  0.
         23    2    4    4    0    0 -0.14406229704E+03  0.36205553735E+03  0.33655353652E+03  0.52276636088E+03  0.90433553324E+02 0.  0.
          4    1    3    3  502    0 -0.63063640025E+02 -0.22324970938E+02 -0.32299554578E+02  0.74287874155E+02  0.00000000000E+00 0. -1.
         -3    1    3    3    0  502 -0.51174680977E+03 -0.32935725088E+03 -0.86666062239E+02  0.61471294306E+03  0.00000000000E+00 0.  1.
         11    1    5    5    0    0  0.12384657307E+03 -0.29892156955E+02  0.15784465284E+03  0.20284587533E+03  0.00000000000E+00 0. -1.
        -11    1    5    5    0    0  0.59502617377E+03  0.19518841422E+02  0.57802376248E+03  0.82978828784E+03  0.00000000000E+00 0.  1.
          4    1    6    6  503    0 -0.54189297566E+02  0.14342443224E+03  0.19193355963E+03  0.24565329033E+03  0.00000000000E+00 0. -1.
         -4    1    6    6    0  503 -0.89872999476E+02  0.21863110511E+03  0.14461997689E+03  0.27711307055E+03  0.00000000000E+00 0.  1.
<mgrwt>
<rscale>  0 0.20318116E+04</rscale>
<asrwt>0</asrwt>
<pdfrwt beam="1">  1        2 0.24598905E+00 0.20318116E+04</pdfrwt>
<pdfrwt beam="2">  1       -1 0.99303462E-01 0.20318116E+04</pdfrwt>
<totfact> 0.11416562E+01</totfact>
</mgrwt>
</event>
<event>
12    6  0.9533401E-008  0.2581958E+04  0.7818608E-02  0.8374356E-01
         -1   -1    0    0    0  501 -0.00000000000E+00  0.00000000000E+00  0.15370779162E+04  0.15370779162E+04  0.00000000000E+00 0.  1.
          2   -1    0    0  501    0  0.00000000000E+00 -0.00000000000E+00 -0.10842822843E+04  0.10842822843E+04  0.00000000000E+00 0. -1.
         24    2    1    2    0    0  0.39083690976E+03  0.69886878983E+03 -0.61469876711E+03  0.10128069698E+04  0.82172430751E+02 0.  0.
        254    2    1    2    0    0 -0.39083690976E+03 -0.69886878983E+03  0.10674943990E+04  0.16085532307E+04  0.89818045445E+03 0.  0.
         23    2    4    4    0    0 -0.34529756535E+03 -0.99484296154E+02 -0.99653696130E+01  0.37046850601E+03  0.89554852125E+02 0.  0.
         23    2    4    4    0    0 -0.45539344415E+02 -0.59938449367E+03  0.10774597686E+04  0.12380847247E+04  0.10294964526E+03 0.  0.
          2    1    3    3  502    0  0.20698925030E+03  0.32655355683E+03 -0.34066289255E+03  0.51529892449E+03  0.00000000000E+00 0. -1.
         -1    1    3    3    0  502  0.18384765947E+03  0.37231523299E+03 -0.27403587456E+03  0.49750804532E+03  0.00000000000E+00 0.  1.
         11    1    5    5    0    0 -0.32834033353E+03 -0.70957536827E+02 -0.36058560334E+00  0.33592034276E+03  0.00000000000E+00 0.  1.
        -11    1    5    5    0    0 -0.16957231820E+02 -0.28526759326E+02 -0.96047840097E+01  0.34548163258E+02  0.00000000000E+00 0. -1.
          4    1    6    6  503    0 -0.77367578599E+02 -0.37514311408E+03  0.69683572796E+03  0.79517176133E+03  0.00000000000E+00 0. -1.
         -4    1    6    6    0  503  0.31828234184E+02 -0.22424137959E+03  0.38062404062E+03  0.44291296335E+03  0.00000000000E+00 0.  1.
<mgrwt>
<rscale>  0 0.25819577E+04</rscale>
<asrwt>0</asrwt>
<pdfrwt beam="1">  1        2 0.16681266E+00 0.25819577E+04</pdfrwt>
<pdfrwt beam="2">  1       -1 0.23647353E+00 0.25819577E+04</pdfrwt>
<totfact> 0.19241127E+00</totfact>
</mgrwt>
</event>
<event>
12    6  0.9533401E-008  0.1580230E+04  0.7818608E-02  0.8832786E-01
          2   -1    0    0  501    0  0.00000000000E+00  0.00000000000E+00  0.98747599054E+03  0.98747599054E+03  0.00000000000E+00 0. -1.
         -1   -1    0    0    0  501 -0.00000000000E+00 -0.00000000000E+00 -0.63219956680E+03  0.63219956680E+03  0.00000000000E+00 0.  1.
         24    2    1    2    0    0  0.37062919724E+03 -0.91815183450E+02 -0.26116324592E+03  0.47023490570E+03  0.84371771096E+02 0.  0.
        254    2    1    2    0    0 -0.37062919724E+03  0.91815183450E+02  0.61643966966E+03  0.11494406516E+04  0.89186317087E+03 0.  0.
         23    2    4    4    0    0 -0.63974103412E+02 -0.25127074665E+03  0.62235919123E+03  0.68038618299E+03  0.91458849041E+02 0.  0.
         23    2    4    4    0    0 -0.30665509383E+03  0.34308593010E+03 -0.59195215621E+01  0.46905446865E+03  0.90729002096E+02 0.  0.
          2    1    3    3  502    0  0.24773287914E+03 -0.43791092367E+02 -0.21345757271E+03  0.32992934778E+03  0.00000000000E+00 0. -1.
         -1    1    3    3    0  502  0.12289631810E+03 -0.48024091083E+02 -0.47705673212E+02  0.14030555792E+03  0.00000000000E+00 0.  1.
         11    1    5    5    0    0 -0.52248911286E+02 -0.50468740704E+02  0.13879300832E+03  0.15665421053E+03  0.00000000000E+00 0. -1.
        -11    1    5    5    0    0 -0.11725192125E+02 -0.20080200595E+03  0.48356618290E+03  0.52373197246E+03  0.00000000000E+00 0.  1.
          1    1    6    6  503    0 -0.23439212943E+02 -0.18029176424E+00 -0.53102919142E+01  0.24033901238E+02  0.00000000000E+00 0. -1.
         -1    1    6    6    0  503 -0.28321588089E+03  0.34326622187E+03 -0.60922964794E+00  0.44502056742E+03  0.00000000000E+00 0.  1.
<mgrwt>
<rscale>  0 0.15802302E+04</rscale>
<asrwt>0</asrwt>
<pdfrwt beam="1">  1        2 0.15191938E+00 0.15802302E+04</pdfrwt>
<pdfrwt beam="2">  1       -1 0.97261471E-01 0.15802302E+04</pdfrwt>
<totfact> 0.28557785E+01</totfact>
</mgrwt>
</event>
<event>
12    6  0.9533401E-008  0.1673474E+04  0.7818608E-02  0.8776639E-01
         -1   -1    0    0    0  501 -0.00000000000E+00  0.00000000000E+00  0.30417325565E+03  0.30417325565E+03  0.00000000000E+00 0.  1.
          2   -1    0    0  501    0  0.00000000000E+00 -0.00000000000E+00 -0.23017430479E+04  0.23017430479E+04  0.00000000000E+00 0. -1.
         24    2    1    2    0    0 -0.32498332975E+03  0.37284743024E+03 -0.11921297582E+04  0.12929998113E+04  0.77754619694E+02 0.  0.
        254    2    1    2    0    0  0.32498332975E+03 -0.37284743024E+03 -0.80544003406E+03  0.13129164922E+04  0.91125556032E+03 0.  0.
         23    2    4    4    0    0 -0.23169228684E+03  0.13044742147E+03 -0.21437351809E+03  0.35338076775E+03  0.90686913111E+02 0.  0.
         23    2    4    4    0    0  0.55667561658E+03 -0.50329485171E+03 -0.59106651597E+03  0.95953572446E+03  0.90309082368E+02 0.  0.
          2    1    3    3  502    0 -0.23048955035E+03  0.30778383629E+03 -0.95742740724E+03  0.10317575116E+04  0.00000000000E+00 0. -1.
         -1    1    3    3    0  502 -0.94493779397E+02  0.65063593950E+02 -0.23470235095E+03  0.26124229968E+03  0.00000000000E+00 0.  1.
         11    1    5    5    0    0 -0.21693455175E+02  0.14879903258E+02 -0.67054459625E+02  0.72029980383E+02  0.00000000000E+00 0. -1.
        -11    1    5    5    0    0 -0.20999883166E+03  0.11556751821E+03 -0.14731905846E+03  0.28135078737E+03  0.00000000000E+00 0.  1.
          4    1    6    6  503    0  0.44304582382E+03 -0.34968737538E+03 -0.42807476312E+03  0.70839174566E+03  0.00000000000E+00 0. -1.
         -4    1    6    6    0  503  0.11362979276E+03 -0.15360747634E+03 -0.16299175285E+03  0.25114397880E+03  0.00000000000E+00 0.  1.
<mgrwt>
<rscale>  0 0.16734738E+04</rscale>
<asrwt>0</asrwt>
<pdfrwt beam="1">  1        2 0.35411431E+00 0.16734738E+04</pdfrwt>
<pdfrwt beam="2">  1       -1 0.46795886E-01 0.16734738E+04</pdfrwt>
<totfact> 0.22371817E+01</totfact>
</mgrwt>
</event>
<event>
12    6  0.9533401E-008  0.2520915E+04  0.7818608E-02  0.8395572E-01
         -3   -1    0    0    0  501 -0.00000000000E+00  0.00000000000E+00  0.54506685914E+03  0.54506685914E+03  0.00000000000E+00 0.  1.
          2   -1    0    0  501    0  0.00000000000E+00 -0.00000000000E+00 -0.29147860326E+04  0.29147860326E+04  0.00000000000E+00 0. -1.
         24    2    1    2    0    0  0.43532287016E+03 -0.73823521131E+03 -0.95467092614E+02  0.86595051819E+03  0.79114509961E+02 0.  0.
        254    2    1    2    0    0 -0.43532287016E+03  0.73823521131E+03 -0.22742520808E+04  0.25939023735E+04  0.90642692355E+03 0.  0.
         23    2    4    4    0    0  0.41140158069E+02  0.39390153352E+03 -0.23463584132E+03  0.46937873300E+03  0.91714155093E+02 0.  0.
         23    2    4    4    0    0 -0.47646302823E+03  0.34433367779E+03 -0.20396162395E+04  0.21245236405E+04  0.89350969649E+02 0.  0.
          4    1    3    3  502    0 -0.24123200997E+01 -0.10608283262E+02  0.25201437036E+01  0.11167187933E+02  0.00000000000E+00 0. -1.
         -3    1    3    3    0  502  0.43773519026E+03 -0.72762692804E+03 -0.97987236318E+02  0.85478333026E+03  0.00000000000E+00 0.  1.
         11    1    5    5    0    0  0.28455790674E+02  0.28923686376E+03 -0.12229995620E+03  0.31531726034E+03  0.00000000000E+00 0.  1.
        -11    1    5    5    0    0  0.12684367395E+02  0.10466466975E+03 -0.11233588512E+03  0.15406147266E+03  0.00000000000E+00 0. -1.
          3    1    6    6  503    0 -0.93950898858E+02  0.51161436796E+02 -0.49673534464E+03  0.50812426298E+03  0.00000000000E+00 0. -1.
         -3    1    6    6    0  503 -0.38251212937E+03  0.29317224099E+03 -0.15428808949E+04  0.16163993775E+04  0.00000000000E+00 0.  1.
<mgrwt>
<rscale>  0 0.25209151E+04</rscale>
<asrwt>0</asrwt>
<pdfrwt beam="1">  1        2 0.44842862E+00 0.25209151E+04</pdfrwt>
<pdfrwt beam="2">  1       -3 0.83856440E-01 0.25209151E+04</pdfrwt>
<totfact> 0.14698572E+00</totfact>
</mgrwt>
</event>
<event>
12    6  0.9533401E-008  0.4396598E+04  0.7818608E-02  0.7928994E-01
          2   -1    0    0  501    0  0.00000000000E+00  0.00000000000E+00  0.42677302495E+04  0.42677302495E+04  0.00000000000E+00 0. -1.
         -1   -1    0    0    0  501 -0.00000000000E+00 -0.00000000000E+00 -0.11323393848E+04  0.11323393848E+04  0.00000000000E+00 0.  1.
         24    2    1    2    0    0 -0.18518413308E+04 -0.96038765752E+03  0.11563969867E+04  0.23865258729E+04  0.81184874136E+02 0.  0.
        254    2    1    2    0    0  0.18518413308E+04  0.96038765752E+03  0.19789938780E+04  0.30135437614E+04  0.90186942802E+03 0.  0.
         23    2    4    4    0    0  0.65679354012E+03  0.83324202939E+03  0.99590478642E+03  0.14581412340E+04  0.93163730488E+02 0.  0.
         23    2    4    4    0    0  0.11950477907E+04  0.12714562813E+03  0.98308909163E+03  0.15554025274E+04  0.92236800852E+02 0.  0.
          4    1    3    3  502    0 -0.18028033916E+04 -0.94114709337E+03  0.11133203045E+04  0.23184779535E+04  0.00000000000E+00 0. -1.
         -3    1    3    3    0  502 -0.49037939188E+02 -0.19240564146E+02  0.43076682157E+02  0.68047919396E+02  0.00000000000E+00 0.  1.
         11    1    5    5    0    0  0.74945527480E+02  0.14842068310E+03  0.14632132632E+03  0.22148467621E+03  0.00000000000E+00 0. -1.
        -11    1    5    5    0    0  0.58184801264E+03  0.68482134629E+03  0.84958346010E+03  0.12366565577E+04  0.00000000000E+00 0.  1.
          4    1    6    6  503    0  0.72304369718E+02 -0.13301743511E+02  0.51681651617E+02  0.89865740829E+02  0.00000000000E+00 0. -1.
         -4    1    6    6    0  503  0.11227434210E+04  0.14044737164E+03  0.93140744001E+03  0.14655367866E+04  0.00000000000E+00 0.  1.
<mgrwt>
<rscale>  0 0.43965983E+04</rscale>
<asrwt>0</asrwt>
<pdfrwt beam="1">  1        2 0.65657388E+00 0.43965983E+04</pdfrwt>
<pdfrwt beam="2">  1       -1 0.17420606E+00 0.43965983E+04</pdfrwt>
<totfact> 0.40021290E-02</totfact>
</mgrwt>
</event>
<event>
12    6  0.9533401E-008  0.1442985E+04  0.7818608E-02  0.8923278E-01
          2   -1    0    0  501    0  0.00000000000E+00  0.00000000000E+00  0.98266115848E+03  0.98266115848E+03  0.00000000000E+00 0. -1.
         -1   -1    0    0    0  501 -0.00000000000E+00 -0.00000000000E+00 -0.52973637088E+03  0.52973637088E+03  0.00000000000E+00 0.  1.
         24    2    1    2    0    0 -0.61546159223E+02 -0.28948785851E+03 -0.20272101955E+03  0.36595488994E+03  0.72360346611E+02 0.  0.
        254    2    1    2    0    0  0.61546159223E+02  0.28948785851E+03  0.65564580715E+03  0.11464426394E+04  0.89267471742E+03 0.  0.
         23    2    4    4    0    0 -0.59799326277E+02  0.59221442188E+03  0.41095912137E+03  0.72860398821E+03  0.87649821998E+02 0.  0.
         23    2    4    4    0    0  0.12134548550E+03 -0.30272656337E+03  0.24468668578E+03  0.41783865122E+03  0.91375408221E+02 0.  0.
          4    1    3    3  502    0 -0.18582040766E+02 -0.93632821116E+01 -0.89959308310E+01  0.22669143399E+02  0.00000000000E+00 0. -1.
         -3    1    3    3    0  502 -0.42964118457E+02 -0.28012457640E+03 -0.19372508872E+03  0.34328574654E+03  0.00000000000E+00 0.  1.
         11    1    5    5    0    0 -0.17139821246E+02  0.17081361316E+02  0.98908805657E+01  0.26141459315E+02  0.00000000000E+00 0.  1.
        -11    1    5    5    0    0 -0.42659505031E+02  0.57513306056E+03  0.40106824080E+03  0.70246252890E+03  0.00000000000E+00 0. -1.
          4    1    6    6  503    0  0.87513475433E+02 -0.28915536884E+03  0.21454977710E+03  0.37054155309E+03  0.00000000000E+00 0. -1.
         -4    1    6    6    0  503  0.33832010067E+02 -0.13571194531E+02  0.30136908683E+02  0.47297098126E+02  0.00000000000E+00 0.  1.
<mgrwt>
<rscale>  0 0.14429849E+04</rscale>
<asrwt>0</asrwt>
<pdfrwt beam="1">  1        2 0.15117864E+00 0.14429849E+04</pdfrwt>
<pdfrwt beam="2">  1       -1 0.81497904E-01 0.14429849E+04</pdfrwt>
<totfact> 0.42909453E+01</totfact>
</mgrwt>
</event>
<event>
12    6  0.9533401E-008  0.1180498E+04  0.7818608E-02  0.9130100E-01
          2   -1    0    0  501    0  0.00000000000E+00  0.00000000000E+00  0.88833331666E+03  0.88833331666E+03  0.00000000000E+00 0. -1.
         -1   -1    0    0    0  501 -0.00000000000E+00 -0.00000000000E+00 -0.39218824988E+03  0.39218824988E+03  0.00000000000E+00 0.  1.
         24    2    1    2    0    0  0.61741605056E+02  0.13979148337E+03  0.31313854931E+03  0.35767584212E+03  0.80762443985E+02 0.  0.
        254    2    1    2    0    0 -0.61741605056E+02 -0.13979148337E+03  0.18300651747E+03  0.92284572442E+03  0.89151509299E+03 0.  0.
         23    2    4    4    0    0  0.12885276225E+03  0.11627650185E+03 -0.28802606316E+03  0.34658677738E+03  0.83905434706E+02 0.  0.
         23    2    4    4    0    0 -0.19059436730E+03 -0.25606798521E+03  0.47103258063E+03  0.57625894704E+03  0.91135372514E+02 0.  0.
          4    1    3    3  502    0 -0.44624739955E+01  0.56143256624E+01 -0.31116826155E+01  0.78177295619E+01  0.00000000000E+00 0. -1.
         -3    1    3    3    0  502  0.66204079052E+02  0.13417715770E+03  0.31625023192E+03  0.34985811256E+03  0.00000000000E+00 0.  1.
         11    1    5    5    0    0 -0.54000975805E+01  0.35897127759E+02 -0.54723619362E+02  0.65669165910E+02  0.00000000000E+00 0. -1.
        -11    1    5    5    0    0  0.13425285983E+03  0.80379374087E+02 -0.23330244380E+03  0.28091761147E+03  0.00000000000E+00 0.  1.
          4    1    6    6  503    0 -0.14528576773E+01 -0.50183089316E+02  0.97729143743E+02  0.10987009960E+03  0.00000000000E+00 0. -1.
         -4    1    6    6    0  503 -0.18914150963E+03 -0.20588489590E+03  0.37330343689E+03  0.46638884744E+03  0.00000000000E+00 0.  1.
<mgrwt>
<rscale>  0 0.11804980E+04</rscale>
<asrwt>0</asrwt>
<pdfrwt beam="1">  1        2 0.13666666E+00 0.11804980E+04</pdfrwt>
<pdfrwt beam="2">  1       -1 0.60336654E-01 0.11804980E+04</pdfrwt>
<totfact> 0.93784489E+01</totfact>
</mgrwt>
</event>
<event>
12    6  0.9533401E-008  0.2072657E+04  0.7818608E-02  0.8573385E-01
          2   -1    0    0  501    0  0.00000000000E+00  0.00000000000E+00  0.12226144367E+04  0.12226144367E+04  0.00000000000E+00 0. -1.
         -1   -1    0    0    0  501 -0.00000000000E+00 -0.00000000000E+00 -0.87842601996E+03  0.87842601996E+03  0.00000000000E+00 0.  1.
         24    2    1    2    0    0 -0.53150710859E+03 -0.40165421146E+03 -0.37785013855E+03  0.77013101344E+03  0.80654439433E+02 0.  0.
        254    2    1    2    0    0  0.53150710859E+03  0.40165421146E+03  0.72203855532E+03  0.13309094433E+04  0.89786099075E+03 0.  0.
         23    2    4    4    0    0  0.63782920440E+03  0.56070730855E+03  0.39428983542E+03  0.94065108953E+03  0.90228698683E+02 0.  0.
         23    2    4    4    0    0 -0.10632209581E+03 -0.15905309708E+03  0.32774871990E+03  0.39025835373E+03  0.90994964226E+02 0.  0.
          4    1    3    3  502    0 -0.10854765618E+03 -0.81482768571E+02 -0.11602039806E+03  0.17855746415E+03  0.00000000000E+00 0. -1.
         -3    1    3    3    0  502 -0.42295945241E+03 -0.32017144289E+03 -0.26182974049E+03  0.59157354930E+03  0.00000000000E+00 0.  1.
         11    1    5    5    0    0  0.60541586331E+03  0.51426924047E+03  0.34686671296E+03  0.86678586502E+03  0.00000000000E+00 0. -1.
        -11    1    5    5    0    0  0.32413341094E+02  0.46438068074E+02  0.47423122460E+02  0.73865224505E+02  0.00000000000E+00 0.  1.
          4    1    6    6  503    0 -0.10649267161E+03 -0.16917777794E+03  0.29805238926E+03  0.35888304000E+03  0.00000000000E+00 0. -1.
         -4    1    6    6    0  503  0.17057580141E+00  0.10124680856E+02  0.29696330641E+02  0.31375313737E+02  0.00000000000E+00 0.  1.
<mgrwt>
<rscale>  0 0.20726566E+04</rscale>
<asrwt>0</asrwt>
<pdfrwt beam="1">  1        2 0.18809453E+00 0.20726566E+04</pdfrwt>
<pdfrwt beam="2">  1       -1 0.13514246E+00 0.20726566E+04</pdfrwt>
<totfact> 0.88824249E+00</totfact>
</mgrwt>
</event>
<event>
12    6  0.9533401E-008  0.1280561E+04  0.7818608E-02  0.9045124E-01
          2   -1    0    0  501    0  0.00000000000E+00  0.00000000000E+00  0.13037121052E+04  0.13037121052E+04  0.00000000000E+00 0. -1.
         -1   -1    0    0    0  501 -0.00000000000E+00 -0.00000000000E+00 -0.31445521198E+03  0.31445521198E+03  0.00000000000E+00 0.  1.
         24    2    1    2    0    0 -0.28108366145E+03 -0.88633954391E+02  0.72551354789E+02  0.31424110337E+03  0.81361965072E+02 0.  0.
        254    2    1    2    0    0  0.28108366145E+03  0.88633954391E+02  0.91670553848E+03  0.13039262139E+04  0.87921017072E+03 0.  0.
         23    2    4    4    0    0  0.38133326430E+03  0.33230249999E+03  0.88446884090E+03  0.10229708304E+04  0.91346479480E+02 0.  0.
         23    2    4    4    0    0 -0.10024960286E+03 -0.24366854560E+03  0.32236697586E+02  0.28095538348E+03  0.92045531400E+02 0.  0.
          2    1    3    3  502    0 -0.41003697221E+02  0.15134647548E+02  0.41856197563E+01  0.43907632081E+02  0.00000000000E+00 0. -1.
         -1    1    3    3    0  502 -0.24007996423E+03 -0.10376860194E+03  0.68365735032E+02  0.27033347129E+03  0.00000000000E+00 0.  1.
         11    1    5    5    0    0  0.37226800734E+03  0.33769999861E+03  0.87327764640E+03  0.10075904952E+04  0.00000000000E+00 0. -1.
        -11    1    5    5    0    0  0.90652569580E+01 -0.53974986258E+01  0.11191194498E+02  0.15380335153E+02  0.00000000000E+00 0.  1.
          2    1    6    6  503    0 -0.10362748797E+03 -0.21479544064E+03  0.54143458796E+02  0.24455521199E+03  0.00000000000E+00 0. -1.
         -2    1    6    6    0  503  0.33778851153E+01 -0.28873104958E+02 -0.21906761210E+02  0.36400171490E+02  0.00000000000E+00 0.  1.
<mgrwt>
<rscale>  0 0.12805609E+04</rscale>
<asrwt>0</asrwt>
<pdfrwt beam="1">  1        2 0.20057109E+00 0.12805609E+04</pdfrwt>
<pdfrwt beam="2">  1       -1 0.48377726E-01 0.12805609E+04</pdfrwt>
<totfact> 0.78619362E+01</totfact>
</mgrwt>
</event>
<event>
12    6  0.9533401E-008  0.2334179E+04  0.7818608E-02  0.8464566E-01
         -1   -1    0    0    0  501 -0.00000000000E+00  0.00000000000E+00  0.84078612347E+03  0.84078612347E+03  0.00000000000E+00 0.  1.
          2   -1    0    0  501    0  0.00000000000E+00 -0.00000000000E+00 -0.16200283165E+04  0.16200283165E+04  0.00000000000E+00 0. -1.
         24    2    1    2    0    0  0.21791382594E+03  0.13598564243E+02  0.69095454145E+03  0.73192623084E+03  0.10308478332E+03 0.  0.
        254    2    1    2    0    0 -0.21791382594E+03 -0.13598564243E+02 -0.14701967345E+04  0.17288882091E+04  0.88312210088E+03 0.  0.
         23    2    4    4    0    0 -0.15216874728E+03 -0.15674883350E+03  0.82562421733E+01  0.23928207534E+03  0.97273951245E+02 0.  0.
         23    2    4    4    0    0 -0.65745078660E+02  0.14315026926E+03 -0.14784529766E+04  0.14896061338E+04  0.91042927644E+02 0.  0.
          4    1    3    3  502    0  0.59245529996E+02  0.27760865644E+02  0.34376325712E+03  0.34993410156E+03  0.00000000000E+00 0. -1.
         -3    1    3    3    0  502  0.15866829594E+03 -0.14162301401E+02  0.34719128433E+03  0.38199212928E+03  0.00000000000E+00 0.  1.
         11    1    5    5    0    0 -0.15094604319E+03 -0.11075881819E+03 -0.14828986756E+02  0.18780873944E+03  0.00000000000E+00 0. -1.
        -11    1    5    5    0    0 -0.12227040853E+01 -0.45990015310E+02  0.23085228929E+02  0.51473335895E+02  0.00000000000E+00 0.  1.
          3    1    6    6  503    0  0.15470070120E+02  0.18360452447E+02 -0.88413176693E+02  0.91615059332E+02  0.00000000000E+00 0. -1.
         -3    1    6    6    0  503 -0.81215148780E+02  0.12478981681E+03 -0.13900397999E+04  0.13979910744E+04  0.00000000000E+00 0.  1.
<mgrwt>
<rscale>  0 0.23341785E+04</rscale>
<asrwt>0</asrwt>
<pdfrwt beam="1">  1        2 0.24923513E+00 0.23341785E+04</pdfrwt>
<pdfrwt beam="2">  1       -1 0.12935171E+00 0.23341785E+04</pdfrwt>
<totfact> 0.57469568E+00</totfact>
</mgrwt>
</event>
<event>
12    6  0.9533401E-008  0.2240242E+04  0.7818608E-02  0.8501863E-01
          2   -1    0    0  501    0  0.00000000000E+00  0.00000000000E+00  0.71571172137E+03  0.71571172137E+03  0.00000000000E+00 0. -1.
         -1   -1    0    0    0  501 -0.00000000000E+00 -0.00000000000E+00 -0.17530393842E+04  0.17530393842E+04  0.00000000000E+00 0.  1.
         24    2    1    2    0    0  0.46344127318E+03 -0.23381988413E+03  0.42833615521E+03  0.67766362300E+03  0.79413929445E+02 0.  0.
        254    2    1    2    0    0 -0.46344127318E+03  0.23381988413E+03 -0.14656638180E+04  0.17910874826E+04  0.88903002807E+03 0.  0.
         23    2    4    4    0    0 -0.53694828613E+03  0.63722456158E+02 -0.14838790327E+04  0.15823166977E+04  0.97237517501E+02 0.  0.
         23    2    4    4    0    0  0.73507012954E+02  0.17009742797E+03  0.18215214643E+02  0.20877078486E+03  0.94430030248E+02 0.  0.
          4    1    3    3  502    0  0.42125952185E+03 -0.20144893401E+03  0.35258081162E+03  0.58511066174E+03  0.00000000000E+00 0. -1.
         -3    1    3    3    0  502  0.42181751328E+02 -0.32370950116E+02  0.75755343585E+02  0.92552961261E+02  0.00000000000E+00 0.  1.
         11    1    5    5    0    0 -0.17243343288E+02  0.21068324698E+02 -0.57772451585E+02  0.63865979641E+02  0.00000000000E+00 0. -1.
        -11    1    5    5    0    0 -0.51970494284E+03  0.42654131460E+02 -0.14261065811E+04  0.15184507181E+04  0.00000000000E+00 0.  1.
          4    1    6    6  503    0 -0.37549327091E+01  0.15967303714E+02  0.31845850099E+02  0.35821955224E+02  0.00000000000E+00 0. -1.
         -4    1    6    6    0  503  0.77261945663E+02  0.15413012425E+03 -0.13630635456E+02  0.17294882964E+03  0.00000000000E+00 0.  1.
<mgrwt>
<rscale>  0 0.22402418E+04</rscale>
<asrwt>0</asrwt>
<pdfrwt beam="1">  1        2 0.11010950E+00 0.22402418E+04</pdfrwt>
<pdfrwt beam="2">  1       -1 0.26969836E+00 0.22402418E+04</pdfrwt>
<totfact> 0.21493511E+00</totfact>
</mgrwt>
</event>
<event>
12    6  0.9533401E-008  0.1849632E+04  0.7818608E-02  0.8680342E-01
          2   -1    0    0  501    0  0.00000000000E+00  0.00000000000E+00  0.18211984944E+04  0.18211984944E+04  0.00000000000E+00 0. -1.
         -1   -1    0    0    0  501 -0.00000000000E+00 -0.00000000000E+00 -0.46962752726E+03  0.46962752726E+03  0.00000000000E+00 0.  1.
         24    2    1    2    0    0  0.31609003606E+03  0.34485107806E+03 -0.13770070625E+03  0.49423070038E+03  0.80419672714E+02 0.  0.
        254    2    1    2    0    0 -0.31609003606E+03 -0.34485107806E+03  0.14892716734E+04  0.17965953212E+04  0.88937587909E+03 0.  0.
         23    2    4    4    0    0 -0.30623676037E+03 -0.53727381805E+03  0.54883594860E+03  0.83215619150E+03  0.93909102900E+02 0.  0.
         23    2    4    4    0    0 -0.98532756892E+01  0.19242273998E+03  0.94043572476E+03  0.96443912975E+03  0.92735563230E+02 0.  0.
          2    1    3    3  502    0  0.36337152934E+02  0.18905976149E+02 -0.31734500989E+02  0.51816051283E+02  0.00000000000E+00 0. -1.
         -1    1    3    3    0  502  0.27975288313E+03  0.32594510192E+03 -0.10596620526E+03  0.44241464910E+03  0.00000000000E+00 0.  1.
         11    1    5    5    0    0 -0.60765687466E+02 -0.14497776967E+03  0.18979310027E+03  0.24643953291E+03  0.00000000000E+00 0.  1.
        -11    1    5    5    0    0 -0.24547107291E+03 -0.39229604838E+03  0.35904284833E+03  0.58571665859E+03  0.00000000000E+00 0. -1.
          3    1    6    6  503    0 -0.93889472706E+01  0.19139699080E+03  0.94266318614E+03  0.96194326387E+03  0.00000000000E+00 0. -1.
         -3    1    6    6    0  503 -0.46432841861E+00  0.10257491854E+01 -0.22274613788E+01  0.24958658749E+01  0.00000000000E+00 0.  1.
<mgrwt>
<rscale>  0 0.18496323E+04</rscale>
<asrwt>0</asrwt>
<pdfrwt beam="1">  1        2 0.28018438E+00 0.18496323E+04</pdfrwt>
<pdfrwt beam="2">  1       -1 0.72250390E-01 0.18496323E+04</pdfrwt>
<totfact> 0.17381428E+01</totfact>
</mgrwt>
</event>
<event>
12    6  0.9533401E-008  0.2004231E+04  0.7818608E-02  0.8604645E-01
          2   -1    0    0  501    0  0.00000000000E+00  0.00000000000E+00  0.35855608475E+04  0.35855608475E+04  0.00000000000E+00 0. -1.
         -1   -1    0    0    0  501 -0.00000000000E+00 -0.00000000000E+00 -0.28007758402E+03  0.28007758402E+03  0.00000000000E+00 0.  1.
         24    2    1    2    0    0 -0.31630375866E+03 -0.45007141518E+03  0.24281884413E+04  0.24907792027E+04  0.72591899320E+02 0.  0.
        254    2    1    2    0    0  0.31630375866E+03  0.45007141518E+03  0.87729482221E+03  0.13748592288E+04  0.90442210689E+03 0.  0.
         23    2    4    4    0    0 -0.23239231713E+03  0.42774267680E+03  0.49262691421E+03  0.69832415374E+03  0.89472680020E+02 0.  0.
         23    2    4    4    0    0  0.54869607579E+03  0.22328738378E+02  0.38466790800E+03  0.67653507506E+03  0.90356804949E+02 0.  0.
          4    1    3    3  502    0 -0.27250620949E+03 -0.40352211728E+03  0.22299775908E+04  0.22825182998E+04  0.00000000000E+00 0. -1.
         -3    1    3    3    0  502 -0.43797549164E+02 -0.46549297900E+02  0.19821085048E+03  0.20826090295E+03  0.00000000000E+00 0.  1.
         11    1    5    5    0    0 -0.17574844814E+03  0.23900496196E+03  0.27167409681E+03  0.40226571286E+03  0.00000000000E+00 0.  1.
        -11    1    5    5    0    0 -0.56643868992E+02  0.18873771484E+03  0.22095281740E+03  0.29605844088E+03  0.00000000000E+00 0. -1.
          4    1    6    6  503    0  0.49800931610E+03  0.27026926896E+02  0.31368929335E+03  0.58918987301E+03  0.00000000000E+00 0.  1.
         -4    1    6    6    0  503  0.50686759694E+02 -0.46981885184E+01  0.70978614656E+02  0.87345202056E+02  0.00000000000E+00 0. -1.
<mgrwt>
<rscale>  0 0.20042307E+04</rscale>
<asrwt>0</asrwt>
<pdfrwt beam="1">  1        2 0.55162471E+00 0.20042307E+04</pdfrwt>
<pdfrwt beam="2">  1       -1 0.43088862E-01 0.20042307E+04</pdfrwt>
<totfact> 0.39938659E+00</totfact>
</mgrwt>
</event>
<event>
12    6  0.9533401E-008  0.1575506E+04  0.7818608E-02  0.8835739E-01
         -1   -1    0    0    0  501 -0.00000000000E+00  0.00000000000E+00  0.23746052476E+03  0.23746052476E+03  0.00000000000E+00 0.  1.
          2   -1    0    0  501    0  0.00000000000E+00 -0.00000000000E+00 -0.26132956978E+04  0.26132956978E+04  0.00000000000E+00 0. -1.
         24    2    1    2    0    0  0.37165116465E+03  0.21911262698E+02 -0.12729127327E+03  0.40193549648E+03  0.82124195309E+02 0.  0.
        254    2    1    2    0    0 -0.37165116465E+03 -0.21911262698E+02 -0.22485438998E+04  0.24488207261E+04  0.89563864793E+03 0.  0.
         23    2    4    4    0    0 -0.38749630145E+03 -0.37240101220E+03 -0.89392968031E+03  0.10464855992E+04  0.84769914794E+02 0.  0.
         23    2    4    4    0    0  0.15845136797E+02  0.35048974950E+03 -0.13546142195E+04  0.14023351269E+04  0.92032557677E+02 0.  0.
          4    1    3    3  502    0  0.21376909727E+03 -0.24914047091E+02 -0.88807802925E+02  0.23281916276E+03  0.00000000000E+00 0. -1.
         -3    1    3    3    0  502  0.15788206738E+03  0.46825309789E+02 -0.38483470348E+02  0.16911633371E+03  0.00000000000E+00 0.  1.
         11    1    5    5    0    0 -0.28650439544E+02 -0.60200991762E+01 -0.71496313782E+02  0.77258088021E+02  0.00000000000E+00 0.  1.
        -11    1    5    5    0    0 -0.35884586191E+03 -0.36638091302E+03 -0.82243336653E+03  0.96922751117E+03  0.00000000000E+00 0. -1.
          1    1    6    6  503    0 -0.11686155773E+01  0.25105991854E+03 -0.79497483834E+03  0.83367706095E+03  0.00000000000E+00 0. -1.
         -1    1    6    6    0  503  0.17013752374E+02  0.99429830957E+02 -0.55963938113E+03  0.56865806594E+03  0.00000000000E+00 0.  1.
<mgrwt>
<rscale>  0 0.15755057E+04</rscale>
<asrwt>0</asrwt>
<pdfrwt beam="1">  1        2 0.40204550E+00 0.15755057E+04</pdfrwt>
<pdfrwt beam="2">  1       -1 0.36532387E-01 0.15755057E+04</pdfrwt>
<totfact> 0.23561186E+01</totfact>
</mgrwt>
</event>
<event>
12    6  0.9533401E-008  0.1479647E+04  0.7818608E-02  0.8898101E-01
          2   -1    0    0  501    0  0.00000000000E+00  0.00000000000E+00  0.15204105743E+04  0.15204105743E+04  0.00000000000E+00 0. -1.
         -1   -1    0    0    0  501 -0.00000000000E+00 -0.00000000000E+00 -0.35999414498E+03  0.35999414498E+03  0.00000000000E+00 0.  1.
         24    2    1    2    0    0  0.12099323159E+03 -0.24421535141E+03  0.82158278261E+03  0.86938114922E+03  0.80900024550E+02 0.  0.
        254    2    1    2    0    0 -0.12099323159E+03  0.24421535141E+03  0.33883364674E+03  0.10110235701E+04  0.91273211797E+03 0.  0.
         23    2    4    4    0    0  0.17794060363E+03 -0.24879929096E+03 -0.31977147740E+02  0.32047741902E+03  0.90107116910E+02 0.  0.
         23    2    4    4    0    0 -0.29893383523E+03  0.49301464237E+03  0.37081079448E+03  0.69054615108E+03  0.83237407634E+02 0.  0.
          2    1    3    3  502    0  0.12337445682E+03 -0.22758172712E+03  0.69423860332E+03  0.74093315316E+03  0.00000000000E+00 0. -1.
         -1    1    3    3    0  502 -0.23812252286E+01 -0.16633624289E+02  0.12734417930E+03  0.12844799606E+03  0.00000000000E+00 0.  1.
         11    1    5    5    0    0  0.81009187477E+02 -0.17149194631E+03 -0.47512782089E+02  0.19552350388E+03  0.00000000000E+00 0.  1.
        -11    1    5    5    0    0  0.96931416156E+02 -0.77307344650E+02  0.15535634348E+02  0.12495391514E+03  0.00000000000E+00 0. -1.
          1    1    6    6  503    0 -0.86848612885E+02  0.20467675182E+03  0.11284725745E+03  0.24933864083E+03  0.00000000000E+00 0. -1.
         -1    1    6    6    0  503 -0.21208522234E+03  0.28833789055E+03  0.25796353704E+03  0.44120751025E+03  0.00000000000E+00 0.  1.
<mgrwt>
<rscale>  0 0.14796471E+04</rscale>
<asrwt>0</asrwt>
<pdfrwt beam="1">  1        2 0.23390932E+00 0.14796471E+04</pdfrwt>
<pdfrwt beam="2">  1       -1 0.55383715E-01 0.14796471E+04</pdfrwt>
<totfact> 0.44923539E+01</totfact>
</mgrwt>
</event>
<event>
12    6  0.9533401E-008  0.3262291E+04  0.7818608E-02  0.8172557E-01
         -1   -1    0    0    0  501 -0.00000000000E+00  0.00000000000E+00  0.85109399050E+03  0.85109399050E+03  0.00000000000E+00 0.  1.
          2   -1    0    0  501    0  0.00000000000E+00 -0.00000000000E+00 -0.31261353810E+04  0.31261353810E+04  0.00000000000E+00 0. -1.
         24    2    1    2    0    0 -0.12799379270E+04 -0.25879620284E+03 -0.19664087574E+04  0.23617762918E+04  0.77506644075E+02 0.  0.
        254    2    1    2    0    0  0.12799379270E+04  0.25879620284E+03 -0.30863263313E+03  0.16154530797E+04  0.89956543894E+03 0.  0.
         23    2    4    4    0    0  0.66548707287E+03 -0.30395127899E+03 -0.52912066949E+02  0.73903355396E+03  0.90063771263E+02 0.  0.
         23    2    4    4    0    0  0.61445085412E+03  0.56274748183E+03 -0.25572056618E+03  0.87641952575E+03  0.92106442248E+02 0.  0.
          4    1    3    3  502    0 -0.65858566639E+03 -0.12408306157E+03 -0.94093276727E+03  0.11551996185E+04  0.00000000000E+00 0. -1.
         -3    1    3    3    0  502 -0.62135226060E+03 -0.13471314127E+03 -0.10254759901E+04  0.12065766733E+04  0.00000000000E+00 0.  1.
         11    1    5    5    0    0  0.33996743768E+03 -0.10583292435E+03 -0.27267213475E+02  0.35710218074E+03  0.00000000000E+00 0.  1.
        -11    1    5    5    0    0  0.32551963519E+03 -0.19811835464E+03 -0.25644853474E+02  0.38193137322E+03  0.00000000000E+00 0. -1.
          1    1    6    6  503    0  0.34882974439E+03  0.25707892387E+03 -0.13322653933E+03  0.45334432218E+03  0.00000000000E+00 0. -1.
         -1    1    6    6    0  503  0.26562110973E+03  0.30566855795E+03 -0.12249402686E+03  0.42307520357E+03  0.00000000000E+00 0.  1.
<mgrwt>
<rscale>  0 0.32622906E+04</rscale>
<asrwt>0</asrwt>
<pdfrwt beam="1">  1        2 0.48094391E+00 0.32622906E+04</pdfrwt>
<pdfrwt beam="2">  1       -1 0.13093754E+00 0.32622906E+04</pdfrwt>
<totfact> 0.68542288E-01</totfact>
</mgrwt>
</event>
<event>
12    6  0.9533401E-008  0.1898026E+04  0.7818608E-02  0.8655840E-01
         -1   -1    0    0    0  501 -0.00000000000E+00  0.00000000000E+00  0.39820506397E+03  0.39820506397E+03  0.00000000000E+00 0.  1.
          2   -1    0    0  501    0  0.00000000000E+00 -0.00000000000E+00 -0.22617129836E+04  0.22617129836E+04  0.00000000000E+00 0. -1.
         24    2    1    2    0    0 -0.12797389424E+03  0.13955967274E+03  0.26830691962E+03  0.33819889041E+03  0.80843469112E+02 0.  0.
        254    2    1    2    0    0  0.12797389424E+03 -0.13955967274E+03 -0.21318148392E+04  0.23217191571E+04  0.89993950684E+03 0.  0.
         23    2    4    4    0    0  0.18829038648E+03 -0.34795376482E+03 -0.20208994556E+04  0.20612167824E+04  0.89749220926E+02 0.  0.
         23    2    4    4    0    0 -0.60316492238E+02  0.20839409209E+03 -0.11091538365E+03  0.26050237467E+03  0.92157951504E+02 0.  0.
          2    1    3    3  502    0 -0.30875026467E+02  0.42769261023E+02  0.23783846817E+02  0.57863186200E+02  0.00000000000E+00 0. -1.
         -1    1    3    3    0  502 -0.97098867771E+02  0.96790411712E+02  0.24452307280E+03  0.28033570421E+03  0.00000000000E+00 0.  1.
         11    1    5    5    0    0  0.24049071429E+02 -0.74122813199E+01 -0.81059857163E+02  0.84876381840E+02  0.00000000000E+00 0. -1.
        -11    1    5    5    0    0  0.16424131505E+03 -0.34054148350E+03 -0.19398395984E+04  0.19763404006E+04  0.00000000000E+00 0.  1.
          3    1    6    6  503    0 -0.11504338743E+02 -0.31575984025E+01 -0.23693066785E+02  0.26526998535E+02  0.00000000000E+00 0. -1.
         -3    1    6    6    0  503 -0.48812153495E+02  0.21155169049E+03 -0.87222316863E+02  0.23397537613E+03  0.00000000000E+00 0.  1.
<mgrwt>
<rscale>  0 0.18980259E+04</rscale>
<asrwt>0</asrwt>
<pdfrwt beam="1">  1        2 0.34795585E+00 0.18980259E+04</pdfrwt>
<pdfrwt beam="2">  1       -1 0.61262316E-01 0.18980259E+04</pdfrwt>
<totfact> 0.13739164E+01</totfact>
</mgrwt>
</event>
<event>
12    6  0.9533401E-008  0.1987808E+04  0.7818608E-02  0.8612342E-01
         -1   -1    0    0    0  501 -0.00000000000E+00  0.00000000000E+00  0.48097302111E+03  0.48097302111E+03  0.00000000000E+00 0.  1.
          2   -1    0    0  501    0  0.00000000000E+00 -0.00000000000E+00 -0.20538478214E+04  0.20538478214E+04  0.00000000000E+00 0. -1.
         24    2    1    2    0    0 -0.71877618164E+03 -0.27167396520E+03 -0.44223585355E+03  0.89016089162E+03  0.79799249059E+02 0.  0.
        254    2    1    2    0    0  0.71877618164E+03  0.27167396520E+03 -0.11306389468E+04  0.16446599509E+04  0.91439377925E+03 0.  0.
         23    2    4    4    0    0  0.75872667031E+03 -0.68851442606E+02 -0.10125893457E+04  0.12704722639E+04  0.91410660401E+02 0.  0.
         23    2    4    4    0    0 -0.39950488672E+02  0.34052540780E+03 -0.11804960105E+03  0.37418768703E+03  0.92342416655E+02 0.  0.
          4    1    3    3  502    0 -0.49531344736E+03 -0.16945884901E+03 -0.33866971678E+03  0.62349730529E+03  0.00000000000E+00 0. -1.
         -3    1    3    3    0  502 -0.22346273428E+03 -0.10221511619E+03 -0.10356613678E+03  0.26666358633E+03  0.00000000000E+00 0.  1.
         11    1    5    5    0    0  0.68793044254E+03 -0.40836701016E+02 -0.88193296327E+03  0.11192504999E+04  0.00000000000E+00 0. -1.
        -11    1    5    5    0    0  0.70796227767E+02 -0.28014741591E+02 -0.13065638245E+03  0.15122176394E+03  0.00000000000E+00 0.  1.
          4    1    6    6  503    0 -0.32431871102E+02  0.34390152751E+03 -0.12007225665E+03  0.36570129027E+03  0.00000000000E+00 0. -1.
         -4    1    6    6    0  503 -0.75186175703E+01 -0.33761197040E+01  0.20226555975E+01  0.84863967672E+01  0.00000000000E+00 0.  1.
<mgrwt>
<rscale>  0 0.19878082E+04</rscale>
<asrwt>0</asrwt>
<pdfrwt beam="1">  1        2 0.31597659E+00 0.19878082E+04</pdfrwt>
<pdfrwt beam="2">  1       -1 0.73995849E-01 0.19878082E+04</pdfrwt>
<totfact> 0.12140645E+01</totfact>
</mgrwt>
</event>
<event>
12    6  0.9533401E-008  0.1794226E+04  0.7818608E-02  0.8709376E-01
          2   -1    0    0  501    0  0.00000000000E+00  0.00000000000E+00  0.89839554561E+03  0.89839554561E+03  0.00000000000E+00 0. -1.
         -1   -1    0    0    0  501 -0.00000000000E+00 -0.00000000000E+00 -0.89583193986E+03  0.89583193986E+03  0.00000000000E+00 0.  1.
         24    2    1    2    0    0 -0.54373227714E+02  0.21628505287E+03  0.63258620449E+03  0.67638482812E+03  0.87151922584E+02 0.  0.
        254    2    1    2    0    0  0.54373227714E+02 -0.21628505287E+03 -0.63002259875E+03  0.11178426574E+04  0.89605137112E+03 0.  0.
         23    2    4    4    0    0 -0.20205378587E+02 -0.55552051996E+03 -0.41142412453E+03  0.69760442234E+03  0.91492154866E+02 0.  0.
         23    2    4    4    0    0  0.74578606300E+02  0.33923546710E+03 -0.21859847422E+03  0.42023823501E+03  0.90400279752E+02 0.  0.
          2    1    3    3  502    0 -0.64548738317E+02  0.21840079635E+03  0.61663680204E+03  0.65734799999E+03  0.00000000000E+00 0. -1.
         -1    1    3    3    0  502  0.10175510603E+02 -0.21157434831E+01  0.15949402450E+02  0.19036828124E+02  0.00000000000E+00 0.  1.
         11    1    5    5    0    0 -0.33246692565E+02 -0.11359098672E+03 -0.59228026165E+02  0.13234883420E+03  0.00000000000E+00 0.  1.
        -11    1    5    5    0    0  0.13041313979E+02 -0.44192953324E+03 -0.35219609837E+03  0.56525558814E+03  0.00000000000E+00 0. -1.
          1    1    6    6  503    0 -0.17742221474E+02  0.63803162723E+02 -0.23320304259E+02  0.70210160141E+02  0.00000000000E+00 0. -1.
         -1    1    6    6    0  503  0.92320827774E+02  0.27543230438E+03 -0.19527816996E+03  0.35002807487E+03  0.00000000000E+00 0.  1.
<mgrwt>
<rscale>  0 0.17942257E+04</rscale>
<asrwt>0</asrwt>
<pdfrwt beam="1">  1        2 0.13821470E+00 0.17942257E+04</pdfrwt>
<pdfrwt beam="2">  1       -1 0.13782030E+00 0.17942257E+04</pdfrwt>
<totfact> 0.13837234E+01</totfact>
</mgrwt>
</event>
<event>
12    6  0.9533401E-008  0.2277205E+04  0.7818608E-02  0.8486964E-01
         -1   -1    0    0    0  501 -0.00000000000E+00  0.00000000000E+00  0.50001407803E+03  0.50001407803E+03  0.00000000000E+00 0.  1.
          2   -1    0    0  501    0  0.00000000000E+00 -0.00000000000E+00 -0.25927579100E+04  0.25927579100E+04  0.00000000000E+00 0. -1.
         24    2    1    2    0    0 -0.61964907288E+03 -0.72646910333E+03 -0.78827494059E+03  0.12403414743E+04  0.73124957198E+02 0.  0.
        254    2    1    2    0    0  0.61964907288E+03  0.72646910333E+03 -0.13044688914E+04  0.18524305137E+04  0.90450947365E+03 0.  0.
         23    2    4    4    0    0  0.51121768618E+03  0.23347020505E+03 -0.12016276273E+04  0.13296246707E+04  0.90227218285E+02 0.  0.
         23    2    4    4    0    0  0.10843138670E+03  0.49299889828E+03 -0.10284126413E+03  0.52280584305E+03  0.89131052910E+02 0.  0.
          4    1    3    3  502    0 -0.72804327714E+02 -0.52703148430E+02 -0.74994371543E+02  0.11705660063E+03  0.00000000000E+00 0. -1.
         -3    1    3    3    0  502 -0.54684474516E+03 -0.67376595490E+03 -0.71328056904E+03  0.11232848737E+04  0.00000000000E+00 0.  1.
         11    1    5    5    0    0  0.28800772931E+02  0.29069735633E+02 -0.51473641108E+02  0.65757659479E+02  0.00000000000E+00 0. -1.
        -11    1    5    5    0    0  0.48241691325E+03  0.20440046941E+03 -0.11501539862E+04  0.12638670112E+04  0.00000000000E+00 0.  1.
          3    1    6    6  503    0  0.38394185128E+02  0.26612306874E+03 -0.13843853454E+02  0.26923456955E+03  0.00000000000E+00 0. -1.
         -3    1    6    6    0  503  0.70037201569E+02  0.22687582954E+03 -0.88997410673E+02  0.25357127350E+03  0.00000000000E+00 0.  1.
<mgrwt>
<rscale>  0 0.22772048E+04</rscale>
<asrwt>0</asrwt>
<pdfrwt beam="1">  1        2 0.39888583E+00 0.22772048E+04</pdfrwt>
<pdfrwt beam="2">  1       -1 0.76925242E-01 0.22772048E+04</pdfrwt>
<totfact> 0.53842333E+00</totfact>
</mgrwt>
</event>
<event>
12    6  0.9533401E-008  0.2140812E+04  0.7818608E-02  0.8543475E-01
         -1   -1    0    0    0  501 -0.00000000000E+00  0.00000000000E+00  0.61209166273E+03  0.61209166273E+03  0.00000000000E+00 0.  1.
          2   -1    0    0  501    0  0.00000000000E+00 -0.00000000000E+00 -0.18718915292E+04  0.18718915292E+04  0.00000000000E+00 0. -1.
         24    2    1    2    0    0 -0.66716688832E+03  0.19563163983E+03  0.10404149454E+03  0.70753934783E+03  0.80024376078E+02 0.  0.
        254    2    1    2    0    0  0.66716688832E+03 -0.19563163983E+03 -0.13638413610E+04  0.17764438441E+04  0.90128024379E+03 0.  0.
         23    2    4    4    0    0 -0.81375929000E+02  0.21583043079E+03 -0.15178003370E+03  0.29074000616E+03  0.91037112641E+02 0.  0.
         23    2    4    4    0    0  0.74854281732E+03 -0.41146207062E+03 -0.12120613273E+04  0.14857038379E+04  0.92767709787E+02 0.  0.
          2    1    3    3  502    0 -0.20312602428E+03  0.92840649945E+02  0.52816472230E+02  0.22949759860E+03  0.00000000000E+00 0. -1.
         -1    1    3    3    0  502 -0.46404086403E+03  0.10279098989E+03  0.51225022306E+02  0.47804174923E+03  0.00000000000E+00 0.  1.
         11    1    5    5    0    0 -0.82598976408E+02  0.11860454067E+03 -0.12174057314E+03  0.18897194268E+03  0.00000000000E+00 0.  1.
        -11    1    5    5    0    0  0.12230474082E+01  0.97225890122E+02 -0.30039460562E+02  0.10176806349E+03  0.00000000000E+00 0. -1.
          3    1    6    6  503    0  0.65523888128E+03 -0.37480705211E+03 -0.11124555626E+04  0.13443867363E+04  0.00000000000E+00 0. -1.
         -3    1    6    6    0  503  0.93303936039E+02 -0.36655018517E+02 -0.99605764635E+02  0.14131710162E+03  0.00000000000E+00 0.  1.
<mgrwt>
<rscale>  0 0.21408122E+04</rscale>
<asrwt>0</asrwt>
<pdfrwt beam="1">  1        2 0.28798331E+00 0.21408122E+04</pdfrwt>
<pdfrwt beam="2">  1       -1 0.94167948E-01 0.21408122E+04</pdfrwt>
<totfact> 0.89888015E+00</totfact>
</mgrwt>
</event>
<event>
12    6  0.9533401E-008  0.2099820E+04  0.7818608E-02  0.8561323E-01
          2   -1    0    0  501    0  0.00000000000E+00  0.00000000000E+00  0.11581377333E+04  0.11581377333E+04  0.00000000000E+00 0. -1.
         -1   -1    0    0    0  501 -0.00000000000E+00 -0.00000000000E+00 -0.95179572886E+03  0.95179572886E+03  0.00000000000E+00 0.  1.
         24    2    1    2    0    0 -0.35860455233E+03 -0.23616466934E+03  0.82571824136E+03  0.93423965286E+03  0.81376525263E+02 0.  0.
        254    2    1    2    0    0  0.35860455233E+03  0.23616466934E+03 -0.61937623695E+03  0.11756938093E+04  0.90236247389E+03 0.  0.
         23    2    4    4    0    0 -0.13216535975E+03  0.12278880655E+03  0.14879533356E+03  0.25274893911E+03  0.95902041693E+02 0.  0.
         23    2    4    4    0    0  0.49076991208E+03  0.11337586279E+03 -0.76817157051E+03  0.92294487017E+03  0.89612938591E+02 0.  0.
          2    1    3    3  502    0 -0.31234676179E+03 -0.23320318663E+03  0.75493251963E+03  0.84962776264E+03  0.00000000000E+00 0. -1.
         -1    1    3    3    0  502 -0.46257790535E+02 -0.29614827040E+01  0.70785721736E+02  0.84611890221E+02  0.00000000000E+00 0.  1.
         11    1    5    5    0    0 -0.13243850674E+03  0.13507396686E+03  0.12737933069E+03  0.22805794982E+03  0.00000000000E+00 0. -1.
        -11    1    5    5    0    0  0.27314698376E+00 -0.12285160314E+02  0.21416002865E+02  0.24690989286E+02  0.00000000000E+00 0.  1.
          2    1    6    6  503    0  0.42081873516E+03  0.77431237685E+02 -0.59628756633E+03  0.73392292933E+03  0.00000000000E+00 0. -1.
         -2    1    6    6    0  503  0.69951176917E+02  0.35944625102E+02 -0.17188400418E+03  0.18902194084E+03  0.00000000000E+00 0.  1.
<mgrwt>
<rscale>  0 0.20998196E+04</rscale>
<asrwt>0</asrwt>
<pdfrwt beam="1">  1        2 0.17817503E+00 0.20998196E+04</pdfrwt>
<pdfrwt beam="2">  1       -1 0.14643011E+00 0.20998196E+04</pdfrwt>
<totfact> 0.78511720E+00</totfact>
</mgrwt>
</event>
<event>
12    6  0.9533401E-008  0.1989072E+04  0.7818608E-02  0.8611747E-01
         -1   -1    0    0    0  501 -0.00000000000E+00  0.00000000000E+00  0.51285350063E+03  0.51285350063E+03  0.00000000000E+00 0.  1.
          2   -1    0    0  501    0  0.00000000000E+00 -0.00000000000E+00 -0.19286240304E+04  0.19286240304E+04  0.00000000000E+00 0. -1.
         24    2    1    2    0    0 -0.61061888705E+03  0.49976985397E+03 -0.51776431456E+03  0.94706160296E+03  0.78869906832E+02 0.  0.
        254    2    1    2    0    0  0.61061888705E+03 -0.49976985397E+03 -0.89800621525E+03  0.14944159281E+04  0.89679343852E+03 0.  0.
         23    2    4    4    0    0  0.72374212606E+03 -0.74073243649E+02 -0.45282404461E+03  0.86176308154E+03  0.91085030969E+02 0.  0.
         23    2    4    4    0    0 -0.11312323900E+03 -0.42569661032E+03 -0.44518217064E+03  0.63265284657E+03  0.89710578924E+02 0.  0.
          4    1    3    3  502    0 -0.37906064131E+03  0.33689225781E+03 -0.29389361201E+03  0.58613720095E+03  0.00000000000E+00 0. -1.
         -3    1    3    3    0  502 -0.23155824574E+03  0.16287759617E+03 -0.22387070255E+03  0.36092440201E+03  0.00000000000E+00 0.  1.
         11    1    5    5    0    0  0.68337646244E+03 -0.71911661961E+02 -0.39947908965E+03  0.79483219589E+03  0.00000000000E+00 0. -1.
        -11    1    5    5    0    0  0.40365663616E+02 -0.21615816877E+01 -0.53344954960E+02  0.66930885653E+02  0.00000000000E+00 0.  1.
          2    1    6    6  503    0 -0.26591941060E+02 -0.13412997186E+03 -0.19856487507E+03  0.24109332278E+03  0.00000000000E+00 0.  1.
         -2    1    6    6    0  503 -0.86531297945E+02 -0.29156663847E+03 -0.24661729557E+03  0.39155952378E+03  0.00000000000E+00 0. -1.
<mgrwt>
<rscale>  0 0.19890717E+04</rscale>
<asrwt>0</asrwt>
<pdfrwt beam="1">  1        2 0.29671138E+00 0.19890717E+04</pdfrwt>
<pdfrwt beam="2">  1       -1 0.78900541E-01 0.19890717E+04</pdfrwt>
<totfact> 0.12451530E+01</totfact>
</mgrwt>
</event>
<event>
12    6  0.1193489E-007  0.2593415E+04  0.7818608E-02  0.8370442E-01
         -1   -1    0    0    0  501 -0.00000000000E+00  0.00000000000E+00  0.74865799398E+03  0.74865799398E+03  0.00000000000E+00 0.  1.
          2   -1    0    0  501    0  0.00000000000E+00 -0.00000000000E+00 -0.22459520647E+04  0.22459520647E+04  0.00000000000E+00 0. -1.
         24    2    1    2    0    0 -0.36438162459E+03 -0.40318412820E+03 -0.18168777250E+04  0.18974741143E+04  0.63497536502E+02 0.  0.
        254    2    1    2    0    0  0.36438162459E+03  0.40318412820E+03  0.31958365437E+03  0.10971359443E+04  0.89790988336E+03 0.  0.
         23    2    4    4    0    0 -0.70158073128E+01 -0.21496606740E+03 -0.10447886830E+03  0.25572473751E+03  0.90662427539E+02 0.  0.
         23    2    4    4    0    0  0.37139743190E+03  0.61815019561E+03  0.42406252266E+03  0.84141120682E+03  0.89989327599E+02 0.  0.
          4    1    3    3  502    0 -0.27112995376E+03 -0.31072565642E+03 -0.12810752873E+04  0.13458141689E+04  0.00000000000E+00 0. -1.
         -3    1    3    3    0  502 -0.93251670829E+02 -0.92458471780E+02 -0.53580243775E+03  0.55165994545E+03  0.00000000000E+00 0.  1.
         11    1    5    5    0    0  0.28134443771E+02 -0.21680988341E+02 -0.61929581012E+01  0.36055026166E+02  0.00000000000E+00 0. -1.
        -11    1    5    5    0    0 -0.35150251084E+02 -0.19328507906E+03 -0.98285910197E+02  0.21966971135E+03  0.00000000000E+00 0.  1.
          4    1    6    6  503    0  0.36958908480E+03  0.58238493985E+03  0.39213607187E+03  0.79343494291E+03  0.00000000000E+00 0.  1.
         -4    1    6    6    0  503  0.18083471019E+01  0.35765255756E+02  0.31926450791E+02  0.47976263909E+02  0.00000000000E+00 0. -1.
<mgrwt>
<rscale>  0 0.25934147E+04</rscale>
<asrwt>0</asrwt>
<pdfrwt beam="1">  1        2 0.34553108E+00 0.25934147E+04</pdfrwt>
<pdfrwt beam="2">  1       -1 0.11517815E+00 0.25934147E+04</pdfrwt>
<totfact> 0.33484038E+00</totfact>
</mgrwt>
</event>
<event>
12    6  0.9533401E-008  0.1399950E+04  0.7818608E-02  0.8953855E-01
          2   -1    0    0  501    0  0.00000000000E+00  0.00000000000E+00  0.23309640545E+04  0.23309640545E+04  0.00000000000E+00 0. -1.
         -1   -1    0    0    0  501 -0.00000000000E+00 -0.00000000000E+00 -0.21019839911E+03  0.21019839911E+03  0.00000000000E+00 0.  1.
         24    2    1    2    0    0  0.24978462659E+03  0.19141475903E+03  0.10827872424E+04  0.11303330450E+04  0.78693141513E+02 0.  0.
        254    2    1    2    0    0 -0.24978462659E+03 -0.19141475903E+03  0.10379784129E+04  0.14108294086E+04  0.90222417660E+03 0.  0.
         23    2    4    4    0    0 -0.41599799239E+03  0.23008341927E+03  0.41945514233E+03  0.63904141151E+03  0.80240885468E+02 0.  0.
         23    2    4    4    0    0  0.16621336580E+03 -0.42149817830E+03  0.61852327058E+03  0.77178799709E+03  0.88306732013E+02 0.  0.
          2    1    3    3  502    0  0.19510898681E+03  0.13003134365E+03  0.68131828895E+03  0.72053471667E+03  0.00000000000E+00 0. -1.
         -1    1    3    3    0  502  0.54675639783E+02  0.61383415380E+02  0.40146895350E+03  0.40979832832E+03  0.00000000000E+00 0.  1.
         11    1    5    5    0    0 -0.55435698011E+02  0.58696074200E+02  0.94439186313E+02  0.12424614945E+03  0.00000000000E+00 0. -1.
        -11    1    5    5    0    0 -0.36056229438E+03  0.17138734507E+03  0.32501595602E+03  0.51479526207E+03  0.00000000000E+00 0.  1.
          3    1    6    6  503    0  0.10085381123E+02 -0.34903108995E+01  0.22056979019E+01  0.10897811056E+02  0.00000000000E+00 0. -1.
         -3    1    6    6    0  503  0.15612798467E+03 -0.41800786740E+03  0.61631757268E+03  0.76089018603E+03  0.00000000000E+00 0.  1.
<mgrwt>
<rscale>  0 0.13999499E+04</rscale>
<asrwt>0</asrwt>
<pdfrwt beam="1">  1        2 0.35860984E+00 0.13999499E+04</pdfrwt>
<pdfrwt beam="2">  1       -1 0.32338217E-01 0.13999499E+04</pdfrwt>
<totfact> 0.43232232E+01</totfact>
</mgrwt>
</event>
<event>
12    6  0.9533401E-008  0.2627290E+04  0.7818608E-02  0.8358990E-01
          2   -1    0    0  501    0  0.00000000000E+00  0.00000000000E+00  0.27468362163E+04  0.27468362163E+04  0.00000000000E+00 0. -1.
         -1   -1    0    0    0  501 -0.00000000000E+00 -0.00000000000E+00 -0.62823671306E+03  0.62823671306E+03  0.00000000000E+00 0.  1.
         24    2    1    2    0    0  0.23571913565E+02  0.98313369203E+03  0.15016297127E+03  0.99805562713E+03  0.80365573430E+02 0.  0.
        254    2    1    2    0    0 -0.23571913565E+02 -0.98313369203E+03  0.19684365320E+04  0.23770173022E+04  0.89908919645E+03 0.  0.
         23    2    4    4    0    0 -0.11579437229E+02 -0.78506915251E+03  0.60644884227E+03  0.99737447765E+03  0.10250850111E+03 0.  0.
         23    2    4    4    0    0 -0.11992476336E+02 -0.19806453952E+03  0.13619876897E+04  0.13796428246E+04  0.95028812418E+02 0.  0.
          4    1    3    3  502    0  0.10536722390E+01  0.13269152723E+03 -0.71704874574E+01  0.13288930549E+03  0.00000000000E+00 0. -1.
         -3    1    3    3    0  502  0.22518241326E+02  0.85044216480E+03  0.15733345873E+03  0.86516632164E+03  0.00000000000E+00 0.  1.
         11    1    5    5    0    0 -0.51913799310E+02 -0.60725416319E+03  0.46950894774E+03  0.76934472981E+03  0.00000000000E+00 0. -1.
        -11    1    5    5    0    0  0.40334362081E+02 -0.17781498931E+03  0.13693989452E+03  0.22802974784E+03  0.00000000000E+00 0.  1.
          1    1    6    6  503    0  0.22811829340E+02 -0.14467378226E+03  0.11144224743E+04  0.11240054867E+04  0.00000000000E+00 0. -1.
         -1    1    6    6    0  503 -0.34804305676E+02 -0.53390757260E+02  0.24756521539E+03  0.25563733789E+03  0.00000000000E+00 0.  1.
<mgrwt>
<rscale>  0 0.26272901E+04</rscale>
<asrwt>0</asrwt>
<pdfrwt beam="1">  1        2 0.42259018E+00 0.26272901E+04</pdfrwt>
<pdfrwt beam="2">  1       -1 0.96651804E-01 0.26272901E+04</pdfrwt>
<totfact> 0.25723658E+00</totfact>
</mgrwt>
</event>
<event>
12    6  0.9533401E-008  0.1592443E+04  0.7818608E-02  0.8825204E-01
         -3   -1    0    0    0  501 -0.00000000000E+00  0.00000000000E+00  0.11552536733E+04  0.11552536733E+04  0.00000000000E+00 0.  1.
          4   -1    0    0  501    0  0.00000000000E+00 -0.00000000000E+00 -0.54877027093E+03  0.54877027093E+03  0.00000000000E+00 0. -1.
         24    2    1    2    0    0 -0.10820971299E+02 -0.41966829668E+03 -0.15585876819E+03  0.45480171216E+03  0.79461116918E+02 0.  0.
        254    2    1    2    0    0  0.10820971299E+02  0.41966829668E+03  0.76234217059E+03  0.12492222321E+04  0.89618749571E+03 0.  0.
         23    2    4    4    0    0 -0.19723713172E+03 -0.19632183618E+03  0.83665069778E+02  0.30468475530E+03  0.91587153695E+02 0.  0.
         23    2    4    4    0    0  0.20805810302E+03  0.61599013287E+03  0.67867710081E+03  0.94453747680E+03  0.93895792708E+02 0.  0.
          2    1    3    3  502    0  0.59139319614E+01 -0.40435454918E+03 -0.14455729813E+03  0.42945824998E+03  0.00000000000E+00 0. -1.
         -1    1    3    3    0  502 -0.16734903261E+02 -0.15313747501E+02 -0.11301470056E+02  0.25343462176E+02  0.00000000000E+00 0.  1.
         11    1    5    5    0    0 -0.12644140949E+03 -0.17880224466E+03  0.51448406300E+02  0.22495468708E+03  0.00000000000E+00 0.  1.
        -11    1    5    5    0    0 -0.70795722226E+02 -0.17519591524E+02  0.32216663478E+02  0.79730068220E+02  0.00000000000E+00 0. -1.
          2    1    6    6  503    0  0.14281885507E+02  0.13621079727E+03  0.10978597970E+03  0.17552867255E+03  0.00000000000E+00 0. -1.
         -2    1    6    6    0  503  0.19377621751E+03  0.47977933560E+03  0.56889112111E+03  0.76900880425E+03  0.00000000000E+00 0.  1.
<mgrwt>
<rscale>  0 0.15924432E+04</rscale>
<asrwt>0</asrwt>
<pdfrwt beam="1">  1        4 0.84426196E-01 0.15924432E+04</pdfrwt>
<pdfrwt beam="2">  1       -3 0.17773133E+00 0.15924432E+04</pdfrwt>
<totfact> 0.55179746E-01</totfact>
</mgrwt>
</event>
<event>
12    6  0.9533401E-008  0.1496645E+04  0.7818608E-02  0.8886687E-01
         -1   -1    0    0    0  501 -0.00000000000E+00  0.00000000000E+00  0.12869549618E+04  0.12869549618E+04  0.00000000000E+00 0.  1.
          2   -1    0    0  501    0  0.00000000000E+00 -0.00000000000E+00 -0.43512532331E+03  0.43512532331E+03  0.00000000000E+00 0. -1.
         24    2    1    2    0    0  0.66429558495E+02 -0.29944125862E+03 -0.15280586811E+03  0.35140515390E+03  0.77833124404E+02 0.  0.
        254    2    1    2    0    0 -0.66429558495E+02  0.29944125862E+03  0.10046355066E+04  0.13706751312E+04  0.88055656297E+03 0.  0.
         23    2    4    4    0    0 -0.17406229136E+03  0.17592724410E+03  0.11202337255E+04  0.11510382492E+04  0.93366883234E+02 0.  0.
         23    2    4    4    0    0  0.10763273286E+03  0.12351401453E+03 -0.11559821892E+03  0.21963688200E+03  0.89648729768E+02 0.  0.
          4    1    3    3  502    0  0.64030675903E+02 -0.11676313862E+03 -0.53952602951E+02  0.14368173635E+03  0.00000000000E+00 0. -1.
         -3    1    3    3    0  502  0.23988825915E+01 -0.18267812001E+03 -0.98853265160E+02  0.20772341755E+03  0.00000000000E+00 0.  1.
         11    1    5    5    0    0 -0.23775685149E+02  0.32199379106E+02  0.38148863236E+03  0.38358266364E+03  0.00000000000E+00 0. -1.
        -11    1    5    5    0    0 -0.15028660621E+03  0.14372786499E+03  0.73874509314E+03  0.76745558557E+03  0.00000000000E+00 0.  1.
          4    1    6    6  503    0  0.69274768581E+02  0.94237079043E+02 -0.28999262354E+02  0.12050136035E+03  0.00000000000E+00 0. -1.
         -4    1    6    6    0  503  0.38357964281E+02  0.29276935483E+02 -0.86598956561E+02  0.99135521649E+02  0.00000000000E+00 0.  1.
<mgrwt>
<rscale>  0 0.14966452E+04</rscale>
<asrwt>0</asrwt>
<pdfrwt beam="1">  1        2 0.66942358E-01 0.14966452E+04</pdfrwt>
<pdfrwt beam="2">  1       -1 0.19799307E+00 0.14966452E+04</pdfrwt>
<totfact> 0.12412128E+01</totfact>
</mgrwt>
</event>
<event>
12    6  0.9533401E-008  0.1918056E+04  0.7818608E-02  0.8645921E-01
         -1   -1    0    0    0  501 -0.00000000000E+00  0.00000000000E+00  0.50469391022E+03  0.50469391022E+03  0.00000000000E+00 0.  1.
          2   -1    0    0  501    0  0.00000000000E+00 -0.00000000000E+00 -0.18223611742E+04  0.18223611742E+04  0.00000000000E+00 0. -1.
         24    2    1    2    0    0  0.43576193613E+03 -0.54524880299E+03 -0.83161925773E+03  0.10885151135E+04  0.78037428603E+02 0.  0.
        254    2    1    2    0    0 -0.43576193613E+03  0.54524880299E+03 -0.48604800623E+03  0.12385399709E+04  0.90030765470E+03 0.  0.
         23    2    4    4    0    0 -0.14954597691E+03  0.35339130423E+03  0.21704364572E+03  0.45029408665E+03  0.91691914639E+02 0.  0.
         23    2    4    4    0    0 -0.28621595922E+03  0.19185749876E+03 -0.70309165195E+03  0.78824588429E+03  0.90911098997E+02 0.  0.
          2    1    3    3  502    0  0.41056457157E+03 -0.52505643216E+03 -0.76601359002E+03  0.10153936894E+04  0.00000000000E+00 0. -1.
         -1    1    3    3    0  502  0.25197364559E+02 -0.20192370822E+02 -0.65605667709E+02  0.73121424054E+02  0.00000000000E+00 0.  1.
         11    1    5    5    0    0 -0.11916819999E+03  0.21220354752E+03  0.95162462456E+02  0.26131838766E+03  0.00000000000E+00 0. -1.
        -11    1    5    5    0    0 -0.30377776920E+02  0.14118775671E+03  0.12188118326E+03  0.18897569899E+03  0.00000000000E+00 0.  1.
          4    1    6    6  503    0 -0.23817427991E+03  0.16196452181E+03 -0.64866164089E+03  0.70973334309E+03  0.00000000000E+00 0. -1.
         -4    1    6    6    0  503 -0.48041679309E+02  0.29892976949E+02 -0.54430011062E+02  0.78512541202E+02  0.00000000000E+00 0.  1.
<mgrwt>
<rscale>  0 0.19180559E+04</rscale>
<asrwt>0</asrwt>
<pdfrwt beam="1">  1        2 0.28036325E+00 0.19180559E+04</pdfrwt>
<pdfrwt beam="2">  1       -1 0.77645220E-01 0.19180559E+04</pdfrwt>
<totfact> 0.14843645E+01</totfact>
</mgrwt>
</event>
<event>
12    6  0.9533401E-008  0.2791180E+04  0.7818608E-02  0.8306012E-01
         -1   -1    0    0    0  501 -0.00000000000E+00  0.00000000000E+00  0.13608428464E+04  0.13608428464E+04  0.00000000000E+00 0.  1.
          2   -1    0    0  501    0  0.00000000000E+00 -0.00000000000E+00 -0.14312240232E+04  0.14312240232E+04  0.00000000000E+00 0. -1.
         24    2    1    2    0    0 -0.44219517649E+03  0.10030293094E+04 -0.63036926410E+03  0.12669563535E+04  0.78794815438E+02 0.  0.
        254    2    1    2    0    0  0.44219517649E+03 -0.10030293094E+04  0.55998808725E+03  0.15251105161E+04  0.90042826401E+03 0.  0.
         23    2    4    4    0    0  0.69292116407E+03 -0.76824920513E+03  0.53618456884E+03  0.11688883769E+04  0.91975893225E+02 0.  0.
         23    2    4    4    0    0 -0.25072598758E+03 -0.23478010431E+03  0.23803518412E+02  0.35622213919E+03  0.91336666954E+02 0.  0.
          2    1    3    3  502    0 -0.32410389971E+03  0.68510055995E+03 -0.47000297951E+03  0.89180093956E+03  0.00000000000E+00 0. -1.
         -1    1    3    3    0  502 -0.11809127678E+03  0.31792874950E+03 -0.16036628460E+03  0.37515541399E+03  0.00000000000E+00 0.  1.
         11    1    5    5    0    0  0.65822125453E+03 -0.69297324883E+03  0.49184242114E+03  0.10748842313E+04  0.00000000000E+00 0. -1.
        -11    1    5    5    0    0  0.34699909546E+02 -0.75275956307E+02  0.44342147699E+02  0.94004145563E+02  0.00000000000E+00 0.  1.
          4    1    6    6  503    0 -0.14020123188E+02 -0.20355154694E+02  0.27286818243E+02  0.36816662350E+02  0.00000000000E+00 0.  1.
         -4    1    6    6    0  503 -0.23670586439E+03 -0.21442494962E+03 -0.34832998310E+01  0.31940547684E+03  0.00000000000E+00 0. -1.
<mgrwt>
<rscale>  0 0.27911797E+04</rscale>
<asrwt>0</asrwt>
<pdfrwt beam="1">  1        2 0.22018831E+00 0.27911797E+04</pdfrwt>
<pdfrwt beam="2">  1       -1 0.20936044E+00 0.27911797E+04</pdfrwt>
<totfact> 0.17885647E+00</totfact>
</mgrwt>
</event>
<event>
12    6  0.9533401E-008  0.1231920E+04  0.7818608E-02  0.9085367E-01
          2   -1    0    0  501    0  0.00000000000E+00  0.00000000000E+00  0.46093804292E+03  0.46093804292E+03  0.00000000000E+00 0. -1.
         -1   -1    0    0    0  501 -0.00000000000E+00 -0.00000000000E+00 -0.82311803825E+03  0.82311803825E+03  0.00000000000E+00 0.  1.
         24    2    1    2    0    0  0.23426374827E+03  0.10938792204E+03 -0.20981913130E+03  0.34344084813E+03  0.84156562788E+02 0.  0.
        254    2    1    2    0    0 -0.23426374827E+03 -0.10938792204E+03 -0.15236086402E+03  0.94061523304E+03  0.89145833469E+03 0.  0.
         23    2    4    4    0    0 -0.44871886477E+03  0.17603237788E+03  0.91517425427E+02  0.49879254367E+03  0.89902974325E+02 0.  0.
         23    2    4    4    0    0  0.21445511650E+03 -0.28542029993E+03 -0.24387828945E+03  0.44182268937E+03  0.90966610217E+02 0.  0.
          2    1    3    3  502    0  0.43322817346E+02  0.35115152054E+02 -0.88761956864E+01  0.56468816673E+02  0.00000000000E+00 0. -1.
         -1    1    3    3    0  502  0.19094093093E+03  0.74272769991E+02 -0.20094293561E+03  0.28697203146E+03  0.00000000000E+00 0.  1.
         11    1    5    5    0    0 -0.38604051049E+03  0.11591082243E+03  0.83008867333E+02  0.41152529273E+03  0.00000000000E+00 0. -1.
        -11    1    5    5    0    0 -0.62678354280E+02  0.60121555454E+02  0.85085580937E+01  0.87267250938E+02  0.00000000000E+00 0.  1.
          3    1    6    6  503    0  0.16684815786E+03 -0.15773268904E+03 -0.12757141823E+03  0.26266399776E+03  0.00000000000E+00 0. -1.
         -3    1    6    6    0  503  0.47606958644E+02 -0.12768761089E+03 -0.11630687122E+03  0.17915869161E+03  0.00000000000E+00 0.  1.
<mgrwt>
<rscale>  0 0.12319195E+04</rscale>
<asrwt>0</asrwt>
<pdfrwt beam="1">  1        2 0.70913545E-01 0.12319195E+04</pdfrwt>
<pdfrwt beam="2">  1       -1 0.12663354E+00 0.12319195E+04</pdfrwt>
<totfact> 0.41300983E+01</totfact>
</mgrwt>
</event>
<event>
12    6  0.9533401E-008  0.1343399E+04  0.7818608E-02  0.8995840E-01
          2   -1    0    0  501    0  0.00000000000E+00  0.00000000000E+00  0.13224156236E+04  0.13224156236E+04  0.00000000000E+00 0. -1.
         -1   -1    0    0    0  501 -0.00000000000E+00 -0.00000000000E+00 -0.34117881032E+03  0.34117881032E+03  0.00000000000E+00 0.  1.
         24    2    1    2    0    0  0.40306627015E+02  0.24685298321E+02 -0.17882566162E+03  0.19399679618E+03  0.58499158471E+02 0.  0.
        254    2    1    2    0    0 -0.40306627015E+02 -0.24685298321E+02  0.11600624749E+04  0.14695976377E+04  0.90096519524E+03 0.  0.
         23    2    4    4    0    0 -0.42766515009E+03 -0.14766285531E+03  0.78092920771E+03  0.90719552053E+03  0.91931961672E+02 0.  0.
         23    2    4    4    0    0  0.38735852307E+03  0.12297755699E+03  0.37913326720E+03  0.56240211722E+03  0.85930217215E+02 0.  0.
          4    1    3    3  502    0 -0.82727451288E+01  0.22550292068E+02 -0.37438194499E+02  0.44481146475E+02  0.00000000000E+00 0. -1.
         -3    1    3    3    0  502  0.48579372144E+02  0.21350062525E+01 -0.14138746712E+03  0.14951564971E+03  0.00000000000E+00 0.  1.
         11    1    5    5    0    0 -0.28818175148E+03 -0.13644112000E+03  0.58763810254E+03  0.66856820196E+03  0.00000000000E+00 0. -1.
        -11    1    5    5    0    0 -0.13948339861E+03 -0.11221735311E+02  0.19329110517E+03  0.23862731857E+03  0.00000000000E+00 0.  1.
          4    1    6    6  503    0  0.28177478296E+03  0.12166212750E+03  0.25185841586E+03  0.39702816426E+03  0.00000000000E+00 0. -1.
         -4    1    6    6    0  503  0.10558374011E+03  0.13154294925E+01  0.12727485135E+03  0.16537395296E+03  0.00000000000E+00 0.  1.
<mgrwt>
<rscale>  0 0.13433990E+04</rscale>
<asrwt>0</asrwt>
<pdfrwt beam="1">  1        2 0.20344856E+00 0.13433990E+04</pdfrwt>
<pdfrwt beam="2">  1       -1 0.52489048E-01 0.13433990E+04</pdfrwt>
<totfact> 0.65336668E+01</totfact>
</mgrwt>
</event>
<event>
12    6  0.9533401E-008  0.2306847E+04  0.7818608E-02  0.8475226E-01
         -3   -1    0    0    0  501 -0.00000000000E+00  0.00000000000E+00  0.80488316351E+03  0.80488316351E+03  0.00000000000E+00 0.  1.
          2   -1    0    0  501    0  0.00000000000E+00 -0.00000000000E+00 -0.16528924146E+04  0.16528924146E+04  0.00000000000E+00 0. -1.
         24    2    1    2    0    0 -0.60202836105E+03  0.58750031514E+03 -0.88991795792E+03  0.12268828932E+04  0.75451268438E+02 0.  0.
        254    2    1    2    0    0  0.60202836105E+03 -0.58750031514E+03  0.41908706786E+02  0.12308926850E+04  0.89763338533E+03 0.  0.
         23    2    4    4    0    0  0.62385885356E+03 -0.13089097204E+02  0.12063596362E+03  0.64199066660E+03  0.90707147794E+02 0.  0.
         23    2    4    4    0    0 -0.21830492508E+02 -0.57441121793E+03 -0.78727256837E+02  0.58890201838E+03  0.10090980425E+03 0.  0.
          2    1    3    3  502    0 -0.43013399192E+03  0.40726560137E+03 -0.57679021213E+03  0.82678139183E+03  0.00000000000E+00 0. -1.
         -1    1    3    3    0  502 -0.17189436913E+03  0.18023471377E+03 -0.31312774579E+03  0.40010150134E+03  0.00000000000E+00 0.  1.
         11    1    5    5    0    0  0.34696681180E+03  0.37693762238E+02  0.63372762875E+02  0.35471523125E+03  0.00000000000E+00 0. -1.
        -11    1    5    5    0    0  0.27689204175E+03 -0.50782859441E+02  0.57263200749E+02  0.28727543536E+03  0.00000000000E+00 0.  1.
          2    1    6    6  503    0 -0.32936368494E+01 -0.34179744029E+03  0.24859112023E+01  0.34182234858E+03  0.00000000000E+00 0. -1.
         -2    1    6    6    0  503 -0.18536855658E+02 -0.23261377764E+03 -0.81213168040E+02  0.24707966980E+03  0.00000000000E+00 0.  1.
<mgrwt>
<rscale>  0 0.23068466E+04</rscale>
<asrwt>0</asrwt>
<pdfrwt beam="1">  1        2 0.25429114E+00 0.23068466E+04</pdfrwt>
<pdfrwt beam="2">  1       -3 0.12382818E+00 0.23068466E+04</pdfrwt>
<totfact> 0.31400350E+00</totfact>
</mgrwt>
</event>
<event>
12    6  0.9533401E-008  0.1394758E+04  0.7818608E-02  0.8957622E-01
         -1   -1    0    0    0  501 -0.00000000000E+00  0.00000000000E+00  0.66205953018E+03  0.66205953018E+03  0.00000000000E+00 0.  1.
          2   -1    0    0  501    0  0.00000000000E+00 -0.00000000000E+00 -0.73458244018E+03  0.73458244018E+03  0.00000000000E+00 0. -1.
         24    2    1    2    0    0  0.26242808510E+02 -0.25211572820E+03 -0.34300435508E+03  0.43373908884E+03  0.78908707852E+02 0.  0.
        254    2    1    2    0    0 -0.26242808510E+02  0.25211572820E+03  0.27048144509E+03  0.96290288153E+03  0.88869045326E+03 0.  0.
         23    2    4    4    0    0  0.18416081807E+03  0.30876183313E+03  0.50728838945E+03  0.62856969119E+03  0.92245705096E+02 0.  0.
         23    2    4    4    0    0 -0.21040362658E+03 -0.56646104926E+02 -0.23680694436E+03  0.33433319033E+03  0.90679027233E+02 0.  0.
          4    1    3    3  502    0  0.17870352001E+01 -0.16852748617E+03 -0.27786082725E+03  0.32497899380E+03  0.00000000000E+00 0. -1.
         -3    1    3    3    0  502  0.24455773310E+02 -0.83588242037E+02 -0.65143527829E+02  0.10876009504E+03  0.00000000000E+00 0.  1.
         11    1    5    5    0    0  0.18830848681E+03  0.29009432123E+03  0.44610971215E+03  0.56447203357E+03  0.00000000000E+00 0. -1.
        -11    1    5    5    0    0 -0.41476687332E+01  0.18667511900E+02  0.61178677299E+02  0.64097657621E+02  0.00000000000E+00 0.  1.
          2    1    6    6  503    0 -0.19060977291E+03 -0.61244710745E+02 -0.16418065452E+03  0.25891753020E+03  0.00000000000E+00 0. -1.
         -2    1    6    6    0  503 -0.19793853670E+02  0.45986058193E+01 -0.72626289833E+02  0.75415660135E+02  0.00000000000E+00 0.  1.
<mgrwt>
<rscale>  0 0.13947578E+04</rscale>
<asrwt>0</asrwt>
<pdfrwt beam="1">  1        2 0.11301268E+00 0.13947578E+04</pdfrwt>
<pdfrwt beam="2">  1       -1 0.10185531E+00 0.13947578E+04</pdfrwt>
<totfact> 0.39152719E+01</totfact>
</mgrwt>
</event>
<event>
12    6  0.9533401E-008  0.1308072E+04  0.7818608E-02  0.9023188E-01
          2   -1    0    0  501    0  0.00000000000E+00  0.00000000000E+00  0.20191329316E+04  0.20191329316E+04  0.00000000000E+00 0. -1.
         -1   -1    0    0    0  501 -0.00000000000E+00 -0.00000000000E+00 -0.21185492334E+03  0.21185492334E+03  0.00000000000E+00 0.  1.
         24    2    1    2    0    0  0.20527182311E+03 -0.25783200201E+03  0.37224107751E+03  0.50364533118E+03  0.80506752597E+02 0.  0.
        254    2    1    2    0    0 -0.20527182311E+03  0.25783200201E+03  0.14350369308E+04  0.17273425238E+04  0.90319839412E+03 0.  0.
         23    2    4    4    0    0 -0.43599021073E+03  0.17039717675E+03  0.13778596972E+04  0.14580787193E+04  0.91507075401E+02 0.  0.
         23    2    4    4    0    0  0.23071838762E+03  0.87434825255E+02  0.57177233547E+02  0.26926380444E+03  0.91421755012E+02 0.  0.
          2    1    3    3  502    0  0.89156484165E+02 -0.11030940185E+03  0.22084447677E+03  0.26246776131E+03  0.00000000000E+00 0. -1.
         -1    1    3    3    0  502  0.11611533894E+03 -0.14752260016E+03  0.15139660074E+03  0.24117756988E+03  0.00000000000E+00 0.  1.
         11    1    5    5    0    0 -0.39736511181E+03  0.13458836478E+03  0.12791801545E+04  0.13462224659E+04  0.00000000000E+00 0.  1.
        -11    1    5    5    0    0 -0.38625098925E+02  0.35808811977E+02  0.98679542754E+02  0.11185625347E+03  0.00000000000E+00 0. -1.
          2    1    6    6  503    0  0.70255449723E+02  0.63948007527E+02  0.48979852370E+02  0.10688405784E+03  0.00000000000E+00 0. -1.
         -2    1    6    6    0  503  0.16046293790E+03  0.23486817728E+02  0.81973811764E+01  0.16237974660E+03  0.00000000000E+00 0.  1.
<mgrwt>
<rscale>  0 0.13080722E+04</rscale>
<asrwt>0</asrwt>
<pdfrwt beam="1">  1        2 0.31063582E+00 0.13080722E+04</pdfrwt>
<pdfrwt beam="2">  1       -1 0.32593067E-01 0.13080722E+04</pdfrwt>
<totfact> 0.64176579E+01</totfact>
</mgrwt>
</event>
<event>
12    6  0.9533401E-008  0.1146297E+04  0.7818608E-02  0.9161207E-01
          2   -1    0    0  501    0  0.00000000000E+00  0.00000000000E+00  0.49585891414E+03  0.49585891414E+03  0.00000000000E+00 0. -1.
         -1   -1    0    0    0  501 -0.00000000000E+00 -0.00000000000E+00 -0.66248516408E+03  0.66248516408E+03  0.00000000000E+00 0.  1.
         24    2    1    2    0    0  0.80539254361E+02  0.85661055450E+02 -0.21048393990E+03  0.25354321418E+03  0.78461994528E+02 0.  0.
        254    2    1    2    0    0 -0.80539254361E+02 -0.85661055450E+02  0.43857689958E+02  0.90480086404E+03  0.89605620286E+03 0.  0.
         23    2    4    4    0    0 -0.19504704513E+03 -0.44745730098E+03 -0.59954335241E+02  0.50051323870E+03  0.93046191718E+02 0.  0.
         23    2    4    4    0    0  0.11450779077E+03  0.36179624553E+03  0.10381202520E+03  0.40428762533E+03  0.93075184652E+02 0.  0.
          2    1    3    3  502    0  0.29295335911E+02  0.15813742961E+02 -0.93999502713E+01  0.34592632708E+02  0.00000000000E+00 0. -1.
         -1    1    3    3    0  502  0.51243918449E+02  0.69847312489E+02 -0.20108398963E+03  0.21895058147E+03  0.00000000000E+00 0.  1.
         11    1    5    5    0    0 -0.18087558122E+02 -0.46041914355E+01 -0.95252745473E+01  0.20954455202E+02  0.00000000000E+00 0.  1.
        -11    1    5    5    0    0 -0.17695948701E+03 -0.44285310954E+03 -0.50429060694E+02  0.47955878350E+03  0.00000000000E+00 0. -1.
          4    1    6    6  503    0  0.12625820211E+03  0.26857533538E+03  0.79264215489E+02  0.30717529236E+03  0.00000000000E+00 0. -1.
         -4    1    6    6    0  503 -0.11750411345E+02  0.93220910143E+02  0.24547809711E+02  0.97112332977E+02  0.00000000000E+00 0.  1.
<mgrwt>
<rscale>  0 0.11462969E+04</rscale>
<asrwt>0</asrwt>
<pdfrwt beam="1">  1        2 0.76285987E-01 0.11462969E+04</pdfrwt>
<pdfrwt beam="2">  1       -1 0.10192079E+00 0.11462969E+04</pdfrwt>
<totfact> 0.64266286E+01</totfact>
</mgrwt>
</event>
<event>
12    6  0.9533401E-008  0.1275008E+04  0.7818608E-02  0.9049622E-01
         -1   -1    0    0    0  501 -0.00000000000E+00  0.00000000000E+00  0.16083017714E+03  0.16083017714E+03  0.00000000000E+00 0.  1.
          2   -1    0    0  501    0  0.00000000000E+00 -0.00000000000E+00 -0.25269599925E+04  0.25269599925E+04  0.00000000000E+00 0. -1.
         24    2    1    2    0    0  0.19375323930E+03  0.19140990402E+03 -0.90023208911E+03  0.94410445277E+03  0.82081266924E+02 0.  0.
        254    2    1    2    0    0 -0.19375323930E+03 -0.19140990402E+03 -0.14658977263E+04  0.17436857169E+04  0.90410489784E+03 0.  0.
         23    2    4    4    0    0  0.25827522354E+03  0.13540271278E+03 -0.87180622417E+03  0.92363391649E+03  0.89518341440E+02 0.  0.
         23    2    4    4    0    0 -0.45202846284E+03 -0.32681261679E+03 -0.59409150208E+03  0.82005180039E+03  0.91673468141E+02 0.  0.
          2    1    3    3  502    0  0.12148850270E+03  0.11214764238E+03 -0.67022235557E+03  0.69031482375E+03  0.00000000000E+00 0. -1.
         -1    1    3    3    0  502  0.72264736601E+02  0.79262261637E+02 -0.23000973354E+03  0.25378962902E+03  0.00000000000E+00 0.  1.
         11    1    5    5    0    0  0.23741091204E+01 -0.18562775289E+01  0.14621883666E+01  0.33496500114E+01  0.00000000000E+00 0. -1.
        -11    1    5    5    0    0  0.25590111442E+03  0.13725899030E+03 -0.87326841254E+03  0.92028426648E+03  0.00000000000E+00 0.  1.
          2    1    6    6  503    0 -0.20787007314E+02 -0.45066003301E+02 -0.62718547202E+02  0.79979125337E+02  0.00000000000E+00 0. -1.
         -2    1    6    6    0  503 -0.43124145553E+03 -0.28174661349E+03 -0.53137295488E+03  0.74007267505E+03  0.00000000000E+00 0.  1.
<mgrwt>
<rscale>  0 0.12750081E+04</rscale>
<asrwt>0</asrwt>
<pdfrwt beam="1">  1        2 0.38876305E+00 0.12750081E+04</pdfrwt>
<pdfrwt beam="2">  1       -1 0.24743106E-01 0.12750081E+04</pdfrwt>
<totfact> 0.53828782E+01</totfact>
</mgrwt>
</event>
<event>
12    6  0.9533401E-008  0.1264020E+04  0.7818608E-02  0.9058595E-01
          2   -1    0    0  501    0  0.00000000000E+00  0.00000000000E+00  0.46895556281E+03  0.46895556281E+03  0.00000000000E+00 0. -1.
         -1   -1    0    0    0  501 -0.00000000000E+00 -0.00000000000E+00 -0.85175790888E+03  0.85175790888E+03  0.00000000000E+00 0.  1.
         24    2    1    2    0    0  0.25246903601E+03 -0.15981001360E+03 -0.42894784540E+02  0.31217714007E+03  0.79591140560E+02 0.  0.
        254    2    1    2    0    0 -0.25246903601E+03  0.15981001360E+03 -0.33990756154E+03  0.10085363316E+04  0.90129269786E+03 0.  0.
         23    2    4    4    0    0  0.69775339808E+02 -0.17424427175E+03 -0.47321245987E+03  0.51693410410E+03  0.89784027086E+02 0.  0.
         23    2    4    4    0    0 -0.32224437582E+03  0.33405428535E+03  0.13330489833E+03  0.49160222752E+03  0.92026359704E+02 0.  0.
          2    1    3    3  502    0  0.23919729883E+03 -0.16486177524E+03 -0.52253761885E+02  0.29516979577E+03  0.00000000000E+00 0. -1.
         -1    1    3    3    0  502  0.13271737176E+02  0.50517616423E+01  0.93589773449E+01  0.17007344305E+02  0.00000000000E+00 0.  1.
         11    1    5    5    0    0  0.10641319374E+02 -0.38488742076E+02 -0.22007086554E+03  0.22366449607E+03  0.00000000000E+00 0. -1.
        -11    1    5    5    0    0  0.59134020434E+02 -0.13575552968E+03 -0.25314159433E+03  0.29326960802E+03  0.00000000000E+00 0.  1.
          1    1    6    6  503    0  0.31367648930E+01  0.78400580648E+01 -0.58807216179E+01  0.10290223088E+02  0.00000000000E+00 0. -1.
         -1    1    6    6    0  503 -0.32538114071E+03  0.32621422729E+03  0.13918561995E+03  0.48131200443E+03  0.00000000000E+00 0.  1.
<mgrwt>
<rscale>  0 0.12640200E+04</rscale>
<asrwt>0</asrwt>
<pdfrwt beam="1">  1        2 0.72147009E-01 0.12640200E+04</pdfrwt>
<pdfrwt beam="2">  1       -1 0.13103968E+00 0.12640200E+04</pdfrwt>
<totfact> 0.37059610E+01</totfact>
</mgrwt>
</event>
<event>
12    6  0.9533401E-008  0.1911655E+04  0.7818608E-02  0.8649076E-01
         -1   -1    0    0    0  501 -0.00000000000E+00  0.00000000000E+00  0.21084479410E+03  0.21084479410E+03  0.00000000000E+00 0.  1.
          2   -1    0    0  501    0  0.00000000000E+00 -0.00000000000E+00 -0.43330761159E+04  0.43330761159E+04  0.00000000000E+00 0. -1.
         24    2    1    2    0    0 -0.38818963043E+03  0.38897802804E+03 -0.42150944379E+03  0.69714225973E+03  0.79636823355E+02 0.  0.
        254    2    1    2    0    0  0.38818963043E+03 -0.38897802804E+03 -0.37007218780E+04  0.38467786502E+04  0.89463314846E+03 0.  0.
         23    2    4    4    0    0  0.45558764526E+03 -0.62903790527E+03 -0.26698494816E+04  0.27821301712E+04  0.94357014592E+02 0.  0.
         23    2    4    4    0    0 -0.67398014834E+02  0.24005987723E+03 -0.10308723964E+04  0.10646484791E+04  0.92775262320E+02 0.  0.
          2    1    3    3  502    0 -0.15757347885E+03  0.18522441128E+03 -0.14311550173E+03  0.28216932967E+03  0.00000000000E+00 0. -1.
         -1    1    3    3    0  502 -0.23061615158E+03  0.20375361676E+03 -0.27839394206E+03  0.41497293006E+03  0.00000000000E+00 0.  1.
         11    1    5    5    0    0  0.45812645654E+03 -0.61594134095E+03 -0.26418472115E+04  0.27511125521E+04  0.00000000000E+00 0. -1.
        -11    1    5    5    0    0 -0.25388112843E+01 -0.13096564312E+02 -0.28002270118E+02  0.31017619046E+02  0.00000000000E+00 0.  1.
          1    1    6    6  503    0 -0.67185426936E+02  0.17483705109E+03 -0.88878187131E+03  0.90830341340E+03  0.00000000000E+00 0. -1.
         -1    1    6    6    0  503 -0.21258789767E+00  0.65222826137E+02 -0.14209052508E+03  0.15634506567E+03  0.00000000000E+00 0.  1.
<mgrwt>
<rscale>  0 0.19116553E+04</rscale>
<asrwt>0</asrwt>
<pdfrwt beam="1">  1        2 0.66662712E+00 0.19116553E+04</pdfrwt>
<pdfrwt beam="2">  1       -1 0.32437660E-01 0.19116553E+04</pdfrwt>
<totfact> 0.17038122E+00</totfact>
</mgrwt>
</event>
<event>
12    6  0.9533401E-008  0.2353088E+04  0.7818608E-02  0.8457279E-01
          2   -1    0    0  501    0  0.00000000000E+00  0.00000000000E+00  0.10612239094E+04  0.10612239094E+04  0.00000000000E+00 0. -1.
         -1   -1    0    0    0  501 -0.00000000000E+00 -0.00000000000E+00 -0.13043952375E+04  0.13043952375E+04  0.00000000000E+00 0.  1.
         24    2    1    2    0    0 -0.34344774067E+03  0.34449006086E+03 -0.98319696490E+03  0.10996036719E+04  0.76303412811E+02 0.  0.
        254    2    1    2    0    0  0.34344774067E+03 -0.34449006086E+03  0.74002563681E+03  0.12660154750E+04  0.90472508928E+03 0.  0.
         23    2    4    4    0    0 -0.25493189868E+03 -0.31814301578E+03  0.25445892813E+03  0.48949922265E+03  0.93031668855E+02 0.  0.
         23    2    4    4    0    0  0.59837963936E+03 -0.26347045077E+02  0.48556670867E+03  0.77651625234E+03  0.91924436324E+02 0.  0.
          2    1    3    3  502    0 -0.53221846486E+02  0.31095174842E+02 -0.84806006766E+02  0.10484051519E+03  0.00000000000E+00 0. -1.
         -1    1    3    3    0  502 -0.29022589419E+03  0.31339488602E+03 -0.89839095814E+03  0.99476315669E+03  0.00000000000E+00 0.  1.
         11    1    5    5    0    0 -0.20531314959E+03 -0.27658655474E+03  0.24801193459E+03  0.42445674851E+03  0.00000000000E+00 0.  1.
        -11    1    5    5    0    0 -0.49618749094E+02 -0.41556461048E+02  0.64469935389E+01  0.65042474139E+02  0.00000000000E+00 0. -1.
          4    1    6    6  503    0  0.27510496929E+03 -0.55632201583E+02  0.24381644782E+03  0.37178508067E+03  0.00000000000E+00 0. -1.
         -4    1    6    6    0  503  0.32327467006E+03  0.29285156506E+02  0.24175026086E+03  0.40473117167E+03  0.00000000000E+00 0.  1.
<mgrwt>
<rscale>  0 0.23530877E+04</rscale>
<asrwt>0</asrwt>
<pdfrwt beam="1">  1        2 0.16326522E+00 0.23530877E+04</pdfrwt>
<pdfrwt beam="2">  1       -1 0.20067619E+00 0.23530877E+04</pdfrwt>
<totfact> 0.35293080E+00</totfact>
</mgrwt>
</event>
<event>
12    6  0.9533401E-008  0.1782353E+04  0.7818608E-02  0.8715740E-01
          2   -1    0    0  501    0  0.00000000000E+00  0.00000000000E+00  0.21592069452E+04  0.21592069452E+04  0.00000000000E+00 0. -1.
         -1   -1    0    0    0  501 -0.00000000000E+00 -0.00000000000E+00 -0.36781828731E+03  0.36781828731E+03  0.00000000000E+00 0.  1.
         24    2    1    2    0    0 -0.56591186097E+03 -0.30800972876E+03  0.84105616943E+03  0.10624726622E+04  0.79664612197E+02 0.  0.
        254    2    1    2    0    0  0.56591186097E+03  0.30800972876E+03  0.95033248844E+03  0.14645525703E+04  0.90920633803E+03 0.  0.
         23    2    4    4    0    0  0.29231740451E+03 -0.98484806879E+02  0.90822446460E+03  0.96371359968E+03  0.93399689133E+02 0.  0.
         23    2    4    4    0    0  0.27359445646E+03  0.40649453563E+03  0.42108023835E+02  0.50083897060E+03  0.94735709699E+02 0.  0.
          4    1    3    3  502    0 -0.50700585435E+03 -0.25278976608E+03  0.76146295327E+03  0.94909611283E+03  0.00000000000E+00 0. -1.
         -3    1    3    3    0  502 -0.58906006620E+02 -0.55219962677E+02  0.79593216160E+02  0.11337654940E+03  0.00000000000E+00 0.  1.
         11    1    5    5    0    0  0.54080428313E+02 -0.58545057927E+02  0.19349648176E+03  0.20926802189E+03  0.00000000000E+00 0.  1.
        -11    1    5    5    0    0  0.23823697620E+03 -0.39939748952E+02  0.71472798284E+03  0.75444557778E+03  0.00000000000E+00 0. -1.
          1    1    6    6  503    0  0.19294262109E+03  0.35079315382E+03  0.44304604639E+02  0.40279720678E+03  0.00000000000E+00 0. -1.
         -1    1    6    6    0  503  0.80651835373E+02  0.55701381816E+02 -0.21965808041E+01  0.98041763818E+02  0.00000000000E+00 0.  1.
<mgrwt>
<rscale>  0 0.17823533E+04</rscale>
<asrwt>0</asrwt>
<pdfrwt beam="1">  1        2 0.33218568E+00 0.17823533E+04</pdfrwt>
<pdfrwt beam="2">  1       -1 0.56587430E-01 0.17823533E+04</pdfrwt>
<totfact> 0.18529233E+01</totfact>
</mgrwt>
</event>
<event>
12    6  0.9533401E-008  0.2800530E+04  0.7818608E-02  0.8303104E-01
          2   -1    0    0  501    0  0.00000000000E+00  0.00000000000E+00  0.18192852523E+04  0.18192852523E+04  0.00000000000E+00 0. -1.
         -1   -1    0    0    0  501 -0.00000000000E+00 -0.00000000000E+00 -0.10777542019E+04  0.10777542019E+04  0.00000000000E+00 0.  1.
         24    2    1    2    0    0  0.89434615938E+03  0.47445865214E+02  0.12414824275E+04  0.15327941533E+04  0.77930325005E+02 0.  0.
        254    2    1    2    0    0 -0.89434615938E+03 -0.47445865214E+02 -0.49995137700E+03  0.13642453009E+04  0.89950414053E+03 0.  0.
         23    2    4    4    0    0  0.11600352725E+03 -0.10456429105E+03  0.74565435226E+02  0.19703401913E+03  0.94190717534E+02 0.  0.
         23    2    4    4    0    0 -0.10103496866E+04  0.57118425835E+02 -0.57451681222E+03  0.11672112818E+04  0.90794300453E+02 0.  0.
          2    1    3    3  502    0  0.84248283013E+03  0.26072114738E+02  0.11654533908E+04  0.14383110513E+04  0.00000000000E+00 0. -1.
         -1    1    3    3    0  502  0.51863329253E+02  0.21373750476E+02  0.76029036743E+02  0.94483101975E+02  0.00000000000E+00 0.  1.
         11    1    5    5    0    0  0.84762892732E+02 -0.72746556341E+02  0.96252045782E+02  0.14744919722E+03  0.00000000000E+00 0.  1.
        -11    1    5    5    0    0  0.31240634515E+02 -0.31817734708E+02 -0.21686610556E+02  0.49584821914E+02  0.00000000000E+00 0. -1.
          2    1    6    6  503    0 -0.97620968188E+03  0.69488978317E+02 -0.54357007409E+03  0.11195009989E+04  0.00000000000E+00 0. -1.
         -2    1    6    6    0  503 -0.34140004757E+02 -0.12370552482E+02 -0.30946738135E+02  0.47710282903E+02  0.00000000000E+00 0.  1.
<mgrwt>
<rscale>  0 0.28005302E+04</rscale>
<asrwt>0</asrwt>
<pdfrwt beam="1">  1        2 0.27989004E+00 0.28005302E+04</pdfrwt>
<pdfrwt beam="2">  1       -1 0.16580834E+00 0.28005302E+04</pdfrwt>
<totfact> 0.22032934E+00</totfact>
</mgrwt>
</event>
<event>
12    6  0.9533401E-008  0.1682880E+04  0.7818608E-02  0.8771189E-01
         -1   -1    0    0    0  501 -0.00000000000E+00  0.00000000000E+00  0.42165244561E+03  0.42165244561E+03  0.00000000000E+00 0.  1.
          2   -1    0    0  501    0  0.00000000000E+00 -0.00000000000E+00 -0.16791583528E+04  0.16791583528E+04  0.00000000000E+00 0. -1.
         24    2    1    2    0    0 -0.35516228335E+03  0.20179182197E+03  0.99998575141E+02  0.42782836653E+03  0.78595224080E+02 0.  0.
        254    2    1    2    0    0  0.35516228335E+03 -0.20179182197E+03 -0.13575044823E+04  0.16729824319E+04  0.88836457094E+03 0.  0.
         23    2    4    4    0    0  0.34959235535E+03 -0.50193463449E+03 -0.64451617847E+03  0.89320368239E+03  0.90876408875E+02 0.  0.
         23    2    4    4    0    0  0.55699280029E+01  0.30014281253E+03 -0.71298830384E+03  0.77977874948E+03  0.97907327186E+02 0.  0.
          2    1    3    3  502    0 -0.33894873069E+02 -0.32884556207E+01  0.15573840197E+02  0.37446239587E+02  0.00000000000E+00 0. -1.
         -1    1    3    3    0  502 -0.32126741028E+03  0.20508027759E+03  0.84424734943E+02  0.39038212694E+03  0.00000000000E+00 0.  1.
         11    1    5    5    0    0  0.20151724128E+03 -0.21611742205E+03 -0.28309636300E+03  0.40921814401E+03  0.00000000000E+00 0.  1.
        -11    1    5    5    0    0  0.14807511407E+03 -0.28581721244E+03 -0.36141981548E+03  0.48398553837E+03  0.00000000000E+00 0. -1.
          1    1    6    6  503    0  0.71441643569E+01  0.36511994885E+02 -0.19546379245E+03  0.19897301077E+03  0.00000000000E+00 0. -1.
         -1    1    6    6    0  503 -0.15742363540E+01  0.26363081764E+03 -0.51752451139E+03  0.58080573871E+03  0.00000000000E+00 0.  1.
<mgrwt>
<rscale>  0 0.16828799E+04</rscale>
<asrwt>0</asrwt>
<pdfrwt beam="1">  1        2 0.25833205E+00 0.16828799E+04</pdfrwt>
<pdfrwt beam="2">  1       -1 0.64869608E-01 0.16828799E+04</pdfrwt>
<totfact> 0.26342177E+01</totfact>
</mgrwt>
</event>
<event>
12    6  0.9533401E-008  0.1447941E+04  0.7818608E-02  0.8919829E-01
         -1   -1    0    0    0  501 -0.00000000000E+00  0.00000000000E+00  0.11569590107E+04  0.11569590107E+04  0.00000000000E+00 0.  1.
          2   -1    0    0  501    0  0.00000000000E+00 -0.00000000000E+00 -0.45302697766E+03  0.45302697766E+03  0.00000000000E+00 0. -1.
         24    2    1    2    0    0  0.22434114188E+03  0.26372355064E+03 -0.85587287092E+02  0.36522341213E+03  0.78637764188E+02 0.  0.
        254    2    1    2    0    0 -0.22434114188E+03 -0.26372355064E+03  0.78951932014E+03  0.12447625762E+04  0.89789423387E+03 0.  0.
         23    2    4    4    0    0 -0.13983717284E+03 -0.18591531147E+03  0.97597024282E+03  0.10073529838E+04  0.90128692486E+02 0.  0.
         23    2    4    4    0    0 -0.84503969035E+02 -0.77808239172E+02 -0.18645092269E+03  0.23740959240E+03  0.91675106358E+02 0.  0.
          4    1    3    3  502    0  0.15379132357E+03  0.12119391682E+03 -0.40923614011E+02  0.20003619388E+03  0.00000000000E+00 0. -1.
         -3    1    3    3    0  502  0.70549818310E+02  0.14252963382E+03 -0.44663673081E+02  0.16518721825E+03  0.00000000000E+00 0.  1.
         11    1    5    5    0    0 -0.12866332673E+03 -0.14247316044E+03  0.88906170369E+03  0.90955129930E+03  0.00000000000E+00 0.  1.
        -11    1    5    5    0    0 -0.11173846110E+02 -0.43442151024E+02  0.86908539135E+02  0.97801684531E+02  0.00000000000E+00 0. -1.
          1    1    6    6  503    0 -0.78662326711E+01  0.11778516038E+02 -0.71004961627E+02  0.72403837137E+02  0.00000000000E+00 0. -1.
         -1    1    6    6    0  503 -0.76637736364E+02 -0.89586755210E+02 -0.11544596106E+03  0.16500575526E+03  0.00000000000E+00 0.  1.
<mgrwt>
<rscale>  0 0.14479415E+04</rscale>
<asrwt>0</asrwt>
<pdfrwt beam="1">  1        2 0.69696459E-01 0.14479415E+04</pdfrwt>
<pdfrwt beam="2">  1       -1 0.17799369E+00 0.14479415E+04</pdfrwt>
<totfact> 0.16470348E+01</totfact>
</mgrwt>
</event>
<event>
12    6  0.9533401E-008  0.1385334E+04  0.7818608E-02  0.8964503E-01
         -1   -1    0    0    0  501 -0.00000000000E+00  0.00000000000E+00  0.98601263355E+03  0.98601263355E+03  0.00000000000E+00 0.  1.
          2   -1    0    0  501    0  0.00000000000E+00 -0.00000000000E+00 -0.48659373830E+03  0.48659373830E+03  0.00000000000E+00 0. -1.
         24    2    1    2    0    0 -0.11761816648E+03  0.36531032693E+03  0.41107591357E+02  0.39358536472E+03  0.77032053129E+02 0.  0.
        254    2    1    2    0    0  0.11761816648E+03 -0.36531032693E+03  0.45831130389E+03  0.10790210071E+04  0.89830474479E+03 0.  0.
         23    2    4    4    0    0  0.21704818083E+02 -0.14511627742E+02 -0.25497341735E+03  0.27322263212E+03  0.94643946891E+02 0.  0.
         23    2    4    4    0    0  0.95913348402E+02 -0.35079869919E+03  0.71328472124E+03  0.80579837501E+03  0.90977084231E+02 0.  0.
          2    1    3    3  502    0 -0.78703535007E+02  0.32706546782E+03  0.42018799670E+02  0.33901570198E+03  0.00000000000E+00 0. -1.
         -1    1    3    3    0  502 -0.38914631478E+02  0.38244859105E+02 -0.91120831238E+00  0.54569662741E+02  0.00000000000E+00 0.  1.
         11    1    5    5    0    0 -0.22125834583E+02  0.23611514470E+02 -0.45427282689E+02  0.55773597554E+02  0.00000000000E+00 0.  1.
        -11    1    5    5    0    0  0.43830652666E+02 -0.38123142212E+02 -0.20954613466E+03  0.21744903457E+03  0.00000000000E+00 0. -1.
          1    1    6    6  503    0  0.64147896916E+02 -0.29552691367E+03  0.51177239026E+03  0.59444267076E+03  0.00000000000E+00 0. -1.
         -1    1    6    6    0  503  0.31765451486E+02 -0.55271785514E+02  0.20151233097E+03  0.21135570424E+03  0.00000000000E+00 0.  1.
<mgrwt>
<rscale>  0 0.13853340E+04</rscale>
<asrwt>0</asrwt>
<pdfrwt beam="1">  1        2 0.74860575E-01 0.13853340E+04</pdfrwt>
<pdfrwt beam="2">  1       -1 0.15169425E+00 0.13853340E+04</pdfrwt>
<totfact> 0.23968530E+01</totfact>
</mgrwt>
</event>
<event>
12    6  0.9533401E-008  0.1549848E+04  0.7818608E-02  0.8851965E-01
          2   -1    0    0  501    0  0.00000000000E+00  0.00000000000E+00  0.33049317063E+04  0.33049317063E+04  0.00000000000E+00 0. -1.
         -1   -1    0    0    0  501 -0.00000000000E+00 -0.00000000000E+00 -0.18170044872E+03  0.18170044872E+03  0.00000000000E+00 0.  1.
         24    2    1    2    0    0 -0.45363732394E+03  0.17464892977E+03  0.81640410434E+03  0.95516886343E+03  0.97687387840E+02 0.  0.
        254    2    1    2    0    0  0.45363732394E+03 -0.17464892977E+03  0.23068271532E+04  0.25314632916E+04  0.92226124900E+03 0.  0.
         23    2    4    4    0    0  0.41384090481E+03 -0.31896751475E+03  0.54398919691E+03  0.75973479849E+03  0.90929355667E+02 0.  0.
         23    2    4    4    0    0  0.39796419129E+02  0.14431858498E+03  0.17628379563E+04  0.17717284931E+04  0.94934630340E+02 0.  0.
          4    1    3    3  502    0 -0.22115243374E+02 -0.90981353830E+01  0.66557733618E+02  0.70723348063E+02  0.00000000000E+00 0. -1.
         -3    1    3    3    0  502 -0.43152208057E+03  0.18374706515E+03  0.74984637072E+03  0.88444551536E+03  0.00000000000E+00 0.  1.
         11    1    5    5    0    0  0.28630747276E+02 -0.29887208908E+02  0.14209293072E+02  0.43759215663E+02  0.00000000000E+00 0. -1.
        -11    1    5    5    0    0  0.38521015754E+03 -0.28908030584E+03  0.52977990384E+03  0.71597558283E+03  0.00000000000E+00 0.  1.
          1    1    6    6  503    0  0.43178029647E+02  0.15745361071E+03  0.16572935823E+04  0.16653161861E+04  0.00000000000E+00 0. -1.
         -1    1    6    6    0  503 -0.33816105176E+01 -0.13135025729E+02  0.10554437397E+03  0.10641230694E+03  0.00000000000E+00 0.  1.
<mgrwt>
<rscale>  0 0.15498485E+04</rscale>
<asrwt>0</asrwt>
<pdfrwt beam="1">  1        2 0.50845099E+00 0.15498485E+04</pdfrwt>
<pdfrwt beam="2">  1       -1 0.27953918E-01 0.15498485E+04</pdfrwt>
<totfact> 0.14133947E+01</totfact>
</mgrwt>
</event>
<event>
12    6  0.9533401E-008  0.1503906E+04  0.7818608E-02  0.8881860E-01
         -1   -1    0    0    0  501 -0.00000000000E+00  0.00000000000E+00  0.28199418400E+03  0.28199418400E+03  0.00000000000E+00 0.  1.
          2   -1    0    0  501    0  0.00000000000E+00 -0.00000000000E+00 -0.20051242145E+04  0.20051242145E+04  0.00000000000E+00 0. -1.
         24    2    1    2    0    0 -0.23460070967E+03  0.11339066551E+03  0.54739515440E+02  0.27625633435E+03  0.73662824510E+02 0.  0.
        254    2    1    2    0    0  0.23460070967E+03 -0.11339066551E+03 -0.17778695460E+04  0.20108620642E+04  0.90269107819E+03 0.  0.
         23    2    4    4    0    0  0.12298486653E+03 -0.24540000308E+03 -0.17875054841E+04  0.18109987626E+04  0.95886513321E+02 0.  0.
         23    2    4    4    0    0  0.11161584314E+03  0.13200933758E+03  0.96359381349E+01  0.19986330160E+03  0.99839503080E+02 0.  0.
          4    1    3    3  502    0 -0.57885978924E+02  0.42894927221E+02 -0.15051940155E+02  0.73602460827E+02  0.00000000000E+00 0. -1.
         -3    1    3    3    0  502 -0.17671473075E+03  0.70495738285E+02  0.69791455595E+02  0.20265387352E+03  0.00000000000E+00 0.  1.
         11    1    5    5    0    0  0.91622500115E+02 -0.14085866519E+03 -0.13341432872E+04  0.13446836642E+04  0.00000000000E+00 0.  1.
        -11    1    5    5    0    0  0.31362366418E+02 -0.10454133790E+03 -0.45336219692E+03  0.46631509836E+03  0.00000000000E+00 0. -1.
          2    1    6    6  503    0  0.88224759721E+02  0.12488449457E+03 -0.27541853411E+02  0.15536505045E+03  0.00000000000E+00 0. -1.
         -2    1    6    6    0  503  0.23391083416E+02  0.71248430107E+01  0.37177791546E+02  0.44498251152E+02  0.00000000000E+00 0.  1.
<mgrwt>
<rscale>  0 0.15039061E+04</rscale>
<asrwt>0</asrwt>
<pdfrwt beam="1">  1        2 0.30848064E+00 0.15039061E+04</pdfrwt>
<pdfrwt beam="2">  1       -1 0.43383722E-01 0.15039061E+04</pdfrwt>
<totfact> 0.38304261E+01</totfact>
</mgrwt>
</event>
<event>
12    6  0.9533401E-008  0.2208885E+04  0.7818608E-02  0.8514739E-01
          2   -1    0    0  501    0  0.00000000000E+00  0.00000000000E+00  0.10596962540E+04  0.10596962540E+04  0.00000000000E+00 0. -1.
         -1   -1    0    0    0  501 -0.00000000000E+00 -0.00000000000E+00 -0.11510786159E+04  0.11510786159E+04  0.00000000000E+00 0.  1.
         24    2    1    2    0    0 -0.55583651186E+03  0.52684507939E+03 -0.54746838670E+03  0.94472589669E+03  0.79154405203E+02 0.  0.
        254    2    1    2    0    0  0.55583651186E+03 -0.52684507939E+03  0.45608602480E+03  0.12660489732E+04  0.89908040510E+03 0.  0.
         23    2    4    4    0    0  0.42028626743E+03 -0.77329633775E+03  0.32771495005E+03  0.94373123110E+03  0.92756538890E+02 0.  0.
         23    2    4    4    0    0  0.13555024443E+03  0.24645125836E+03  0.12837107475E+03  0.32231774206E+03  0.91090627952E+02 0.  0.
          4    1    3    3  502    0 -0.47296471440E+03  0.41874015846E+03 -0.42328782371E+03  0.76040221138E+03  0.00000000000E+00 0. -1.
         -3    1    3    3    0  502 -0.82871797454E+02  0.10810492093E+03 -0.12418056299E+03  0.18432368531E+03  0.00000000000E+00 0.  1.
         11    1    5    5    0    0  0.16556632317E+03 -0.35339623041E+03  0.10286415080E+03  0.40358659115E+03  0.00000000000E+00 0. -1.
        -11    1    5    5    0    0  0.25471994426E+03 -0.41990010734E+03  0.22485079925E+03  0.54014463995E+03  0.00000000000E+00 0.  1.
          2    1    6    6  503    0  0.13693657009E+03  0.21668473461E+03  0.13785491171E+03  0.29104617352E+03  0.00000000000E+00 0. -1.
         -2    1    6    6    0  503 -0.13863256633E+01  0.29766523752E+02 -0.94838369582E+01  0.31271568534E+02  0.00000000000E+00 0.  1.
<mgrwt>
<rscale>  0 0.22088854E+04</rscale>
<asrwt>0</asrwt>
<pdfrwt beam="1">  1        2 0.16303019E+00 0.22088854E+04</pdfrwt>
<pdfrwt beam="2">  1       -1 0.17708902E+00 0.22088854E+04</pdfrwt>
<totfact> 0.52511376E+00</totfact>
</mgrwt>
</event>
<event>
12    6  0.9533401E-008  0.2069516E+04  0.7818608E-02  0.8574792E-01
          2   -1    0    0  501    0  0.00000000000E+00  0.00000000000E+00  0.15462610351E+04  0.15462610351E+04  0.00000000000E+00 0. -1.
         -1   -1    0    0    0  501 -0.00000000000E+00 -0.00000000000E+00 -0.69246041518E+03  0.69246041518E+03  0.00000000000E+00 0.  1.
         24    2    1    2    0    0 -0.23931840150E+03  0.49389485487E+02 -0.50916535392E+03  0.57044932763E+03  0.80314750757E+02 0.  0.
        254    2    1    2    0    0  0.23931840150E+03 -0.49389485487E+02  0.13629659739E+04  0.16682721227E+04  0.93045312122E+03 0.  0.
         23    2    4    4    0    0  0.37005186381E+03 -0.32524345938E+03  0.12226375001E+04  0.13213692107E+04  0.91937178090E+02 0.  0.
         23    2    4    4    0    0 -0.13073346231E+03  0.27585397389E+03  0.14032847379E+03  0.34690291194E+03  0.86388058643E+02 0.  0.
          4    1    3    3  502    0 -0.42013722064E+02  0.42549019276E+02 -0.11729860021E+03  0.13166067558E+03  0.00000000000E+00 0. -1.
         -3    1    3    3    0  502 -0.19730467943E+03  0.68404662104E+01 -0.39186675371E+03  0.43878865205E+03  0.00000000000E+00 0.  1.
         11    1    5    5    0    0 -0.19909514668E+01 -0.23414146374E+01 -0.15124436629E+00  0.30771716082E+01  0.00000000000E+00 0. -1.
        -11    1    5    5    0    0  0.37204281527E+03 -0.32290204474E+03  0.12227887444E+04  0.13182920391E+04  0.00000000000E+00 0.  1.
          1    1    6    6  503    0 -0.31404101276E+02  0.11326261168E+02  0.55473083749E+01  0.33841903008E+02  0.00000000000E+00 0. -1.
         -1    1    6    6    0  503 -0.99329361035E+02  0.26452771272E+03  0.13478116542E+03  0.31306100893E+03  0.00000000000E+00 0.  1.
<mgrwt>
<rscale>  0 0.20695164E+04</rscale>
<asrwt>0</asrwt>
<pdfrwt beam="1">  1        2 0.23788631E+00 0.20695164E+04</pdfrwt>
<pdfrwt beam="2">  1       -1 0.10653237E+00 0.20695164E+04</pdfrwt>
<totfact> 0.10354148E+01</totfact>
</mgrwt>
</event>
<event>
12    6  0.9533401E-008  0.2030116E+04  0.7818608E-02  0.8592668E-01
          2   -1    0    0  501    0  0.00000000000E+00  0.00000000000E+00  0.13152453873E+04  0.13152453873E+04  0.00000000000E+00 0. -1.
         -1   -1    0    0    0  501 -0.00000000000E+00 -0.00000000000E+00 -0.78338440856E+03  0.78338440856E+03  0.00000000000E+00 0.  1.
         24    2    1    2    0    0  0.86652886534E+02 -0.73945390081E+03 -0.13188548140E+03  0.76043481442E+03  0.81034144679E+02 0.  0.
        254    2    1    2    0    0 -0.86652886534E+02  0.73945390081E+03  0.66374646011E+03  0.13381949814E+04  0.89213544420E+03 0.  0.
         23    2    4    4    0    0  0.35737236058E+03  0.53710202674E+03  0.47849157407E+03  0.80854738267E+03  0.92742074237E+02 0.  0.
         23    2    4    4    0    0 -0.44402524711E+03  0.20235187408E+03  0.18525488603E+03  0.52964759874E+03  0.90013915815E+02 0.  0.
          4    1    3    3  502    0  0.86294335251E+02 -0.72789887443E+03 -0.11810966719E+03  0.74245092577E+03  0.00000000000E+00 0. -1.
         -3    1    3    3    0  502  0.35855128273E+00 -0.11555026381E+02 -0.13775814212E+02  0.17983888648E+02  0.00000000000E+00 0.  1.
         11    1    5    5    0    0  0.12958688985E+03  0.23977945668E+03  0.24972395825E+03  0.36966066222E+03  0.00000000000E+00 0. -1.
        -11    1    5    5    0    0  0.22778547073E+03  0.29732257006E+03  0.22876761582E+03  0.43888672046E+03  0.00000000000E+00 0.  1.
          3    1    6    6  503    0 -0.25380846982E+03  0.84157481767E+02  0.63870798312E+02  0.27491944269E+03  0.00000000000E+00 0. -1.
         -3    1    6    6    0  503 -0.19021677729E+03  0.11819439231E+03  0.12138408772E+03  0.25472815606E+03  0.00000000000E+00 0.  1.
<mgrwt>
<rscale>  0 0.20301160E+04</rscale>
<asrwt>0</asrwt>
<pdfrwt beam="1">  1        2 0.20234544E+00 0.20301160E+04</pdfrwt>
<pdfrwt beam="2">  1       -1 0.12052068E+00 0.20301160E+04</pdfrwt>
<totfact> 0.10481092E+01</totfact>
</mgrwt>
</event>
<event>
12    6  0.9533401E-008  0.1884988E+04  0.7818608E-02  0.8662365E-01
         -1   -1    0    0    0  501 -0.00000000000E+00  0.00000000000E+00  0.44647837179E+03  0.44647837179E+03  0.00000000000E+00 0.  1.
          2   -1    0    0  501    0  0.00000000000E+00 -0.00000000000E+00 -0.19895585740E+04  0.19895585740E+04  0.00000000000E+00 0. -1.
         24    2    1    2    0    0  0.33452425132E+03 -0.37998478458E+03  0.89277295844E+02  0.52051289250E+03  0.81659809393E+02 0.  0.
        254    2    1    2    0    0 -0.33452425132E+03  0.37998478458E+03 -0.16323574981E+04  0.19155240533E+04  0.86507022031E+03 0.  0.
         23    2    4    4    0    0 -0.60395602473E+03  0.15123729582E+03 -0.90804373066E+03  0.11047942243E+04  0.91603830179E+02 0.  0.
         23    2    4    4    0    0  0.26943177341E+03  0.22874748877E+03 -0.72431376743E+03  0.81072982907E+03  0.87940479450E+02 0.  0.
          2    1    3    3  502    0  0.19076013802E+03 -0.27165163503E+03  0.43553047957E+02  0.33478486982E+03  0.00000000000E+00 0. -1.
         -1    1    3    3    0  502  0.14376411330E+03 -0.10833314955E+03  0.45724247887E+02  0.18572802268E+03  0.00000000000E+00 0.  1.
         11    1    5    5    0    0 -0.19016600194E+03  0.87151634341E+02 -0.33788442659E+03  0.39739703244E+03  0.00000000000E+00 0. -1.
        -11    1    5    5    0    0 -0.41379002279E+03  0.64085661475E+02 -0.57015930407E+03  0.70739719181E+03  0.00000000000E+00 0.  1.
          3    1    6    6  503    0  0.21523521547E+01  0.25847917430E+02 -0.82547275536E+02  0.86526297469E+02  0.00000000000E+00 0. -1.
         -3    1    6    6    0  503  0.26727942125E+03  0.20289957134E+03 -0.64176649189E+03  0.72420353160E+03  0.00000000000E+00 0.  1.
<mgrwt>
<rscale>  0 0.18849879E+04</rscale>
<asrwt>0</asrwt>
<pdfrwt beam="1">  1        2 0.30608594E+00 0.18849879E+04</pdfrwt>
<pdfrwt beam="2">  1       -1 0.68688980E-01 0.18849879E+04</pdfrwt>
<totfact> 0.15507196E+01</totfact>
</mgrwt>
</event>
<event>
12    6  0.9533401E-008  0.1398740E+04  0.7818608E-02  0.8954731E-01
          4   -1    0    0  501    0  0.00000000000E+00  0.00000000000E+00  0.31259703029E+03  0.31259703029E+03  0.00000000000E+00 0. -1.
         -3   -1    0    0    0  501 -0.00000000000E+00 -0.00000000000E+00 -0.15646933839E+04  0.15646933839E+04  0.00000000000E+00 0.  1.
         24    2    1    2    0    0  0.99380471349E+02 -0.32903459002E+02 -0.89020645123E+03  0.89982154450E+03  0.79070667350E+02 0.  0.
        254    2    1    2    0    0 -0.99380471349E+02  0.32903459002E+02 -0.36188990240E+03  0.97746886971E+03  0.90195452994E+03 0.  0.
         23    2    4    4    0    0  0.18752027834E+03 -0.14141405112E+03  0.19606498479E+03  0.31991016930E+03  0.93483953265E+02 0.  0.
         23    2    4    4    0    0 -0.28690074969E+03  0.17431751012E+03 -0.55795488718E+03  0.65755870041E+03  0.91494009845E+02 0.  0.
          4    1    3    3  502    0  0.51340447641E+02 -0.85063758672E+01 -0.17462272231E+03  0.18221222556E+03  0.00000000000E+00 0. -1.
         -3    1    3    3    0  502  0.48040023707E+02 -0.24397083135E+02 -0.71558372892E+03  0.71760931894E+03  0.00000000000E+00 0.  1.
         11    1    5    5    0    0 -0.55766631394E+01 -0.28267936249E+02  0.26188124119E+02  0.38935757812E+02  0.00000000000E+00 0.  1.
        -11    1    5    5    0    0  0.19309694148E+03 -0.11314611487E+03  0.16987686067E+03  0.28097441149E+03  0.00000000000E+00 0. -1.
          3    1    6    6  503    0 -0.26095213514E+03  0.12054064053E+03 -0.44437833776E+03  0.52924301594E+03  0.00000000000E+00 0. -1.
         -3    1    6    6    0  503 -0.25948614553E+02  0.53776869591E+02 -0.11357654942E+03  0.12831568446E+03  0.00000000000E+00 0.  1.
<mgrwt>
<rscale>  0 0.13987402E+04</rscale>
<asrwt>0</asrwt>
<pdfrwt beam="1">  1        4 0.48091851E-01 0.13987402E+04</pdfrwt>
<pdfrwt beam="2">  1       -3 0.24072206E+00 0.13987402E+04</pdfrwt>
<totfact> 0.77449607E-01</totfact>
</mgrwt>
</event>
<event>
12    6  0.9533401E-008  0.3120699E+04  0.7818608E-02  0.8210080E-01
          2   -1    0    0  501    0  0.00000000000E+00  0.00000000000E+00  0.27184778174E+04  0.27184778174E+04  0.00000000000E+00 0. -1.
         -1   -1    0    0    0  501 -0.00000000000E+00 -0.00000000000E+00 -0.89560781685E+03  0.89560781685E+03  0.00000000000E+00 0.  1.
         24    2    1    2    0    0 -0.10832824122E+03 -0.89603732732E+03 -0.45141076262E+03  0.10122112121E+04  0.78625450164E+02 0.  0.
        254    2    1    2    0    0  0.10832824122E+03  0.89603732732E+03  0.22742807631E+04  0.26018744222E+04  0.88474833671E+03 0.  0.
         23    2    4    4    0    0  0.18940045699E+02  0.74483392298E+03  0.22839993460E+04  0.24043120117E+04  0.94482479376E+02 0.  0.
         23    2    4    4    0    0  0.89388195525E+02  0.15120340434E+03 -0.97185828812E+01  0.19756241045E+03  0.89909600063E+02 0.  0.
          2    1    3    3  502    0 -0.42536355917E+02 -0.46623320017E+03 -0.19286378312E+03  0.50633899450E+03  0.00000000000E+00 0. -1.
         -1    1    3    3    0  502 -0.65791885307E+02 -0.42980412715E+03 -0.25854697950E+03  0.50587221756E+03  0.00000000000E+00 0.  1.
         11    1    5    5    0    0 -0.42295802596E+01  0.23013808454E+03  0.84797691502E+03  0.87866163892E+03  0.00000000000E+00 0. -1.
        -11    1    5    5    0    0  0.23169625959E+02  0.51469583843E+03  0.14360224310E+04  0.15256503728E+04  0.00000000000E+00 0.  1.
          2    1    6    6  503    0  0.76965311279E+02  0.15562721818E+03 -0.27124841634E+02  0.17572491916E+03  0.00000000000E+00 0. -1.
         -2    1    6    6    0  503  0.12422884246E+02 -0.44238138405E+01  0.17406258753E+02  0.21837491286E+02  0.00000000000E+00 0.  1.
<mgrwt>
<rscale>  0 0.31206986E+04</rscale>
<asrwt>0</asrwt>
<pdfrwt beam="1">  1        2 0.41822735E+00 0.31206986E+04</pdfrwt>
<pdfrwt beam="2">  1       -1 0.13778582E+00 0.31206986E+04</pdfrwt>
<totfact> 0.10890379E+00</totfact>
</mgrwt>
</event>
<event>
12    6  0.9533401E-008  0.2155628E+04  0.7818608E-02  0.8537127E-01
         -1   -1    0    0    0  501 -0.00000000000E+00  0.00000000000E+00  0.98075273491E+03  0.98075273491E+03  0.00000000000E+00 0.  1.
          2   -1    0    0  501    0  0.00000000000E+00 -0.00000000000E+00 -0.11844806145E+04  0.11844806145E+04  0.00000000000E+00 0. -1.
         24    2    1    2    0    0 -0.72597512656E+03 -0.50821221853E+03 -0.39447043094E+02  0.89044272330E+03  0.77541155651E+02 0.  0.
        254    2    1    2    0    0  0.72597512656E+03  0.50821221853E+03 -0.16428083645E+03  0.12747906261E+04  0.90154500922E+03 0.  0.
         23    2    4    4    0    0  0.89501682605E+03  0.31972569550E+03  0.42358420367E+01  0.95413256262E+03  0.84091411136E+02 0.  0.
         23    2    4    4    0    0 -0.16904169949E+03  0.18848652303E+03 -0.16851667848E+03  0.32065806345E+03  0.10159457267E+03 0.  0.
          4    1    3    3  502    0 -0.97042237830E+02 -0.57405351578E+02  0.19361302103E+02  0.11440030740E+03  0.00000000000E+00 0. -1.
         -3    1    3    3    0  502 -0.62893288873E+03 -0.45080686695E+03 -0.58808345197E+02  0.77604241590E+03  0.00000000000E+00 0.  1.
         11    1    5    5    0    0  0.50233936427E+03  0.20496070961E+03 -0.31587411992E+02  0.54346250466E+03  0.00000000000E+00 0. -1.
        -11    1    5    5    0    0  0.39267746178E+03  0.11476498589E+03  0.35823254029E+02  0.41067005796E+03  0.00000000000E+00 0.  1.
          1    1    6    6  503    0  0.12536077059E+02  0.13757816510E+02 -0.23284290085E+02  0.29809208442E+02  0.00000000000E+00 0. -1.
         -1    1    6    6    0  503 -0.18157777655E+03  0.17472870652E+03 -0.14523238840E+03  0.29084885501E+03  0.00000000000E+00 0.  1.
<mgrwt>
<rscale>  0 0.21556276E+04</rscale>
<asrwt>0</asrwt>
<pdfrwt beam="1">  1        2 0.18222779E+00 0.21556276E+04</pdfrwt>
<pdfrwt beam="2">  1       -1 0.15088504E+00 0.21556276E+04</pdfrwt>
<totfact> 0.69503461E+00</totfact>
</mgrwt>
</event>
<event>
12    6  0.9533401E-008  0.1831066E+04  0.7818608E-02  0.8689951E-01
          2   -1    0    0  501    0  0.00000000000E+00  0.00000000000E+00  0.31094115693E+04  0.31094115693E+04  0.00000000000E+00 0. -1.
         -1   -1    0    0    0  501 -0.00000000000E+00 -0.00000000000E+00 -0.26956892982E+03  0.26956892982E+03  0.00000000000E+00 0.  1.
         24    2    1    2    0    0 -0.25145804366E+03  0.44956196691E+03  0.19307166768E+04  0.19998193854E+04  0.79205923969E+02 0.  0.
        254    2    1    2    0    0  0.25145804366E+03 -0.44956196691E+03  0.90912596266E+03  0.13791611137E+04  0.90013235233E+03 0.  0.
         23    2    4    4    0    0  0.25115627269E+02 -0.68499289373E+03  0.53705113411E+03  0.87582859000E+03  0.93838900413E+02 0.  0.
         23    2    4    4    0    0  0.22634241640E+03  0.23543092682E+03  0.37207482855E+03  0.50333252368E+03  0.90803857790E+02 0.  0.
          4    1    3    3  502    0 -0.12850464409E+03  0.22004763773E+03  0.80432585486E+03  0.84372654765E+03  0.00000000000E+00 0. -1.
         -3    1    3    3    0  502 -0.12295339957E+03  0.22951432917E+03  0.11263908219E+04  0.11560928377E+04  0.00000000000E+00 0.  1.
         11    1    5    5    0    0 -0.68526906162E+01 -0.27285252415E+03  0.26855847024E+03  0.38290875054E+03  0.00000000000E+00 0. -1.
        -11    1    5    5    0    0  0.31968317885E+02 -0.41214036958E+03  0.26849266387E+03  0.49291983946E+03  0.00000000000E+00 0.  1.
          3    1    6    6  503    0  0.20728470095E+03  0.20049564381E+03  0.27528897011E+03  0.39868467176E+03  0.00000000000E+00 0. -1.
         -3    1    6    6    0  503  0.19057715450E+02  0.34935283015E+02  0.96785858443E+02  0.10464785192E+03  0.00000000000E+00 0.  1.
<mgrwt>
<rscale>  0 0.18310661E+04</rscale>
<asrwt>0</asrwt>
<pdfrwt beam="1">  1        2 0.47837099E+00 0.18310661E+04</pdfrwt>
<pdfrwt beam="2">  1       -1 0.41472145E-01 0.18310661E+04</pdfrwt>
<totfact> 0.91076542E+00</totfact>
</mgrwt>
</event>
<event>
12    6  0.9533401E-008  0.2161219E+04  0.7818608E-02  0.8534745E-01
         -1   -1    0    0    0  501 -0.00000000000E+00  0.00000000000E+00  0.36233565684E+03  0.36233565684E+03  0.00000000000E+00 0.  1.
          2   -1    0    0  501    0  0.00000000000E+00 -0.00000000000E+00 -0.32227478471E+04  0.32227478471E+04  0.00000000000E+00 0. -1.
         24    2    1    2    0    0 -0.79223670103E+03 -0.19392428276E+03 -0.17740452534E+04  0.19541907925E+04  0.79871612981E+02 0.  0.
        254    2    1    2    0    0  0.79223670103E+03  0.19392428276E+03 -0.10863669369E+04  0.16308927114E+04  0.90242578462E+03 0.  0.
         23    2    4    4    0    0  0.84974266833E+03 -0.10681094379E+03 -0.60251876746E+03  0.10510998286E+04  0.91163613631E+02 0.  0.
         23    2    4    4    0    0 -0.57505967301E+02  0.30073522655E+03 -0.48384816940E+03  0.57979288281E+03  0.91115987428E+02 0.  0.
          4    1    3    3  502    0 -0.33738403481E+03 -0.94703504314E+02 -0.67294805239E+03  0.75871985732E+03  0.00000000000E+00 0. -1.
         -3    1    3    3    0  502 -0.45485266622E+03 -0.99220778443E+02 -0.11010972010E+04  0.11954709352E+04  0.00000000000E+00 0.  1.
         11    1    5    5    0    0  0.61260492048E+03 -0.54048180126E+02 -0.38914814159E+03  0.72776525781E+03  0.00000000000E+00 0. -1.
        -11    1    5    5    0    0  0.23713774785E+03 -0.52762763668E+02 -0.21337062587E+03  0.32333457079E+03  0.00000000000E+00 0.  1.
          3    1    6    6  503    0 -0.55337439764E+02  0.11573153057E+03 -0.25552450926E+03  0.28591746054E+03  0.00000000000E+00 0. -1.
         -3    1    6    6    0  503 -0.21685275369E+01  0.18500369598E+03 -0.22832366014E+03  0.29387542228E+03  0.00000000000E+00 0.  1.
<mgrwt>
<rscale>  0 0.21612186E+04</rscale>
<asrwt>0</asrwt>
<pdfrwt beam="1">  1        2 0.49580737E+00 0.21612186E+04</pdfrwt>
<pdfrwt beam="2">  1       -1 0.55743947E-01 0.21612186E+04</pdfrwt>
<totfact> 0.42657064E+00</totfact>
</mgrwt>
</event>
<event>
12    6  0.9533401E-008  0.2214338E+04  0.7818608E-02  0.8512484E-01
         -1   -1    0    0    0  501 -0.00000000000E+00  0.00000000000E+00  0.17156076677E+04  0.17156076677E+04  0.00000000000E+00 0.  1.
          2   -1    0    0  501    0  0.00000000000E+00 -0.00000000000E+00 -0.71451248616E+03  0.71451248616E+03  0.00000000000E+00 0. -1.
         24    2    1    2    0    0 -0.89771198881E+03 -0.21468762129E+03  0.31330790512E+03  0.97648089869E+03  0.58099160902E+02 0.  0.
        254    2    1    2    0    0  0.89771198881E+03  0.21468762129E+03  0.68778727646E+03  0.14536392552E+04  0.88771513281E+03 0.  0.
         23    2    4    4    0    0  0.48972831441E+03  0.40832581007E+03  0.75037491250E+03  0.98888640597E+03  0.90939680482E+02 0.  0.
         23    2    4    4    0    0  0.40798367440E+03 -0.19363818878E+03 -0.62587636047E+02  0.46475284924E+03  0.90175229158E+02 0.  0.
          4    1    3    3  502    0 -0.12034912629E+03 -0.35969769228E+02  0.62750905156E+02  0.14041158284E+03  0.00000000000E+00 0. -1.
         -3    1    3    3    0  502 -0.77736286252E+03 -0.17871785206E+03  0.25055699997E+03  0.83606931585E+03  0.00000000000E+00 0.  1.
         11    1    5    5    0    0  0.62580584043E+02  0.17573485391E+02  0.82533901603E+02  0.10505713589E+03  0.00000000000E+00 0. -1.
        -11    1    5    5    0    0  0.42714773037E+03  0.39075232468E+03  0.66784101090E+03  0.88382927008E+03  0.00000000000E+00 0.  1.
          1    1    6    6  503    0  0.23167368000E+02 -0.13784957200E+02 -0.27539438326E+02  0.38537937781E+02  0.00000000000E+00 0. -1.
         -1    1    6    6    0  503  0.38481630640E+03 -0.17985323158E+03 -0.35048197721E+02  0.42621491146E+03  0.00000000000E+00 0.  1.
<mgrwt>
<rscale>  0 0.22143379E+04</rscale>
<asrwt>0</asrwt>
<pdfrwt beam="1">  1        2 0.10992500E+00 0.22143379E+04</pdfrwt>
<pdfrwt beam="2">  1       -1 0.26393964E+00 0.22143379E+04</pdfrwt>
<totfact> 0.23525730E+00</totfact>
</mgrwt>
</event>
<event>
12    6  0.9533401E-008  0.1508451E+04  0.7818608E-02  0.8878852E-01
         -1   -1    0    0    0  501 -0.00000000000E+00  0.00000000000E+00  0.41010935226E+03  0.41010935226E+03  0.00000000000E+00 0.  1.
          2   -1    0    0  501    0  0.00000000000E+00 -0.00000000000E+00 -0.13870845307E+04  0.13870845307E+04  0.00000000000E+00 0. -1.
         24    2    1    2    0    0  0.42589904860E+03 -0.69379328519E+02 -0.56931359772E+03  0.71903617042E+03  0.81801900903E+02 0.  0.
        254    2    1    2    0    0 -0.42589904860E+03  0.69379328519E+02 -0.40766158074E+03  0.10781577126E+04  0.90001810979E+03 0.  0.
         23    2    4    4    0    0  0.13305960575E+03 -0.19542152897E+03  0.99956754714E+02  0.27249624054E+03  0.91479044739E+02 0.  0.
         23    2    4    4    0    0 -0.55895865436E+03  0.26480085749E+03 -0.50761833545E+03  0.80566147204E+03  0.94126306786E+02 0.  0.
          2    1    3    3  502    0  0.29548133767E+03 -0.69925918483E+02 -0.34523499426E+03  0.45976739364E+03  0.00000000000E+00 0. -1.
         -1    1    3    3    0  502  0.13041771093E+03  0.54658996432E+00 -0.22407860346E+03  0.25926877678E+03  0.00000000000E+00 0.  1.
         11    1    5    5    0    0  0.76979245071E+01 -0.75539737728E+02  0.84989283846E+01  0.76405116331E+02  0.00000000000E+00 0. -1.
        -11    1    5    5    0    0  0.12536168125E+03 -0.11988179124E+03  0.91457826329E+02  0.19609112421E+03  0.00000000000E+00 0.  1.
          3    1    6    6  503    0 -0.52362900373E+03  0.25287783063E+03 -0.50149477750E+03  0.76787469201E+03  0.00000000000E+00 0. -1.
         -3    1    6    6    0  503 -0.35329650625E+02  0.11923026859E+02 -0.61235579570E+01  0.37786780027E+02  0.00000000000E+00 0.  1.
<mgrwt>
<rscale>  0 0.15084513E+04</rscale>
<asrwt>0</asrwt>
<pdfrwt beam="1">  1        2 0.21339762E+00 0.15084513E+04</pdfrwt>
<pdfrwt beam="2">  1       -1 0.63093746E-01 0.15084513E+04</pdfrwt>
<totfact> 0.41271988E+01</totfact>
</mgrwt>
</event>
<event>
12    6  0.9533401E-008  0.1319925E+04  0.7818608E-02  0.9013912E-01
          2   -1    0    0  501    0  0.00000000000E+00  0.00000000000E+00  0.33732580626E+04  0.33732580626E+04  0.00000000000E+00 0. -1.
         -1   -1    0    0    0  501 -0.00000000000E+00 -0.00000000000E+00 -0.12911872887E+03  0.12911872887E+03  0.00000000000E+00 0.  1.
         24    2    1    2    0    0  0.48077927642E+02  0.26255547913E+03  0.29207447256E+03  0.40379134760E+03  0.80579700474E+02 0.  0.
        254    2    1    2    0    0 -0.48077927642E+02 -0.26255547913E+03  0.29520648611E+04  0.30985854439E+04  0.90293850383E+03 0.  0.
         23    2    4    4    0    0  0.17536610598E+03 -0.39248856751E+03  0.67674247528E+03  0.80684526917E+03  0.90655191714E+02 0.  0.
         23    2    4    4    0    0 -0.22344403362E+03  0.12993308838E+03  0.22753223859E+04  0.22917401747E+04  0.90394828457E+02 0.  0.
          2    1    3    3  502    0 -0.88612824978E+01  0.45046901372E+02  0.92018109562E+02  0.10283519893E+03  0.00000000000E+00 0. -1.
         -1    1    3    3    0  502  0.56939210139E+02  0.21750857775E+03  0.20005636300E+03  0.30095614868E+03  0.00000000000E+00 0.  1.
         11    1    5    5    0    0  0.15701987555E+03 -0.26246665612E+03  0.43529903184E+03  0.53200491916E+03  0.00000000000E+00 0.  1.
        -11    1    5    5    0    0  0.18346230425E+02 -0.13002191139E+03  0.24144344344E+03  0.27484035001E+03  0.00000000000E+00 0. -1.
          3    1    6    6  503    0 -0.22453355603E+03  0.13339499887E+03  0.22715161725E+04  0.22864809786E+04  0.00000000000E+00 0. -1.
         -3    1    6    6    0  503  0.10895224078E+01 -0.34619104944E+01  0.38062133526E+01  0.52591960824E+01  0.00000000000E+00 0.  1.
<mgrwt>
<rscale>  0 0.13199254E+04</rscale>
<asrwt>0</asrwt>
<pdfrwt beam="1">  1        2 0.51896271E+00 0.13199254E+04</pdfrwt>
<pdfrwt beam="2">  1       -1 0.19864422E-01 0.13199254E+04</pdfrwt>
<totfact> 0.23336045E+01</totfact>
</mgrwt>
</event>
<event>
12    6  0.9533401E-008  0.2153567E+04  0.7818608E-02  0.8538007E-01
          2   -1    0    0  501    0  0.00000000000E+00  0.00000000000E+00  0.21612789056E+04  0.21612789056E+04  0.00000000000E+00 0. -1.
         -1   -1    0    0    0  501 -0.00000000000E+00 -0.00000000000E+00 -0.53647069706E+03  0.53647069706E+03  0.00000000000E+00 0.  1.
         24    2    1    2    0    0  0.51893922148E+03 -0.70870039286E+03  0.74618821152E+03  0.11553332498E+04  0.80273960072E+02 0.  0.
        254    2    1    2    0    0 -0.51893922148E+03  0.70870039286E+03  0.87861999706E+03  0.15424163529E+04  0.91406834756E+03 0.  0.
         23    2    4    4    0    0 -0.16249184797E+03  0.83184711076E+03  0.45052902502E+03  0.96417789912E+03  0.91046155518E+02 0.  0.
         23    2    4    4    0    0 -0.35644737351E+03 -0.12314671790E+03  0.42809097204E+03  0.57823845377E+03  0.94223059109E+02 0.  0.
          4    1    3    3  502    0  0.24004508006E+03 -0.37829544658E+03  0.34452373274E+03  0.56517757191E+03  0.00000000000E+00 0. -1.
         -3    1    3    3    0  502  0.27889414143E+03 -0.33040494628E+03  0.40166447877E+03  0.59015567790E+03  0.00000000000E+00 0.  1.
         11    1    5    5    0    0 -0.39372679444E+02  0.81783080237E+02  0.66862171166E+02  0.11273522091E+03  0.00000000000E+00 0.  1.
        -11    1    5    5    0    0 -0.12311916853E+03  0.75006403052E+03  0.38366685385E+03  0.85144267822E+03  0.00000000000E+00 0. -1.
          1    1    6    6  503    0 -0.19792932089E+03 -0.23823897740E+02  0.18944767397E+03  0.27501639104E+03  0.00000000000E+00 0. -1.
         -1    1    6    6    0  503 -0.15851805262E+03 -0.99322820157E+02  0.23864329807E+03  0.30322206273E+03  0.00000000000E+00 0.  1.
<mgrwt>
<rscale>  0 0.21535671E+04</rscale>
<asrwt>0</asrwt>
<pdfrwt beam="1">  1        2 0.33250444E+00 0.21535671E+04</pdfrwt>
<pdfrwt beam="2">  1       -1 0.82533955E-01 0.21535671E+04</pdfrwt>
<totfact> 0.82721655E+00</totfact>
</mgrwt>
</event>
<event>
12    6  0.9533401E-008  0.1623051E+04  0.7818608E-02  0.8806511E-01
          2   -1    0    0  501    0  0.00000000000E+00  0.00000000000E+00  0.96092234307E+03  0.96092234307E+03  0.00000000000E+00 0. -1.
         -1   -1    0    0    0  501 -0.00000000000E+00 -0.00000000000E+00 -0.68535594172E+03  0.68535594172E+03  0.00000000000E+00 0.  1.
         24    2    1    2    0    0 -0.47292410001E+03 -0.29909419865E+03  0.99211273750E+02  0.57366429509E+03  0.78315404560E+02 0.  0.
        254    2    1    2    0    0  0.47292410001E+03  0.29909419865E+03  0.17635512760E+03  0.10726139897E+04  0.89793379258E+03 0.  0.
         23    2    4    4    0    0  0.71854512400E+03  0.17429777771E+03  0.22408750837E+03  0.77825948378E+03  0.93732609829E+02 0.  0.
         23    2    4    4    0    0 -0.24562102400E+03  0.12479642093E+03 -0.47732380766E+02  0.29435450592E+03  0.91991091295E+02 0.  0.
          4    1    3    3  502    0 -0.23393275080E+03 -0.12946754504E+03  0.83779914740E+02  0.28018824249E+03  0.00000000000E+00 0. -1.
         -3    1    3    3    0  502 -0.23899134920E+03 -0.16962665361E+03  0.15431359010E+02  0.29347605260E+03  0.00000000000E+00 0.  1.
         11    1    5    5    0    0  0.45036576723E+02 -0.85071376160E+01  0.26537473386E+02  0.52961326712E+02  0.00000000000E+00 0.  1.
        -11    1    5    5    0    0  0.67350854728E+03  0.18280491533E+03  0.19755003498E+03  0.72529815707E+03  0.00000000000E+00 0. -1.
          1    1    6    6  503    0 -0.14962360879E+03  0.11823734199E+03 -0.98871306677E+01  0.19095823811E+03  0.00000000000E+00 0. -1.
         -1    1    6    6    0  503 -0.95997415207E+02  0.65590789370E+01 -0.37845250099E+02  0.10339626781E+03  0.00000000000E+00 0.  1.
<mgrwt>
<rscale>  0 0.16230512E+04</rscale>
<asrwt>0</asrwt>
<pdfrwt beam="1">  1        2 0.14783421E+00 0.16230512E+04</pdfrwt>
<pdfrwt beam="2">  1       -1 0.10543938E+00 0.16230512E+04</pdfrwt>
<totfact> 0.24597770E+01</totfact>
</mgrwt>
</event>
<event>
12    6  0.9533401E-008  0.2157923E+04  0.7818608E-02  0.8536148E-01
          2   -1    0    0  501    0  0.00000000000E+00  0.00000000000E+00  0.10805711288E+04  0.10805711288E+04  0.00000000000E+00 0. -1.
         -1   -1    0    0    0  501 -0.00000000000E+00 -0.00000000000E+00 -0.10773546916E+04  0.10773546916E+04  0.00000000000E+00 0.  1.
         24    2    1    2    0    0  0.49590008914E+03 -0.73542041058E+03  0.10545319880E+03  0.89653931897E+03  0.76826392745E+02 0.  0.
        254    2    1    2    0    0 -0.49590008914E+03  0.73542041058E+03 -0.10223676155E+03  0.12613865014E+04  0.89100138713E+03 0.  0.
         23    2    4    4    0    0 -0.54327190344E+03  0.88907729450E+03  0.86076103232E+01  0.10459320717E+04  0.91087929481E+02 0.  0.
         23    2    4    4    0    0  0.47371814304E+02 -0.15365688392E+03 -0.11084437187E+03  0.21545442977E+03  0.90992361038E+02 0.  0.
          2    1    3    3  502    0  0.13305113835E+03 -0.18474615888E+03 -0.58320934673E+01  0.22774494934E+03  0.00000000000E+00 0. -1.
         -1    1    3    3    0  502  0.36284895079E+03 -0.55067425169E+03  0.11128529227E+03  0.66879436962E+03  0.00000000000E+00 0.  1.
         11    1    5    5    0    0 -0.35326370471E+03  0.56231529761E+03 -0.37548816844E+02  0.66513431173E+03  0.00000000000E+00 0.  1.
        -11    1    5    5    0    0 -0.19000819873E+03  0.32676199688E+03  0.46156427167E+02  0.38079775992E+03  0.00000000000E+00 0. -1.
          2    1    6    6  503    0 -0.11066724459E+02 -0.81854303120E+02 -0.86768304773E+02  0.11979707026E+03  0.00000000000E+00 0. -1.
         -2    1    6    6    0  503  0.58438538763E+02 -0.71802580801E+02 -0.24076067096E+02  0.95657359514E+02  0.00000000000E+00 0.  1.
<mgrwt>
<rscale>  0 0.21579234E+04</rscale>
<asrwt>0</asrwt>
<pdfrwt beam="1">  1        2 0.16624171E+00 0.21579234E+04</pdfrwt>
<pdfrwt beam="2">  1       -1 0.16574688E+00 0.21579234E+04</pdfrwt>
<totfact> 0.61983712E+00</totfact>
</mgrwt>
</event>
<event>
12    6  0.9533401E-008  0.1400491E+04  0.7818608E-02  0.8953463E-01
          2   -1    0    0  501    0  0.00000000000E+00  0.00000000000E+00  0.21585409931E+04  0.21585409931E+04  0.00000000000E+00 0. -1.
         -1   -1    0    0    0  501 -0.00000000000E+00 -0.00000000000E+00 -0.22716434531E+03  0.22716434531E+03  0.00000000000E+00 0.  1.
         24    2    1    2    0    0 -0.19898660973E+02  0.31318767287E+03  0.13748604211E+03  0.35319089649E+03  0.85784161957E+02 0.  0.
        254    2    1    2    0    0  0.19898660973E+02 -0.31318767287E+03  0.17938906057E+04  0.20325144420E+04  0.90254583061E+03 0.  0.
         23    2    4    4    0    0 -0.24436408089E+03 -0.11991704947E+03  0.98081830232E+02  0.30357643309E+03  0.91895062560E+02 0.  0.
         23    2    4    4    0    0  0.26426274186E+03 -0.19327062341E+03  0.16958087755E+04  0.17289380089E+04  0.79189045375E+02 0.  0.
          2    1    3    3  502    0 -0.37789542537E+02  0.12590402236E+03  0.24445891414E+02  0.13370667141E+03  0.00000000000E+00 0. -1.
         -1    1    3    3    0  502  0.17890881564E+02  0.18728365051E+03  0.11304015069E+03  0.21948422508E+03  0.00000000000E+00 0.  1.
         11    1    5    5    0    0 -0.15937373926E+02 -0.11558957100E+02 -0.16793956475E+02  0.25877525982E+02  0.00000000000E+00 0. -1.
        -11    1    5    5    0    0 -0.22842670696E+03 -0.10835809237E+03  0.11487578671E+03  0.27769890710E+03  0.00000000000E+00 0.  1.
          1    1    6    6  503    0  0.39055758923E+01 -0.18358115347E+02  0.18271946110E+03  0.18368090643E+03  0.00000000000E+00 0. -1.
         -1    1    6    6    0  503  0.26035716597E+03 -0.17491250806E+03  0.15130893144E+04  0.15452571024E+04  0.00000000000E+00 0.  1.
<mgrwt>
<rscale>  0 0.14004907E+04</rscale>
<asrwt>0</asrwt>
<pdfrwt beam="1">  1        2 0.33208322E+00 0.14004907E+04</pdfrwt>
<pdfrwt beam="2">  1       -1 0.34948362E-01 0.14004907E+04</pdfrwt>
<totfact> 0.47056602E+01</totfact>
</mgrwt>
</event>
<event>
12    6  0.9533401E-008  0.3578536E+04  0.7818608E-02  0.8095426E-01
          2   -1    0    0  501    0  0.00000000000E+00  0.00000000000E+00  0.14547084504E+04  0.14547084504E+04  0.00000000000E+00 0. -1.
         -1   -1    0    0    0  501 -0.00000000000E+00 -0.00000000000E+00 -0.22007702825E+04  0.22007702825E+04  0.00000000000E+00 0.  1.
         24    2    1    2    0    0 -0.81207240721E+03 -0.64092228268E+02  0.11439049122E+04  0.14064719385E+04  0.77945220383E+02 0.  0.
        254    2    1    2    0    0  0.81207240721E+03  0.64092228268E+02 -0.18899667443E+04  0.22490067945E+04  0.90691116363E+03 0.  0.
         23    2    4    4    0    0  0.69429404468E+03  0.43113598861E+03 -0.12376023837E+04  0.14859534439E+04  0.92062567858E+02 0.  0.
         23    2    4    4    0    0  0.11777836253E+03 -0.36704376035E+03 -0.65236436064E+03  0.76305335051E+03  0.89879319098E+02 0.  0.
          2    1    3    3  502    0 -0.70671212927E+03 -0.81702221289E+02  0.10010011285E+04  0.12280555956E+04  0.00000000000E+00 0. -1.
         -1    1    3    3    0  502 -0.10536027794E+03  0.17609993022E+02  0.14290378369E+03  0.17841634290E+03  0.00000000000E+00 0.  1.
         11    1    5    5    0    0  0.12161763724E+03  0.11212057188E+03 -0.28650577765E+03  0.33082840409E+03  0.00000000000E+00 0.  1.
        -11    1    5    5    0    0  0.57267640745E+03  0.31901541674E+03 -0.95109660600E+03  0.11551250399E+04  0.00000000000E+00 0. -1.
          2    1    6    6  503    0  0.86394752607E+02 -0.30936717251E+03 -0.59361657846E+03  0.67494647412E+03  0.00000000000E+00 0. -1.
         -2    1    6    6    0  503  0.31383609920E+02 -0.57676587836E+02 -0.58747782183E+02  0.88106876391E+02  0.00000000000E+00 0.  1.
<mgrwt>
<rscale>  0 0.35785355E+04</rscale>
<asrwt>0</asrwt>
<pdfrwt beam="1">  1        2 0.22380130E+00 0.35785355E+04</pdfrwt>
<pdfrwt beam="2">  1       -1 0.33858004E+00 0.35785355E+04</pdfrwt>
<totfact> 0.23139197E-01</totfact>
</mgrwt>
</event>
<event>
12    6  0.1018871E-007  0.1974575E+04  0.7818608E-02  0.8618601E-01
          2   -1    0    0  501    0  0.00000000000E+00  0.00000000000E+00  0.16950165381E+04  0.16950165381E+04  0.00000000000E+00 0. -1.
         -1   -1    0    0    0  501 -0.00000000000E+00 -0.00000000000E+00 -0.57506041825E+03  0.57506041825E+03  0.00000000000E+00 0.  1.
         24    2    1    2    0    0  0.39923982984E+03 -0.60740281871E+03  0.76798040768E+03  0.10596891212E+04  0.69401016274E+02 0.  0.
        254    2    1    2    0    0 -0.39923982984E+03  0.60740281871E+03  0.35197571215E+03  0.12103878351E+04  0.90156596187E+03 0.  0.
         23    2    4    4    0    0 -0.23640624698E+03 -0.17312363512E+03  0.25976656398E+03  0.40256259730E+03  0.93371678434E+02 0.  0.
         23    2    4    4    0    0 -0.16283358286E+03  0.78052645384E+03  0.92209148166E+02  0.80782523784E+03  0.91338748813E+02 0.  0.
          4    1    3    3  502    0  0.29675498822E+03 -0.44983307475E+03  0.52356563265E+03  0.75135496928E+03  0.00000000000E+00 0. -1.
         -3    1    3    3    0  502  0.10248484162E+03 -0.15756974396E+03  0.24441477504E+03  0.30833415190E+03  0.00000000000E+00 0.  1.
         11    1    5    5    0    0 -0.46059007197E+02 -0.23302892018E+02  0.99547316165E+02  0.11213440630E+03  0.00000000000E+00 0. -1.
        -11    1    5    5    0    0 -0.19034723978E+03 -0.14982074311E+03  0.16021924782E+03  0.29042819100E+03  0.00000000000E+00 0.  1.
          1    1    6    6  503    0 -0.11055170299E+02  0.52205878911E+01  0.41451150615E+01  0.12909427064E+02  0.00000000000E+00 0. -1.
         -1    1    6    6    0  503 -0.15177841256E+03  0.77530586595E+03  0.88064033105E+02  0.79491581078E+03  0.00000000000E+00 0.  1.
<mgrwt>
<rscale>  0 0.19745753E+04</rscale>
<asrwt>0</asrwt>
<pdfrwt beam="1">  1        2 0.26077177E+00 0.19745753E+04</pdfrwt>
<pdfrwt beam="2">  1       -1 0.88470834E-01 0.19745753E+04</pdfrwt>
<totfact> 0.13127951E+01</totfact>
</mgrwt>
</event>
<event>
12    6  0.9533401E-008  0.1047424E+04  0.7818608E-02  0.9258008E-01
          2   -1    0    0  501    0  0.00000000000E+00  0.00000000000E+00  0.18859895972E+04  0.18859895972E+04  0.00000000000E+00 0. -1.
         -1   -1    0    0    0  501 -0.00000000000E+00 -0.00000000000E+00 -0.14542712911E+03  0.14542712911E+03  0.00000000000E+00 0.  1.
         24    2    1    2    0    0  0.35634126858E+02 -0.95506120191E+02  0.13477536535E+03  0.18629577745E+03  0.78425171987E+02 0.  0.
        254    2    1    2    0    0 -0.35634126858E+02  0.95506120191E+02  0.16057871027E+04  0.18451209488E+04  0.90306582626E+03 0.  0.
         23    2    4    4    0    0 -0.41577669892E+03  0.37065852215E+02  0.43671197639E+03  0.61096586971E+03  0.91201989378E+02 0.  0.
         23    2    4    4    0    0  0.38014257206E+03  0.58440267976E+02  0.11690751263E+04  0.12341550791E+04  0.92078598495E+02 0.  0.
          4    1    3    3  502    0 -0.16212648810E+02 -0.37821637569E+02  0.84158360997E+02  0.93680072457E+02  0.00000000000E+00 0. -1.
         -3    1    3    3    0  502  0.51846775667E+02 -0.57684482622E+02  0.50617004352E+02  0.92615704997E+02  0.00000000000E+00 0.  1.
         11    1    5    5    0    0 -0.33755586147E+03 -0.29808613496E+01  0.32251263283E+03  0.46686962150E+03  0.00000000000E+00 0.  1.
        -11    1    5    5    0    0 -0.78220837451E+02  0.40046713565E+02  0.11419934357E+03  0.14409624822E+03  0.00000000000E+00 0. -1.
          4    1    6    6  503    0  0.11644664812E+03  0.24975472899E+02  0.50508770931E+03  0.51893852256E+03  0.00000000000E+00 0. -1.
         -4    1    6    6    0  503  0.26369592394E+03  0.33464795076E+02  0.66398741702E+03  0.71521655656E+03  0.00000000000E+00 0.  1.
<mgrwt>
<rscale>  0 0.10474236E+04</rscale>
<asrwt>0</asrwt>
<pdfrwt beam="1">  1        2 0.29015223E+00 0.10474236E+04</pdfrwt>
<pdfrwt beam="2">  1       -1 0.22373406E-01 0.10474236E+04</pdfrwt>
<totfact> 0.14872596E+02</totfact>
</mgrwt>
</event>
<event>
12    6  0.9533401E-008  0.1398702E+04  0.7818608E-02  0.8954759E-01
          2   -1    0    0  501    0  0.00000000000E+00  0.00000000000E+00  0.71759863988E+03  0.71759863988E+03  0.00000000000E+00 0. -1.
         -1   -1    0    0    0  501 -0.00000000000E+00 -0.00000000000E+00 -0.68156714077E+03  0.68156714077E+03  0.00000000000E+00 0.  1.
         24    2    1    2    0    0  0.30887054629E+03  0.26270974884E+03  0.21037616810E+02  0.41401888922E+03  0.80942157161E+02 0.  0.
        254    2    1    2    0    0 -0.30887054629E+03 -0.26270974884E+03  0.14993882306E+02  0.98514689143E+03  0.89770382348E+03 0.  0.
         23    2    4    4    0    0  0.99422790216E+02 -0.20110830638E+03  0.36374137102E+03  0.43692346836E+03  0.90911440980E+02 0.  0.
         23    2    4    4    0    0 -0.40829333651E+03 -0.61601442453E+02 -0.34874748871E+03  0.54822342307E+03  0.91792833955E+02 0.  0.
          2    1    3    3  502    0  0.19896605033E+02 -0.20910553253E+01 -0.66731588870E+01  0.21089771306E+02  0.00000000000E+00 0. -1.
         -1    1    3    3    0  502  0.28897394126E+03  0.26480080416E+03  0.27710775697E+02  0.39292911791E+03  0.00000000000E+00 0.  1.
         11    1    5    5    0    0 -0.16984523350E+02 -0.28020594113E+02  0.38694208133E+02  0.50703742179E+02  0.00000000000E+00 0.  1.
        -11    1    5    5    0    0  0.11640731357E+03 -0.17308771227E+03  0.32504716289E+03  0.38621972618E+03  0.00000000000E+00 0. -1.
          3    1    6    6  503    0 -0.36302223734E+03 -0.23431523477E+02 -0.30044452821E+03  0.47180620558E+03  0.00000000000E+00 0. -1.
         -3    1    6    6    0  503 -0.45271099172E+02 -0.38169918976E+02 -0.48302960504E+02  0.76417217486E+02  0.00000000000E+00 0.  1.
<mgrwt>
<rscale>  0 0.13987018E+04</rscale>
<asrwt>0</asrwt>
<pdfrwt beam="1">  1        2 0.11039979E+00 0.13987018E+04</pdfrwt>
<pdfrwt beam="2">  1       -1 0.10485648E+00 0.13987018E+04</pdfrwt>
<totfact> 0.37709500E+01</totfact>
</mgrwt>
</event>
<event>
12    6  0.9533401E-008  0.1811798E+04  0.7818608E-02  0.8700051E-01
         -1   -1    0    0    0  501 -0.00000000000E+00  0.00000000000E+00  0.18791178844E+03  0.18791178844E+03  0.00000000000E+00 0.  1.
          2   -1    0    0  501    0  0.00000000000E+00 -0.00000000000E+00 -0.43672225210E+04  0.43672225210E+04  0.00000000000E+00 0. -1.
         24    2    1    2    0    0  0.60558650828E+03 -0.20610635692E+03 -0.21475277554E+04  0.22422001489E+04  0.79819783153E+02 0.  0.
        254    2    1    2    0    0 -0.60558650828E+03  0.20610635692E+03 -0.20317829771E+04  0.23129341606E+04  0.90128104143E+03 0.  0.
         23    2    4    4    0    0 -0.58031181693E+03 -0.20101121503E+03 -0.15800790977E+04  0.16977038018E+04  0.91547421580E+02 0.  0.
         23    2    4    4    0    0 -0.25274691351E+02  0.40711757196E+03 -0.45170387941E+03  0.61523035871E+03  0.89935933773E+02 0.  0.
          2    1    3    3  502    0  0.52192543205E+03 -0.19866528753E+03 -0.17985247306E+04  0.18832326621E+04  0.00000000000E+00 0. -1.
         -3    1    3    3    0  502  0.83661076237E+02 -0.74410693922E+01 -0.34900302482E+03  0.35896748672E+03  0.00000000000E+00 0.  1.
         11    1    5    5    0    0 -0.26208357060E+03 -0.10774498972E+03 -0.84606262910E+03  0.89225487006E+03  0.00000000000E+00 0. -1.
        -11    1    5    5    0    0 -0.31822824634E+03 -0.93266225318E+02 -0.73401646859E+03  0.80544893178E+03  0.00000000000E+00 0.  1.
          2    1    6    6  503    0  0.26896112451E+02  0.50040493437E+02 -0.59409608529E+02  0.82200689985E+02  0.00000000000E+00 0.  1.
         -2    1    6    6    0  503 -0.52170803802E+02  0.35707707852E+03 -0.39229427088E+03  0.53302966872E+03  0.00000000000E+00 0. -1.
<mgrwt>
<rscale>  0 0.18117976E+04</rscale>
<asrwt>0</asrwt>
<pdfrwt beam="1">  1        2 0.67188040E+00 0.18117976E+04</pdfrwt>
<pdfrwt beam="2">  1       -1 0.28909505E-01 0.18117976E+04</pdfrwt>
<totfact> 0.19639163E+00</totfact>
</mgrwt>
</event>
<event>
12    6  0.1577075E-007  0.2189017E+04  0.7818608E-02  0.8523014E-01
         -1   -1    0    0    0  501 -0.00000000000E+00  0.00000000000E+00  0.59124561293E+03  0.59124561293E+03  0.00000000000E+00 0.  1.
          2   -1    0    0  501    0  0.00000000000E+00 -0.00000000000E+00 -0.20261433557E+04  0.20261433557E+04  0.00000000000E+00 0. -1.
         24    2    1    2    0    0 -0.67670798110E+03 -0.25427723502E+03  0.62175682925E+02  0.72998068017E+03  0.80096029472E+02 0.  0.
        254    2    1    2    0    0  0.67670798110E+03  0.25427723502E+03 -0.14970734257E+04  0.18874082885E+04  0.89358301320E+03 0.  0.
         23    2    4    4    0    0  0.26282787090E+03 -0.28317871986E+03 -0.26204997123E+03  0.47549988343E+03  0.90339773163E+02 0.  0.
         23    2    4    4    0    0  0.41388011020E+03  0.53745595488E+03 -0.12350234545E+04  0.14119084050E+04  0.89703746162E+02 0.  0.
          2    1    3    3  502    0  0.66502504913E+00 -0.11474397442E+01  0.43502736611E+01  0.45479398862E+01  0.00000000000E+00 0. -1.
         -1    1    3    3    0  502 -0.67737300615E+03 -0.25312979528E+03  0.57825409264E+02  0.72543274028E+03  0.00000000000E+00 0.  1.
         11    1    5    5    0    0  0.25531646178E+01  0.27724018868E+01  0.44940433903E+01  0.58652611008E+01  0.00000000000E+00 0.  1.
        -11    1    5    5    0    0  0.26027470628E+03 -0.28595112174E+03 -0.26654401463E+03  0.46963462233E+03  0.00000000000E+00 0. -1.
          1    1    6    6  503    0  0.38479608892E+03  0.50333516386E+03 -0.10973583864E+04  0.12671265704E+04  0.00000000000E+00 0. -1.
         -1    1    6    6    0  503  0.29084021277E+02  0.34120791020E+02 -0.13766506805E+03  0.14478183461E+03  0.00000000000E+00 0.  1.
<mgrwt>
<rscale>  0 0.21890166E+04</rscale>
<asrwt>0</asrwt>
<pdfrwt beam="1">  1        2 0.31171437E+00 0.21890166E+04</pdfrwt>
<pdfrwt beam="2">  1       -1 0.90960863E-01 0.21890166E+04</pdfrwt>
<totfact> 0.79375725E+00</totfact>
</mgrwt>
</event>
<event>
12    6  0.9533401E-008  0.2556642E+04  0.7818608E-02  0.8383080E-01
          2   -1    0    0  501    0  0.00000000000E+00  0.00000000000E+00  0.29965927740E+04  0.29965927740E+04  0.00000000000E+00 0. -1.
         -1   -1    0    0    0  501 -0.00000000000E+00 -0.00000000000E+00 -0.54532073255E+03  0.54532073255E+03  0.00000000000E+00 0.  1.
         24    2    1    2    0    0  0.24701034512E+03  0.48695072038E+03 -0.27646295535E+03  0.61733946431E+03  0.80877276440E+02 0.  0.
        254    2    1    2    0    0 -0.24701034512E+03 -0.48695072038E+03  0.27277349968E+04  0.29245740423E+04  0.90247437699E+03 0.  0.
         23    2    4    4    0    0 -0.16810307667E+03  0.41955504861E+02  0.20363842416E+04  0.20457945503E+04  0.91627799345E+02 0.  0.
         23    2    4    4    0    0 -0.78907268447E+02 -0.52890622524E+03  0.69135075522E+03  0.87877949201E+03  0.91210617407E+02 0.  0.
          4    1    3    3  502    0  0.65958692910E+02  0.64657053925E+02 -0.41090185424E+02  0.10109147902E+03  0.00000000000E+00 0. -1.
         -3    1    3    3    0  502  0.18105165221E+03  0.42229366645E+03 -0.23537276993E+03  0.51624798529E+03  0.00000000000E+00 0.  1.
         11    1    5    5    0    0 -0.89468549147E+02 -0.81830304060E+01  0.63676357027E+03  0.64307031318E+03  0.00000000000E+00 0. -1.
        -11    1    5    5    0    0 -0.78634527526E+02  0.50138535267E+02  0.13996206714E+04  0.14027242371E+04  0.00000000000E+00 0.  1.
          2    1    6    6  503    0 -0.26813017023E+02 -0.42751008244E+03  0.55398436983E+03  0.70027315420E+03  0.00000000000E+00 0. -1.
         -2    1    6    6    0  503 -0.52094251424E+02 -0.10139614280E+03  0.13736638538E+03  0.17850633781E+03  0.00000000000E+00 0.  1.
<mgrwt>
<rscale>  0 0.25566417E+04</rscale>
<asrwt>0</asrwt>
<pdfrwt beam="1">  1        2 0.46101426E+00 0.25566417E+04</pdfrwt>
<pdfrwt beam="2">  1       -1 0.83895499E-01 0.25566417E+04</pdfrwt>
<totfact> 0.24877429E+00</totfact>
</mgrwt>
</event>
<event>
12    6  0.9533401E-008  0.1525813E+04  0.7818608E-02  0.8867467E-01
         -1   -1    0    0    0  501 -0.00000000000E+00  0.00000000000E+00  0.13387152128E+04  0.13387152128E+04  0.00000000000E+00 0.  1.
          2   -1    0    0  501    0  0.00000000000E+00 -0.00000000000E+00 -0.43476468831E+03  0.43476468831E+03  0.00000000000E+00 0. -1.
         24    2    1    2    0    0 -0.14767834610E+03 -0.44099491790E+03  0.42582543628E+02  0.47533010936E+03  0.88543934410E+02 0.  0.
        254    2    1    2    0    0  0.14767834610E+03  0.44099491790E+03  0.86136798082E+03  0.12981497917E+04  0.85261519564E+03 0.  0.
         23    2    4    4    0    0  0.48964905939E+03  0.20169051063E+03  0.40895458746E+03  0.67532505647E+03  0.91568629162E+02 0.  0.
         23    2    4    4    0    0 -0.34197071328E+03  0.23930440726E+03  0.45241339336E+03  0.62282473526E+03  0.94985284533E+02 0.  0.
          2    1    3    3  502    0 -0.12248009564E+03 -0.40391583036E+03  0.14292467523E+02  0.42231936549E+03  0.00000000000E+00 0. -1.
         -1    1    3    3    0  502 -0.25198250460E+02 -0.37079087539E+02  0.28290076105E+02  0.53010743864E+02  0.00000000000E+00 0.  1.
         11    1    5    5    0    0  0.10214729804E+03  0.84334964951E+02  0.96005912151E+02  0.16359581895E+03  0.00000000000E+00 0.  1.
        -11    1    5    5    0    0  0.38750176135E+03  0.11735554568E+03  0.31294867531E+03  0.51172923752E+03  0.00000000000E+00 0. -1.
          3    1    6    6  503    0 -0.29291738581E+03  0.21683871934E+03  0.43186705622E+03  0.56509183268E+03  0.00000000000E+00 0. -1.
         -3    1    6    6    0  503 -0.49053327474E+02  0.22465687927E+02  0.20546337142E+02  0.57732902580E+02  0.00000000000E+00 0.  1.
<mgrwt>
<rscale>  0 0.15258127E+04</rscale>
<asrwt>0</asrwt>
<pdfrwt beam="1">  1        2 0.66886876E-01 0.15258127E+04</pdfrwt>
<pdfrwt beam="2">  1       -1 0.20595618E+00 0.15258127E+04</pdfrwt>
<totfact> 0.10927039E+01</totfact>
</mgrwt>
</event>
<event>
12    6  0.9533401E-008  0.2131804E+04  0.7818608E-02  0.8547362E-01
          2   -1    0    0  501    0  0.00000000000E+00  0.00000000000E+00  0.15158266819E+04  0.15158266819E+04  0.00000000000E+00 0. -1.
         -1   -1    0    0    0  501 -0.00000000000E+00 -0.00000000000E+00 -0.74952290161E+03  0.74952290161E+03  0.00000000000E+00 0.  1.
         24    2    1    2    0    0 -0.53917526879E+01  0.22078457127E+03  0.12100356710E+04  0.12348556384E+04  0.10912023003E+03 0.  0.
        254    2    1    2    0    0  0.53917526879E+01 -0.22078457127E+03 -0.44373189078E+03  0.10304939451E+04  0.90346271757E+03 0.  0.
         23    2    4    4    0    0  0.58321830984E+02  0.31282375441E+03 -0.47730565453E+01  0.33158277159E+03  0.93081765413E+02 0.  0.
         23    2    4    4    0    0 -0.52930078296E+02 -0.53360832569E+03 -0.43895883423E+03  0.69891117349E+03  0.90843446872E+02 0.  0.
          2    1    3    3  502    0  0.41100495172E+02  0.16024544416E+03  0.93019562045E+03  0.94479190586E+03  0.00000000000E+00 0. -1.
         -1    1    3    3    0  502 -0.46492247860E+02  0.60539127113E+02  0.27984005058E+03  0.29006373253E+03  0.00000000000E+00 0.  1.
         11    1    5    5    0    0  0.49562310850E+02  0.31545932764E+03 -0.12551080023E+02  0.31957556174E+03  0.00000000000E+00 0. -1.
        -11    1    5    5    0    0  0.87595201339E+01 -0.26355732251E+01  0.77780234781E+01  0.12007209852E+02  0.00000000000E+00 0.  1.
          3    1    6    6  503    0  0.56763941815E+01 -0.26739212016E+03 -0.17605318261E+03  0.32019601884E+03  0.00000000000E+00 0. -1.
         -3    1    6    6    0  503 -0.58606472477E+02 -0.26621620553E+03 -0.26290565162E+03  0.37871515464E+03  0.00000000000E+00 0.  1.
<mgrwt>
<rscale>  0 0.21318038E+04</rscale>
<asrwt>0</asrwt>
<pdfrwt beam="1">  1        2 0.23320410E+00 0.21318038E+04</pdfrwt>
<pdfrwt beam="2">  1       -1 0.11531122E+00 0.21318038E+04</pdfrwt>
<totfact> 0.88803319E+00</totfact>
</mgrwt>
</event>
<event>
12    6  0.9533401E-008  0.1582991E+04  0.7818608E-02  0.8831066E-01
         -1   -1    0    0    0  501 -0.00000000000E+00  0.00000000000E+00  0.22042705306E+03  0.22042705306E+03  0.00000000000E+00 0.  1.
          2   -1    0    0  501    0  0.00000000000E+00 -0.00000000000E+00 -0.28420530937E+04  0.28420530937E+04  0.00000000000E+00 0. -1.
         24    2    1    2    0    0 -0.47709751020E+02  0.50710301873E+03 -0.58778409192E+03  0.78099282741E+03  0.70922251874E+02 0.  0.
        254    2    1    2    0    0  0.47709751020E+02 -0.50710301873E+03 -0.20338419487E+04  0.22814873193E+04  0.89957858133E+03 0.  0.
         23    2    4    4    0    0 -0.14277507802E+03 -0.60463058934E+03 -0.75657980848E+03  0.98315587406E+03  0.90661974542E+02 0.  0.
         23    2    4    4    0    0  0.19048482904E+03  0.97527570615E+02 -0.12772621402E+04  0.12983314453E+04  0.92031895478E+02 0.  0.
          2    1    3    3  502    0 -0.45733116632E+02  0.27117838864E+03 -0.36022351309E+03  0.45319997331E+03  0.00000000000E+00 0. -1.
         -1    1    3    3    0  502 -0.19766343879E+01  0.23592463009E+03 -0.22756057883E+03  0.32779285410E+03  0.00000000000E+00 0.  1.
         11    1    5    5    0    0 -0.12954794920E+03 -0.47095482237E+03 -0.53848672133E+03  0.72701379967E+03  0.00000000000E+00 0. -1.
        -11    1    5    5    0    0 -0.13227128817E+02 -0.13367576697E+03 -0.21809308715E+03  0.25614207440E+03  0.00000000000E+00 0.  1.
          4    1    6    6  503    0  0.12288391242E+03  0.83669740045E+02 -0.62539217071E+03  0.64281914137E+03  0.00000000000E+00 0. -1.
         -4    1    6    6    0  503  0.67600916616E+02  0.13857830570E+02 -0.65186996952E+03  0.65551230390E+03  0.00000000000E+00 0.  1.
<mgrwt>
<rscale>  0 0.15829913E+04</rscale>
<asrwt>0</asrwt>
<pdfrwt beam="1">  1        2 0.43723894E+00 0.15829913E+04</pdfrwt>
<pdfrwt beam="2">  1       -1 0.33911854E-01 0.15829913E+04</pdfrwt>
<totfact> 0.19667448E+01</totfact>
</mgrwt>
</event>
<event>
12    6  0.9533401E-008  0.2012390E+04  0.7818608E-02  0.8600850E-01
         -1   -1    0    0    0  501 -0.00000000000E+00  0.00000000000E+00  0.13470085838E+04  0.13470085838E+04  0.00000000000E+00 0.  1.
          2   -1    0    0  501    0  0.00000000000E+00 -0.00000000000E+00 -0.75161266528E+03  0.75161266528E+03  0.00000000000E+00 0. -1.
         24    2    1    2    0    0  0.60139693309E+03  0.43318731716E+03 -0.72190070096E+02  0.74894985956E+03  0.79905963706E+02 0.  0.
        254    2    1    2    0    0 -0.60139693309E+03 -0.43318731716E+03  0.66758598858E+03  0.13496713895E+04  0.90918220647E+03 0.  0.
         23    2    4    4    0    0 -0.26623433908E+03  0.13454280732E+03 -0.10537949021E+03  0.32972252966E+03  0.92895744251E+02 0.  0.
         23    2    4    4    0    0 -0.33516259401E+03 -0.56773012448E+03  0.77296547880E+03  0.10199488598E+04  0.90380233399E+02 0.  0.
          2    1    3    3  502    0  0.31267608604E+03  0.26704843510E+03 -0.60623245827E+02  0.41563972309E+03  0.00000000000E+00 0. -1.
         -1    1    3    3    0  502  0.28872084705E+03  0.16613888205E+03 -0.11566824269E+02  0.33331013647E+03  0.00000000000E+00 0.  1.
         11    1    5    5    0    0 -0.20288751975E+03  0.12712644605E+03 -0.48551086888E+02  0.24429835651E+03  0.00000000000E+00 0.  1.
        -11    1    5    5    0    0 -0.63346819335E+02  0.74163612677E+01 -0.56828403322E+02  0.85424173151E+02  0.00000000000E+00 0. -1.
          1    1    6    6  503    0  0.50265013072E+01 -0.18240679433E+02  0.17558635328E+02  0.25812666970E+02  0.00000000000E+00 0. -1.
         -1    1    6    6    0  503 -0.34018909532E+03 -0.54948944504E+03  0.75540684347E+03  0.99413619285E+03  0.00000000000E+00 0.  1.
<mgrwt>
<rscale>  0 0.20123903E+04</rscale>
<asrwt>0</asrwt>
<pdfrwt beam="1">  1        2 0.11563272E+00 0.20123903E+04</pdfrwt>
<pdfrwt beam="2">  1       -1 0.20723209E+00 0.20123903E+04</pdfrwt>
<totfact> 0.53179241E+00</totfact>
</mgrwt>
</event>
<event>
12    6  0.9660834E-008  0.2474808E+04  0.7818608E-02  0.8412016E-01
         -1   -1    0    0    0  501 -0.00000000000E+00  0.00000000000E+00  0.82811018028E+03  0.82811018028E+03  0.00000000000E+00 0.  1.
          2   -1    0    0  501    0  0.00000000000E+00 -0.00000000000E+00 -0.18489918827E+04  0.18489918827E+04  0.00000000000E+00 0. -1.
         24    2    1    2    0    0  0.15207319932E+01 -0.10293444770E+03 -0.15956421218E+04  0.16009177462E+04  0.79158298634E+02 0.  0.
        254    2    1    2    0    0 -0.15207319932E+01  0.10293444770E+03  0.57476041940E+03  0.10761843167E+04  0.90400516077E+03 0.  0.
         23    2    4    4    0    0  0.76081754168E+02 -0.37296775772E+03  0.38564171512E+03  0.55039065968E+03  0.96524422854E+02 0.  0.
         23    2    4    4    0    0 -0.77602486161E+02  0.47590220542E+03  0.18911870427E+03  0.52579365704E+03  0.90487736679E+02 0.  0.
          4    1    3    3  502    0  0.91025326372E+01 -0.83987996333E+02 -0.15262726382E+04  0.15286088466E+04  0.00000000000E+00 0. -1.
         -3    1    3    3    0  502 -0.75818006440E+01 -0.18946451371E+02 -0.69369483530E+02  0.72308899630E+02  0.00000000000E+00 0.  1.
         11    1    5    5    0    0  0.62480062727E+02 -0.32281466956E+03  0.37236176088E+03  0.49675582542E+03  0.00000000000E+00 0. -1.
        -11    1    5    5    0    0  0.13601691441E+02 -0.50153088156E+02  0.13279954244E+02  0.53634834262E+02  0.00000000000E+00 0.  1.
          2    1    6    6  503    0 -0.52216767468E+02  0.21591819441E+03  0.13199986785E+03  0.25840128211E+03  0.00000000000E+00 0.  1.
         -2    1    6    6    0  503 -0.25385718694E+02  0.25998401101E+03  0.57118836419E+02  0.26739237492E+03  0.00000000000E+00 0. -1.
<mgrwt>
<rscale>  0 0.24748083E+04</rscale>
<asrwt>0</asrwt>
<pdfrwt beam="1">  1        2 0.28446028E+00 0.24748083E+04</pdfrwt>
<pdfrwt beam="2">  1       -1 0.12740157E+00 0.24748083E+04</pdfrwt>
<totfact> 0.43994574E+00</totfact>
</mgrwt>
</event>
<event>
12    6  0.9533401E-008  0.1282906E+04  0.7818608E-02  0.9043232E-01
          2   -1    0    0  501    0  0.00000000000E+00  0.00000000000E+00  0.18905847269E+04  0.18905847269E+04  0.00000000000E+00 0. -1.
         -3   -1    0    0    0  501 -0.00000000000E+00 -0.00000000000E+00 -0.21763732429E+03  0.21763732429E+03  0.00000000000E+00 0.  1.
         24    2    1    2    0    0  0.20085729000E+02  0.42991024035E+02 -0.89377293603E+02  0.12822172768E+03  0.78745451800E+02 0.  0.
        254    2    1    2    0    0 -0.20085729000E+02 -0.42991024035E+02  0.17623246962E+04  0.19800003235E+04  0.90131086842E+03 0.  0.
         23    2    4    4    0    0  0.60675463950E+01  0.29009067519E+03  0.15375410825E+04  0.15671762603E+04  0.88427572838E+02 0.  0.
         23    2    4    4    0    0 -0.26153275395E+02 -0.33308169923E+03  0.22478361371E+03  0.41282406317E+03  0.90931963386E+02 0.  0.
          4    1    3    3  502    0  0.27336988042E+02  0.57879373938E+02 -0.38452914217E+02  0.74672347321E+02  0.00000000000E+00 0. -1.
         -3    1    3    3    0  502 -0.72512590415E+01 -0.14888349903E+02 -0.50924379386E+02  0.53549380354E+02  0.00000000000E+00 0.  1.
         11    1    5    5    0    0  0.31083818114E+02  0.62334485481E+02  0.25565782708E+03  0.26497682234E+03  0.00000000000E+00 0.  1.
        -11    1    5    5    0    0 -0.25016271719E+02  0.22775618971E+03  0.12818832554E+04  0.13021994380E+04  0.00000000000E+00 0. -1.
          1    1    6    6  503    0 -0.74928376067E+01 -0.55519333956E+02  0.13873223279E+01  0.56039840485E+02  0.00000000000E+00 0. -1.
         -1    1    6    6    0  503 -0.18660437788E+02 -0.27756236527E+03  0.22339629138E+03  0.35678422268E+03  0.00000000000E+00 0.  1.
<mgrwt>
<rscale>  0 0.12829058E+04</rscale>
<asrwt>0</asrwt>
<pdfrwt beam="1">  1        2 0.29085918E+00 0.12829058E+04</pdfrwt>
<pdfrwt beam="2">  1       -3 0.33482667E-01 0.12829058E+04</pdfrwt>
<totfact> 0.42813038E+01</totfact>
</mgrwt>
</event>
<event>
12    6  0.9533401E-008  0.1997044E+04  0.7818608E-02  0.8608004E-01
         -1   -1    0    0    0  501 -0.00000000000E+00  0.00000000000E+00  0.29409369535E+03  0.29409369535E+03  0.00000000000E+00 0.  1.
          2   -1    0    0  501    0  0.00000000000E+00 -0.00000000000E+00 -0.33902328781E+04  0.33902328781E+04  0.00000000000E+00 0. -1.
         24    2    1    2    0    0  0.21357154731E+03 -0.44992245729E+03 -0.96518505521E+02  0.51351550685E+03  0.79619912550E+02 0.  0.
        254    2    1    2    0    0 -0.21357154731E+03  0.44992245729E+03 -0.29996206772E+04  0.31708110666E+04  0.89904148371E+03 0.  0.
         23    2    4    4    0    0 -0.49644316221E+02  0.21336079969E+03 -0.27981004163E+04  0.28081599249E+04  0.91699700572E+02 0.  0.
         23    2    4    4    0    0 -0.16392723109E+03  0.23656165760E+03 -0.20152026088E+03  0.36265114166E+03  0.89843642316E+02 0.  0.
          2    1    3    3  502    0  0.76090122683E+02 -0.22349906574E+03 -0.15925383770E+02  0.23663295841E+03  0.00000000000E+00 0. -1.
         -1    1    3    3    0  502  0.13748142463E+03 -0.22642339154E+03 -0.80593121751E+02  0.27688254844E+03  0.00000000000E+00 0.  1.
         11    1    5    5    0    0 -0.63724350976E+02  0.19560139741E+03 -0.26813500485E+04  0.26892301468E+04  0.00000000000E+00 0.  1.
        -11    1    5    5    0    0  0.14080034755E+02  0.17759402284E+02 -0.11675036781E+03  0.11892977816E+03  0.00000000000E+00 0. -1.
          2    1    6    6  503    0 -0.69959894678E+02  0.71310882232E+02 -0.11911235402E+03  0.15545861722E+03  0.00000000000E+00 0. -1.
         -2    1    6    6    0  503 -0.93967336416E+02  0.16525077537E+03 -0.82407906861E+02  0.20719252444E+03  0.00000000000E+00 0.  1.
<mgrwt>
<rscale>  0 0.19970439E+04</rscale>
<asrwt>0</asrwt>
<pdfrwt beam="1">  1        2 0.52157430E+00 0.19970439E+04</pdfrwt>
<pdfrwt beam="2">  1       -1 0.45245183E-01 0.19970439E+04</pdfrwt>
<totfact> 0.49883507E+00</totfact>
</mgrwt>
</event>
<event>
12    6  0.9533401E-008  0.1463230E+04  0.7818608E-02  0.8909280E-01
          2   -1    0    0  501    0  0.00000000000E+00  0.00000000000E+00  0.18975862932E+04  0.18975862932E+04  0.00000000000E+00 0. -1.
         -1   -1    0    0    0  501 -0.00000000000E+00 -0.00000000000E+00 -0.28207427477E+03  0.28207427477E+03  0.00000000000E+00 0.  1.
         24    2    1    2    0    0  0.23992049780E+03  0.27983576083E+03  0.11765955228E+03  0.39498052166E+03  0.79346984435E+02 0.  0.
        254    2    1    2    0    0 -0.23992049780E+03 -0.27983576083E+03  0.14978524661E+04  0.17846800463E+04  0.89758061421E+03 0.  0.
         23    2    4    4    0    0 -0.12739556175E+03  0.30795141188E+03  0.72002955700E+03  0.79902342819E+03  0.94510182509E+02 0.  0.
         23    2    4    4    0    0 -0.11252493605E+03 -0.58778717272E+03  0.77782290911E+03  0.98565661808E+03  0.91404973551E+02 0.  0.
          2    1    3    3  502    0 -0.33263142463E-01 -0.26168434059E+01  0.80944269656E+01  0.85069808833E+01  0.00000000000E+00 0. -1.
         -1    1    3    3    0  502  0.23995376095E+03  0.28245260424E+03  0.10956512531E+03  0.38647354077E+03  0.00000000000E+00 0.  1.
         11    1    5    5    0    0 -0.97196582088E+02  0.21529085871E+03  0.59725634157E+03  0.64227133437E+03  0.00000000000E+00 0.  1.
        -11    1    5    5    0    0 -0.30198979665E+02  0.92660553170E+02  0.12277321544E+03  0.15675209382E+03  0.00000000000E+00 0. -1.
          2    1    6    6  503    0 -0.42575998869E+01 -0.26266763272E+03  0.34209668507E+03  0.43132650553E+03  0.00000000000E+00 0.  1.
         -2    1    6    6    0  503 -0.10826733616E+03 -0.32511953999E+03  0.43572622404E+03  0.55433011255E+03  0.00000000000E+00 0. -1.
<mgrwt>
<rscale>  0 0.14632297E+04</rscale>
<asrwt>0</asrwt>
<pdfrwt beam="1">  1        2 0.29193634E+00 0.14632297E+04</pdfrwt>
<pdfrwt beam="2">  1       -1 0.43396044E-01 0.14632297E+04</pdfrwt>
<totfact> 0.44061032E+01</totfact>
</mgrwt>
</event>
<event>
12    6  0.9533401E-008  0.1237336E+04  0.7818608E-02  0.9080790E-01
         -1   -1    0    0    0  501 -0.00000000000E+00  0.00000000000E+00  0.54692048249E+03  0.54692048249E+03  0.00000000000E+00 0.  1.
          2   -1    0    0  501    0  0.00000000000E+00 -0.00000000000E+00 -0.69982735776E+03  0.69982735776E+03  0.00000000000E+00 0. -1.
         24    2    1    2    0    0  0.13245689377E+03 -0.12406647743E+03  0.17605354566E+03  0.26504160600E+03  0.79466234598E+02 0.  0.
        254    2    1    2    0    0 -0.13245689377E+03  0.12406647743E+03 -0.32896042092E+03  0.98170623426E+03  0.90697014963E+03 0.  0.
         23    2    4    4    0    0 -0.32365424954E+03  0.27644513774E+03 -0.50502403456E+03  0.66683510593E+03  0.91901009782E+02 0.  0.
         23    2    4    4    0    0  0.19119735577E+03 -0.15237866031E+03  0.17606361364E+03  0.31487112832E+03  0.91486318297E+02 0.  0.
          4    1    3    3  502    0  0.16564780372E+02 -0.13289719494E+02 -0.63798232179E+01  0.22174551569E+02  0.00000000000E+00 0. -1.
         -3    1    3    3    0  502  0.11589211340E+03 -0.11077675794E+03  0.18243336888E+03  0.24286705443E+03  0.00000000000E+00 0.  1.
         11    1    5    5    0    0 -0.31008500340E+03  0.26860155238E+03 -0.44694704322E+03  0.60668044530E+03  0.00000000000E+00 0.  1.
        -11    1    5    5    0    0 -0.13569246135E+02  0.78435853625E+01 -0.58076991341E+02  0.60154660628E+02  0.00000000000E+00 0. -1.
          3    1    6    6  503    0  0.57063768217E+02 -0.94761667317E+01  0.11554446596E+02  0.58987936183E+02  0.00000000000E+00 0. -1.
         -3    1    6    6    0  503  0.13413358755E+03 -0.14290249358E+03  0.16450916704E+03  0.25588319214E+03  0.00000000000E+00 0.  1.
<mgrwt>
<rscale>  0 0.12373357E+04</rscale>
<asrwt>0</asrwt>
<pdfrwt beam="1">  1        2 0.10766575E+00 0.12373357E+04</pdfrwt>
<pdfrwt beam="2">  1       -1 0.84141613E-01 0.12373357E+04</pdfrwt>
<totfact> 0.64525320E+01</totfact>
</mgrwt>
</event>
<event>
12    6  0.9533401E-008  0.1321387E+04  0.7818608E-02  0.9012775E-01
         -3   -1    0    0    0  501 -0.00000000000E+00  0.00000000000E+00  0.33357536744E+03  0.33357536744E+03  0.00000000000E+00 0.  1.
          2   -1    0    0  501    0  0.00000000000E+00 -0.00000000000E+00 -0.13085967338E+04  0.13085967338E+04  0.00000000000E+00 0. -1.
         24    2    1    2    0    0 -0.19909082925E+02 -0.30274949494E+03 -0.46853023059E+03  0.56344954730E+03  0.76819184512E+02 0.  0.
        254    2    1    2    0    0  0.19909082925E+02  0.30274949494E+03 -0.50649113575E+03  0.10787225539E+04  0.90280421437E+03 0.  0.
         23    2    4    4    0    0 -0.27903818723E+03 -0.14232818247E+03 -0.41412986318E+03  0.52695248624E+03  0.89753872999E+02 0.  0.
         23    2    4    4    0    0  0.29894727015E+03  0.44507767741E+03 -0.92361272567E+02  0.55177006769E+03  0.91956477042E+02 0.  0.
          2    1    3    3  502    0 -0.25473530260E+02 -0.28197680140E+03 -0.46034021064E+03  0.54043771778E+03  0.00000000000E+00 0. -1.
         -1    1    3    3    0  502  0.55644473349E+01 -0.20772693539E+02 -0.81900199521E+01  0.23011829520E+02  0.00000000000E+00 0.  1.
         11    1    5    5    0    0 -0.67795630663E+02  0.52798432590E+01 -0.92852772610E+02  0.11509023270E+03  0.00000000000E+00 0.  1.
        -11    1    5    5    0    0 -0.21124255657E+03 -0.14760802572E+03 -0.32127709057E+03  0.41186225354E+03  0.00000000000E+00 0. -1.
          1    1    6    6  503    0  0.30543632475E+03  0.43740197446E+03 -0.93613357417E+02  0.54164129868E+03  0.00000000000E+00 0. -1.
         -1    1    6    6    0  503 -0.64890546002E+01  0.76757029413E+01  0.12520848495E+01  0.10128769013E+02  0.00000000000E+00 0.  1.
<mgrwt>
<rscale>  0 0.13213866E+04</rscale>
<asrwt>0</asrwt>
<pdfrwt beam="1">  1        2 0.20132257E+00 0.13213866E+04</pdfrwt>
<pdfrwt beam="2">  1       -3 0.51319288E-01 0.13213866E+04</pdfrwt>
<totfact> 0.38449597E+01</totfact>
</mgrwt>
</event>
<event>
12    6  0.9533401E-008  0.1972465E+04  0.7818608E-02  0.8619603E-01
          2   -1    0    0  501    0  0.00000000000E+00  0.00000000000E+00  0.20894679493E+04  0.20894679493E+04  0.00000000000E+00 0. -1.
         -1   -1    0    0    0  501 -0.00000000000E+00 -0.00000000000E+00 -0.46550350234E+03  0.46550350234E+03  0.00000000000E+00 0.  1.
         24    2    1    2    0    0 -0.27138583394E+03  0.45276626806E+03 -0.90530296978E+02  0.54125091698E+03  0.78161730431E+02 0.  0.
        254    2    1    2    0    0  0.27138583394E+03 -0.45276626806E+03  0.17144947439E+04  0.20137205346E+04  0.91483911174E+03 0.  0.
         23    2    4    4    0    0 -0.20658703041E+03 -0.56965709558E+02  0.53078313225E+02  0.23782240573E+03  0.88424522222E+02 0.  0.
         23    2    4    4    0    0  0.47797286435E+03 -0.39580055850E+03  0.16614164307E+04  0.17758981289E+04  0.91615866247E+02 0.  0.
          4    1    3    3  502    0 -0.30113091830E+02  0.27792768872E+02  0.10338256955E+02  0.42262463936E+02  0.00000000000E+00 0. -1.
         -3    1    3    3    0  502 -0.24127274211E+03  0.42497349919E+03 -0.10086855393E+03  0.49898845304E+03  0.00000000000E+00 0.  1.
         11    1    5    5    0    0 -0.83549402265E+02 -0.35983610390E+02  0.65930797087E+02  0.11234853288E+03  0.00000000000E+00 0.  1.
        -11    1    5    5    0    0 -0.12303762815E+03 -0.20982099168E+02 -0.12852483862E+02  0.12547387285E+03  0.00000000000E+00 0. -1.
          4    1    6    6  503    0  0.24689174086E+03 -0.19140946935E+03  0.70928871902E+03  0.77503780785E+03  0.00000000000E+00 0.  1.
         -4    1    6    6    0  503  0.23108112349E+03 -0.20439108915E+03  0.95212771167E+03  0.10008603211E+04  0.00000000000E+00 0. -1.
<mgrwt>
<rscale>  0 0.19724651E+04</rscale>
<asrwt>0</asrwt>
<pdfrwt beam="1">  1        2 0.32145660E+00 0.19724651E+04</pdfrwt>
<pdfrwt beam="2">  1       -1 0.71615925E-01 0.19724651E+04</pdfrwt>
<totfact> 0.12428212E+01</totfact>
</mgrwt>
</event>
<event>
12    6  0.9533401E-008  0.1666474E+04  0.7818608E-02  0.8780720E-01
         -1   -1    0    0    0  501 -0.00000000000E+00  0.00000000000E+00  0.39189189311E+03  0.39189189311E+03  0.00000000000E+00 0.  1.
          2   -1    0    0  501    0  0.00000000000E+00 -0.00000000000E+00 -0.17716208711E+04  0.17716208711E+04  0.00000000000E+00 0. -1.
         24    2    1    2    0    0  0.34000151992E+03  0.32738319299E+03 -0.94190440787E+03  0.10566364558E+04  0.80721110243E+02 0.  0.
        254    2    1    2    0    0 -0.34000151992E+03 -0.32738319299E+03 -0.43782457013E+03  0.11068763084E+04  0.90039103684E+03 0.  0.
         23    2    4    4    0    0  0.57889674658E+02  0.25030185244E+03  0.44683167490E+01  0.27268107799E+03  0.91284021998E+02 0.  0.
         23    2    4    4    0    0 -0.39789119458E+03 -0.57768504543E+03 -0.44229288688E+03  0.83419523038E+03  0.90671220150E+02 0.  0.
          4    1    3    3  502    0  0.13037228595E+03  0.15337751582E+03 -0.32559894128E+03  0.38280055625E+03  0.00000000000E+00 0. -1.
         -3    1    3    3    0  502  0.20962923397E+03  0.17400567717E+03 -0.61630546659E+03  0.67383589959E+03  0.00000000000E+00 0.  1.
         11    1    5    5    0    0 -0.11673519703E+02  0.11005890650E+03  0.28532154605E+02  0.11429487219E+03  0.00000000000E+00 0.  1.
        -11    1    5    5    0    0  0.69563194362E+02  0.14024294594E+03 -0.24063837856E+02  0.15838620580E+03  0.00000000000E+00 0. -1.
          4    1    6    6  503    0 -0.28384312861E+03 -0.39044315912E+03 -0.25545180087E+03  0.54613954694E+03  0.00000000000E+00 0. -1.
         -4    1    6    6    0  503 -0.11404806598E+03 -0.18724188631E+03 -0.18684108601E+03  0.28805568344E+03  0.00000000000E+00 0.  1.
<mgrwt>
<rscale>  0 0.16664740E+04</rscale>
<asrwt>0</asrwt>
<pdfrwt beam="1">  1        2 0.27255707E+00 0.16664740E+04</pdfrwt>
<pdfrwt beam="2">  1       -1 0.60291059E-01 0.16664740E+04</pdfrwt>
<totfact> 0.27125402E+01</totfact>
</mgrwt>
</event>
<event>
12    6  0.9533401E-008  0.2012682E+04  0.7818608E-02  0.8600714E-01
          2   -1    0    0  501    0  0.00000000000E+00  0.00000000000E+00  0.16041721984E+04  0.16041721984E+04  0.00000000000E+00 0. -1.
         -1   -1    0    0    0  501 -0.00000000000E+00 -0.00000000000E+00 -0.63130529198E+03  0.63130529198E+03  0.00000000000E+00 0.  1.
         24    2    1    2    0    0 -0.31694610851E+03 -0.30022822094E+03  0.11365027415E+04  0.12201081464E+04  0.80209645504E+02 0.  0.
        254    2    1    2    0    0  0.31694610851E+03  0.30022822094E+03 -0.16363583501E+03  0.10153693440E+04  0.90200132921E+03 0.  0.
         23    2    4    4    0    0  0.51647504830E+03 -0.77207995790E+02 -0.22041275706E+03  0.57389973999E+03  0.89841960965E+02 0.  0.
         23    2    4    4    0    0 -0.19952893979E+03  0.37743621673E+03  0.56776922050E+02  0.44146960402E+03  0.96963379078E+02 0.  0.
          4    1    3    3  502    0 -0.28125849508E+03 -0.22434095154E+03  0.90542046938E+03  0.97427995462E+03  0.00000000000E+00 0. -1.
         -3    1    3    3    0  502 -0.35687613429E+02 -0.75887269401E+02  0.23108227209E+03  0.24582819180E+03  0.00000000000E+00 0.  1.
         11    1    5    5    0    0  0.42501794610E+03 -0.42911893694E+02 -0.20897984696E+03  0.47555679110E+03  0.00000000000E+00 0. -1.
        -11    1    5    5    0    0  0.91457102200E+02 -0.34296102095E+02 -0.11432910101E+02  0.98342948883E+02  0.00000000000E+00 0.  1.
          3    1    6    6  503    0 -0.19452481008E+03  0.33844878796E+03  0.76025168768E+02  0.39770253972E+03  0.00000000000E+00 0. -1.
         -3    1    6    6    0  503 -0.50041297100E+01  0.38987428767E+02 -0.19248246718E+02  0.43767064303E+02  0.00000000000E+00 0.  1.
<mgrwt>
<rscale>  0 0.20126822E+04</rscale>
<asrwt>0</asrwt>
<pdfrwt beam="1">  1        2 0.24679572E+00 0.20126822E+04</pdfrwt>
<pdfrwt beam="2">  1       -1 0.97123892E-01 0.20126822E+04</pdfrwt>
<totfact> 0.11945228E+01</totfact>
</mgrwt>
</event>
<event>
12    6  0.9533401E-008  0.1767375E+04  0.7818608E-02  0.8723844E-01
          2   -1    0    0  501    0  0.00000000000E+00  0.00000000000E+00  0.18652044221E+04  0.18652044221E+04  0.00000000000E+00 0. -1.
         -1   -1    0    0    0  501 -0.00000000000E+00 -0.00000000000E+00 -0.41866910782E+03  0.41866910782E+03  0.00000000000E+00 0.  1.
         24    2    1    2    0    0 -0.20583510558E+03 -0.10723473034E+03  0.13231083629E+04  0.13456367370E+04  0.79089252800E+02 0.  0.
        254    2    1    2    0    0  0.20583510558E+03  0.10723473034E+03  0.12342695146E+03  0.93823679300E+03  0.90065903055E+03 0.  0.
         23    2    4    4    0    0  0.29421386626E+03 -0.34150850516E+03  0.18385018896E+02  0.46008810341E+03  0.90295048483E+02 0.  0.
         23    2    4    4    0    0 -0.88378760684E+02  0.44874323550E+03  0.10504193257E+03  0.47814868959E+03  0.91711858609E+02 0.  0.
          4    1    3    3  502    0 -0.18526737311E+03 -0.11691491997E+03  0.12507790755E+04  0.12698194335E+04  0.00000000000E+00 0. -1.
         -3    1    3    3    0  502 -0.20567732466E+02  0.96801896304E+01  0.72329287355E+02  0.75817303429E+02  0.00000000000E+00 0.  1.
         11    1    5    5    0    0  0.29179115399E+03 -0.30678836476E+03  0.69375573754E+01  0.42344929803E+03  0.00000000000E+00 0. -1.
        -11    1    5    5    0    0  0.24227122662E+01 -0.34720140397E+02  0.11447461520E+02  0.36638805373E+02  0.00000000000E+00 0.  1.
          4    1    6    6  503    0 -0.92445783865E+02  0.25707335266E+03  0.42399643901E+02  0.27646095819E+03  0.00000000000E+00 0. -1.
         -4    1    6    6    0  503  0.40670231811E+01  0.19166988284E+03  0.62642288665E+02  0.20168773140E+03  0.00000000000E+00 0.  1.
<mgrwt>
<rscale>  0 0.17673749E+04</rscale>
<asrwt>0</asrwt>
<pdfrwt beam="1">  1        2 0.28695452E+00 0.17673749E+04</pdfrwt>
<pdfrwt beam="2">  1       -1 0.64410633E-01 0.17673749E+04</pdfrwt>
<totfact> 0.20917696E+01</totfact>
</mgrwt>
</event>
<event>
12    6  0.9533401E-008  0.1556651E+04  0.7818608E-02  0.8847631E-01
          2   -1    0    0  501    0  0.00000000000E+00  0.00000000000E+00  0.76257307523E+03  0.76257307523E+03  0.00000000000E+00 0. -1.
         -1   -1    0    0    0  501 -0.00000000000E+00 -0.00000000000E+00 -0.79440308955E+03  0.79440308955E+03  0.00000000000E+00 0.  1.
         24    2    1    2    0    0 -0.35984945840E+03 -0.13034305021E+03  0.32513532255E+03  0.50847612454E+03  0.79712281387E+02 0.  0.
        254    2    1    2    0    0  0.35984945840E+03  0.13034305021E+03 -0.35696533687E+03  0.10485000402E+04  0.90854121492E+03 0.  0.
         23    2    4    4    0    0  0.31612392926E+03 -0.25368991080E+03  0.11538082258E+03  0.43107056998E+03  0.90643215903E+02 0.  0.
         23    2    4    4    0    0  0.43725529135E+02  0.38403296101E+03 -0.47234615945E+03  0.61742947026E+03  0.93354268054E+02 0.  0.
          4    1    3    3  502    0 -0.32037649127E+03 -0.10434963998E+03  0.24939424197E+03  0.41919855850E+03  0.00000000000E+00 0. -1.
         -3    1    3    3    0  502 -0.39472967130E+02 -0.25993410234E+02  0.75741080579E+02  0.89277566033E+02  0.00000000000E+00 0.  1.
         11    1    5    5    0    0  0.15345648389E+03 -0.67570684750E+02  0.36475674364E+02  0.17159593441E+03  0.00000000000E+00 0.  1.
        -11    1    5    5    0    0  0.16266744537E+03 -0.18611922605E+03  0.78905148211E+02  0.25947463557E+03  0.00000000000E+00 0. -1.
          4    1    6    6  503    0  0.60047850028E+02  0.31159438216E+03 -0.42079463262E+03  0.52703408441E+03  0.00000000000E+00 0. -1.
         -4    1    6    6    0  503 -0.16322320894E+02  0.72438578857E+02 -0.51551526826E+02  0.90395385857E+02  0.00000000000E+00 0.  1.
<mgrwt>
<rscale>  0 0.15566508E+04</rscale>
<asrwt>0</asrwt>
<pdfrwt beam="1">  1        2 0.11731894E+00 0.15566508E+04</pdfrwt>
<pdfrwt beam="2">  1       -1 0.12221586E+00 0.15566508E+04</pdfrwt>
<totfact> 0.23863473E+01</totfact>
</mgrwt>
</event>
<event>
12    6  0.9533401E-008  0.2439854E+04  0.7818608E-02  0.8424732E-01
          2   -1    0    0  501    0  0.00000000000E+00  0.00000000000E+00  0.16895559506E+04  0.16895559506E+04  0.00000000000E+00 0. -1.
         -1   -1    0    0    0  501 -0.00000000000E+00 -0.00000000000E+00 -0.88083575611E+03  0.88083575611E+03  0.00000000000E+00 0.  1.
         24    2    1    2    0    0 -0.93137897347E+03  0.40179069415E+03  0.64689568705E+03  0.12057316210E+04  0.80075950253E+02 0.  0.
        254    2    1    2    0    0  0.93137897347E+03 -0.40179069415E+03  0.16182450742E+03  0.13646600857E+04  0.89844722951E+03 0.  0.
         23    2    4    4    0    0  0.75905454510E+03  0.50304096462E+02 -0.15143055734E+03  0.78042294218E+03  0.86223259174E+02 0.  0.
         23    2    4    4    0    0  0.17232442836E+03 -0.45209479061E+03  0.31325506477E+03  0.58423714353E+03  0.95492910592E+02 0.  0.
          2    1    3    3  502    0 -0.49200772721E+03  0.23651556154E+03  0.30844956883E+03  0.62701862093E+03  0.00000000000E+00 0. -1.
         -1    1    3    3    0  502 -0.43937124625E+03  0.16527513261E+03  0.33844611823E+03  0.57871300006E+03  0.00000000000E+00 0.  1.
         11    1    5    5    0    0  0.44416538758E+03  0.42513479206E+02 -0.12981873106E+03  0.46469688010E+03  0.00000000000E+00 0.  1.
        -11    1    5    5    0    0  0.31488915752E+03  0.77906172560E+01 -0.21611826278E+02  0.31572606208E+03  0.00000000000E+00 0. -1.
          3    1    6    6  503    0  0.18764147403E+02 -0.12046577327E+03  0.41401937801E+02  0.12875642201E+03  0.00000000000E+00 0. -1.
         -3    1    6    6    0  503  0.15356028096E+03 -0.33162901734E+03  0.27185312697E+03  0.45548072152E+03  0.00000000000E+00 0.  1.
<mgrwt>
<rscale>  0 0.24398535E+04</rscale>
<asrwt>0</asrwt>
<pdfrwt beam="1">  1        2 0.25993168E+00 0.24398535E+04</pdfrwt>
<pdfrwt beam="2">  1       -1 0.13551319E+00 0.24398535E+04</pdfrwt>
<totfact> 0.46270283E+00</totfact>
</mgrwt>
</event>
<event>
12    6  0.9533401E-008  0.1968286E+04  0.7818608E-02  0.8621593E-01
         -1   -1    0    0    0  501 -0.00000000000E+00  0.00000000000E+00  0.11090621961E+04  0.11090621961E+04  0.00000000000E+00 0.  1.
          2   -1    0    0  501    0  0.00000000000E+00 -0.00000000000E+00 -0.87329379636E+03  0.87329379636E+03  0.00000000000E+00 0. -1.
         24    2    1    2    0    0  0.33729122640E+03 -0.31186379204E+03  0.72324650408E+03  0.86063217976E+03  0.81103927018E+02 0.  0.
        254    2    1    2    0    0 -0.33729122640E+03  0.31186379204E+03 -0.48747810429E+03  0.11217238128E+04  0.89978053643E+03 0.  0.
         23    2    4    4    0    0 -0.19847274088E+03 -0.14361957899E+03  0.16416063544E+03  0.30914106056E+03  0.92744103632E+02 0.  0.
         23    2    4    4    0    0 -0.13881848552E+03  0.45548337103E+03 -0.65163873973E+03  0.81258275219E+03  0.94456385879E+02 0.  0.
          2    1    3    3  502    0  0.10150805841E+03 -0.49006973981E+02  0.19496481628E+03  0.22520401641E+03  0.00000000000E+00 0. -1.
         -3    1    3    3    0  502  0.23578316799E+03 -0.26285681806E+03  0.52828168780E+03  0.63542816335E+03  0.00000000000E+00 0.  1.
         11    1    5    5    0    0 -0.12893123282E+02  0.10557989163E+02 -0.10993582490E+01  0.16700669199E+02  0.00000000000E+00 0. -1.
        -11    1    5    5    0    0 -0.18557961759E+03 -0.15417756815E+03  0.16525999369E+03  0.29244039136E+03  0.00000000000E+00 0.  1.
          1    1    6    6  503    0 -0.12524823976E+03  0.44293631011E+03 -0.59050359244E+03  0.74871502527E+03  0.00000000000E+00 0.  1.
         -1    1    6    6    0  503 -0.13570245760E+02  0.12547060914E+02 -0.61135147295E+02  0.63867726924E+02  0.00000000000E+00 0. -1.
<mgrwt>
<rscale>  0 0.19682857E+04</rscale>
<asrwt>0</asrwt>
<pdfrwt beam="1">  1        2 0.13435289E+00 0.19682857E+04</pdfrwt>
<pdfrwt beam="2">  1       -1 0.17062495E+00 0.19682857E+04</pdfrwt>
<totfact> 0.79131568E+00</totfact>
</mgrwt>
</event>
<event>
12    6  0.9533401E-008  0.3030534E+04  0.7818608E-02  0.8235065E-01
          2   -1    0    0  501    0  0.00000000000E+00  0.00000000000E+00  0.12405155570E+04  0.12405155570E+04  0.00000000000E+00 0. -1.
         -1   -1    0    0    0  501 -0.00000000000E+00 -0.00000000000E+00 -0.18508703739E+04  0.18508703739E+04  0.00000000000E+00 0.  1.
         24    2    1    2    0    0 -0.11153896124E+04 -0.50445760656E+03  0.36750928219E+03  0.12806211432E+04  0.79724373216E+02 0.  0.
        254    2    1    2    0    0  0.11153896124E+04  0.50445760656E+03 -0.97786409904E+03  0.18107647877E+04  0.90778822206E+03 0.  0.
         23    2    4    4    0    0  0.95871527683E+03  0.74841024703E+03 -0.79635345979E+03  0.14567090522E+04  0.92571863873E+02 0.  0.
         23    2    4    4    0    0  0.15667433552E+03 -0.24395264047E+03 -0.18151063925E+03  0.35405573551E+03  0.91376219473E+02 0.  0.
          2    1    3    3  502    0 -0.10210916653E+04 -0.46108072676E+03  0.31242261239E+03  0.11631128553E+04  0.00000000000E+00 0. -1.
         -1    1    3    3    0  502 -0.94297947092E+02 -0.43376879794E+02  0.55086669796E+02  0.11750828786E+03  0.00000000000E+00 0.  1.
         11    1    5    5    0    0  0.93531947910E+03  0.73492481251E+03 -0.76056947867E+03  0.14118792228E+04  0.00000000000E+00 0. -1.
        -11    1    5    5    0    0  0.23395797733E+02  0.13485434516E+02 -0.35783981122E+02  0.44829829361E+02  0.00000000000E+00 0.  1.
          4    1    6    6  503    0 -0.78108986015E+01 -0.42022199273E+02 -0.34905226529E+02  0.55183785732E+02  0.00000000000E+00 0.  1.
         -4    1    6    6    0  503  0.16448523412E+03 -0.20193044120E+03 -0.14660541272E+03  0.29887194978E+03  0.00000000000E+00 0. -1.
<mgrwt>
<rscale>  0 0.30305336E+04</rscale>
<asrwt>0</asrwt>
<pdfrwt beam="1">  1        2 0.19084855E+00 0.30305336E+04</pdfrwt>
<pdfrwt beam="2">  1       -1 0.28474929E+00 0.30305336E+04</pdfrwt>
<totfact> 0.72260978E-01</totfact>
</mgrwt>
</event>
<event>
12    6  0.9533401E-008  0.1930902E+04  0.7818608E-02  0.8639626E-01
          2   -1    0    0  501    0  0.00000000000E+00  0.00000000000E+00  0.93126303932E+03  0.93126303932E+03  0.00000000000E+00 0. -1.
         -1   -1    0    0    0  501 -0.00000000000E+00 -0.00000000000E+00 -0.10008939569E+04  0.10008939569E+04  0.00000000000E+00 0.  1.
         24    2    1    2    0    0 -0.48497894387E+03 -0.56687634902E+03 -0.13547842007E+03  0.76240228496E+03  0.79683566306E+02 0.  0.
        254    2    1    2    0    0  0.48497894387E+03  0.56687634902E+03  0.65847502453E+02  0.11697547113E+04  0.89857488276E+03 0.  0.
         23    2    4    4    0    0 -0.11524934135E+03  0.34242464621E+03  0.30304068388E+03  0.48040917219E+03  0.91772913354E+02 0.  0.
         23    2    4    4    0    0  0.60022828522E+03  0.22445170281E+03 -0.23719318142E+03  0.68934553910E+03  0.91017062627E+02 0.  0.
          4    1    3    3  502    0 -0.11376087771E+03 -0.10661070462E+03 -0.62218810914E+00  0.15590948257E+03  0.00000000000E+00 0. -1.
         -3    1    3    3    0  502 -0.37121806616E+03 -0.46026564441E+03 -0.13485623196E+03  0.60649280240E+03  0.00000000000E+00 0.  1.
         11    1    5    5    0    0 -0.12683652321E+03  0.25996468179E+03  0.24246686809E+03  0.37743783795E+03  0.00000000000E+00 0.  1.
        -11    1    5    5    0    0  0.11587181856E+02  0.82459964419E+02  0.60573815791E+02  0.10297133424E+03  0.00000000000E+00 0. -1.
          4    1    6    6  503    0  0.40282675604E+03  0.11774119106E+03 -0.18670550707E+03  0.45933792552E+03  0.00000000000E+00 0. -1.
         -4    1    6    6    0  503  0.19740152917E+03  0.10671051176E+03 -0.50487674356E+02  0.23000761357E+03  0.00000000000E+00 0.  1.
<mgrwt>
<rscale>  0 0.19309019E+04</rscale>
<asrwt>0</asrwt>
<pdfrwt beam="1">  1        2 0.14327124E+00 0.19309019E+04</pdfrwt>
<pdfrwt beam="2">  1       -1 0.15398369E+00 0.19309019E+04</pdfrwt>
<totfact> 0.96765181E+00</totfact>
</mgrwt>
</event>
<event>
12    6  0.9533401E-008  0.2081360E+04  0.7818608E-02  0.8569499E-01
         -1   -1    0    0    0  501 -0.00000000000E+00  0.00000000000E+00  0.66677967509E+03  0.66677967509E+03  0.00000000000E+00 0.  1.
          2   -1    0    0  501    0  0.00000000000E+00 -0.00000000000E+00 -0.16242466748E+04  0.16242466748E+04  0.00000000000E+00 0. -1.
         24    2    1    2    0    0  0.60582435242E+03 -0.31038818333E+03  0.15325210671E+03  0.70226953794E+03  0.79575909516E+02 0.  0.
        254    2    1    2    0    0 -0.60582435242E+03  0.31038818333E+03 -0.11107191065E+04  0.15887568120E+04  0.90944340333E+03 0.  0.
         23    2    4    4    0    0 -0.60430533319E+03  0.55715406965E+03 -0.10133877311E+04  0.13079425989E+04  0.90297040045E+02 0.  0.
         23    2    4    4    0    0 -0.15190192289E+01 -0.24676588632E+03 -0.97331375386E+02  0.28081421311E+03  0.92127713398E+02 0.  0.
          4    1    3    3  502    0  0.48985103399E+03 -0.25234416133E+03  0.15554743590E+03  0.57256145179E+03  0.00000000000E+00 0. -1.
         -3    1    3    3    0  502  0.11597331842E+03 -0.58044021995E+02 -0.22953291947E+01  0.12970808615E+03  0.00000000000E+00 0.  1.
         11    1    5    5    0    0 -0.30013814069E+03  0.28316615717E+03 -0.57969747523E+03  0.71155824698E+03  0.00000000000E+00 0. -1.
        -11    1    5    5    0    0 -0.30416719250E+03  0.27398791248E+03 -0.43369025584E+03  0.59638435190E+03  0.00000000000E+00 0.  1.
          1    1    6    6  503    0  0.56317882026E+01 -0.11263959629E+03  0.35433114293E+01  0.11283594617E+03  0.00000000000E+00 0. -1.
         -1    1    6    6    0  503 -0.71508074314E+01 -0.13412629003E+03 -0.10087468681E+03  0.16797826694E+03  0.00000000000E+00 0.  1.
<mgrwt>
<rscale>  0 0.20813598E+04</rscale>
<asrwt>0</asrwt>
<pdfrwt beam="1">  1        2 0.24988410E+00 0.20813598E+04</pdfrwt>
<pdfrwt beam="2">  1       -1 0.10258149E+00 0.20813598E+04</pdfrwt>
<totfact> 0.10212393E+01</totfact>
</mgrwt>
</event>
<event>
12    6  0.9533401E-008  0.1756169E+04  0.7818608E-02  0.8729962E-01
         -1   -1    0    0    0  501 -0.00000000000E+00  0.00000000000E+00  0.15217475555E+04  0.15217475555E+04  0.00000000000E+00 0.  1.
          2   -1    0    0  501    0  0.00000000000E+00 -0.00000000000E+00 -0.50667537876E+03  0.50667537876E+03  0.00000000000E+00 0. -1.
         24    2    1    2    0    0 -0.69143474816E+02 -0.58952728185E+03  0.87185762750E+02  0.60779909120E+03  0.97443018617E+02 0.  0.
        254    2    1    2    0    0  0.69143474816E+02  0.58952728185E+03  0.92788641400E+03  0.14206238431E+04  0.89714863320E+03 0.  0.
         23    2    4    4    0    0 -0.33829698311E+03  0.47189083182E+03  0.74512024327E+03  0.94955769938E+03  0.96591105111E+02 0.  0.
         23    2    4    4    0    0  0.40744045792E+03  0.11763645003E+03  0.18276617073E+03  0.47106614369E+03  0.93025681588E+02 0.  0.
          4    1    3    3  502    0 -0.37905511381E+02 -0.31040224991E+03  0.95008556470E+02  0.32682259767E+03  0.00000000000E+00 0. -1.
         -3    1    3    3    0  502 -0.31237963436E+02 -0.27912503194E+03 -0.78227937206E+01  0.28097649353E+03  0.00000000000E+00 0.  1.
         11    1    5    5    0    0 -0.25195135284E+03  0.27340378413E+03  0.48679737555E+03  0.61253636482E+03  0.00000000000E+00 0.  1.
        -11    1    5    5    0    0 -0.86345630266E+02  0.19848704769E+03  0.25832286771E+03  0.33702133456E+03  0.00000000000E+00 0. -1.
          3    1    6    6  503    0  0.12619694033E+03  0.15514176253E+02  0.14990988530E+02  0.12802768119E+03  0.00000000000E+00 0. -1.
         -3    1    6    6    0  503  0.28124351759E+03  0.10212227378E+03  0.16777518220E+03  0.34303846250E+03  0.00000000000E+00 0.  1.
<mgrwt>
<rscale>  0 0.17561686E+04</rscale>
<asrwt>0</asrwt>
<pdfrwt beam="1">  1        2 0.77950059E-01 0.17561686E+04</pdfrwt>
<pdfrwt beam="2">  1       -1 0.23411501E+00 0.17561686E+04</pdfrwt>
<totfact> 0.58193186E+00</totfact>
</mgrwt>
</event>
<event>
12    6  0.1017828E-007  0.1930377E+04  0.7818608E-02  0.8639882E-01
          2   -1    0    0  501    0  0.00000000000E+00  0.00000000000E+00  0.17338593734E+04  0.17338593734E+04  0.00000000000E+00 0. -1.
         -1   -1    0    0    0  501 -0.00000000000E+00 -0.00000000000E+00 -0.53729195374E+03  0.53729195374E+03  0.00000000000E+00 0.  1.
         24    2    1    2    0    0 -0.48187709185E+03  0.29720208570E+03 -0.11180765264E+03  0.58195640382E+03  0.75084574745E+02 0.  0.
        254    2    1    2    0    0  0.48187709185E+03 -0.29720208570E+03  0.13083750723E+04  0.16891949233E+04  0.90609025363E+03 0.  0.
         23    2    4    4    0    0  0.36595282020E+03 -0.25353835346E+03  0.14251625165E+04  0.14962206744E+04  0.96875924445E+02 0.  0.
         23    2    4    4    0    0  0.11592427165E+03 -0.43663732242E+02 -0.11678744421E+03  0.19297424891E+03  0.90855904291E+02 0.  0.
          4    1    3    3  502    0 -0.15710866134E+03  0.76314497762E+02 -0.65194057821E+02  0.18643309580E+03  0.00000000000E+00 0. -1.
         -3    1    3    3    0  502 -0.32476843051E+03  0.22088758794E+03 -0.46613594824E+02  0.39552330802E+03  0.00000000000E+00 0.  1.
         11    1    5    5    0    0  0.25965340245E+03 -0.20828668536E+03  0.93055268789E+03  0.98829729213E+03  0.00000000000E+00 0. -1.
        -11    1    5    5    0    0  0.10629941775E+03 -0.45251668104E+02  0.49460982864E+03  0.50792338228E+03  0.00000000000E+00 0.  1.
          1    1    6    6  503    0  0.59510206956E+02  0.43898688139E+01 -0.10083856753E+03  0.11717146573E+03  0.00000000000E+00 0. -1.
         -1    1    6    6    0  503  0.56414064691E+02 -0.48053601056E+02 -0.15948876684E+02  0.75802783174E+02  0.00000000000E+00 0.  1.
<mgrwt>
<rscale>  0 0.19303768E+04</rscale>
<asrwt>0</asrwt>
<pdfrwt beam="1">  1        2 0.26674759E+00 0.19303768E+04</pdfrwt>
<pdfrwt beam="2">  1       -1 0.82660301E-01 0.19303768E+04</pdfrwt>
<totfact> 0.14531448E+01</totfact>
</mgrwt>
</event>
<event>
12    6  0.9533401E-008  0.1480430E+04  0.7818608E-02  0.8897572E-01
         -1   -1    0    0    0  501 -0.00000000000E+00  0.00000000000E+00  0.50358718834E+03  0.50358718834E+03  0.00000000000E+00 0.  1.
          2   -1    0    0  501    0  0.00000000000E+00 -0.00000000000E+00 -0.10880302746E+04  0.10880302746E+04  0.00000000000E+00 0. -1.
         24    2    1    2    0    0 -0.17962791747E+03  0.86802244881E+02 -0.63176027748E+03  0.66721067483E+03  0.79045670036E+02 0.  0.
        254    2    1    2    0    0  0.17962791747E+03 -0.86802244881E+02  0.47317191232E+02  0.92440678810E+03  0.90138125943E+03 0.  0.
         23    2    4    4    0    0 -0.23363977688E+03  0.10335667075E+03  0.29326947756E+03  0.39902534226E+03  0.89129627882E+02 0.  0.
         23    2    4    4    0    0  0.41326769435E+03 -0.19015891563E+03 -0.24595228633E+03  0.52538144584E+03  0.92641978052E+02 0.  0.
          4    1    3    3  502    0 -0.13833809522E+03  0.90494755209E+02 -0.41863300539E+03  0.45008923839E+03  0.00000000000E+00 0. -1.
         -3    1    3    3    0  502 -0.41289822252E+02 -0.36925103278E+01 -0.21312727209E+03  0.21712143644E+03  0.00000000000E+00 0.  1.
         11    1    5    5    0    0 -0.17662269035E+03  0.33780926812E+02  0.20968119302E+03  0.27622984717E+03  0.00000000000E+00 0. -1.
        -11    1    5    5    0    0 -0.57017086531E+02  0.69575743937E+02  0.83588284542E+02  0.12279549509E+03  0.00000000000E+00 0.  1.
          1    1    6    6  503    0  0.36853680518E+00 -0.92845411016E+01 -0.17971458339E+02  0.20231456637E+02  0.00000000000E+00 0. -1.
         -1    1    6    6    0  503  0.41289915755E+03 -0.18087437453E+03 -0.22798082799E+03  0.50514998921E+03  0.00000000000E+00 0.  1.
<mgrwt>
<rscale>  0 0.14804298E+04</rscale>
<asrwt>0</asrwt>
<pdfrwt beam="1">  1        2 0.16738927E+00 0.14804298E+04</pdfrwt>
<pdfrwt beam="2">  1       -1 0.77474952E-01 0.14804298E+04</pdfrwt>
<totfact> 0.40848115E+01</totfact>
</mgrwt>
</event>
<event>
12    6  0.9533401E-008  0.1785394E+04  0.7818608E-02  0.8714106E-01
         -1   -1    0    0    0  501 -0.00000000000E+00  0.00000000000E+00  0.44091346982E+03  0.44091346982E+03  0.00000000000E+00 0.  1.
          2   -1    0    0  501    0  0.00000000000E+00 -0.00000000000E+00 -0.18074011427E+04  0.18074011427E+04  0.00000000000E+00 0. -1.
         24    2    1    2    0    0  0.43483704058E+02  0.97686707064E+02  0.31029638210E+03  0.33776551935E+03  0.79800852514E+02 0.  0.
        254    2    1    2    0    0 -0.43483704058E+02 -0.97686707064E+02 -0.16767840550E+04  0.19105490932E+04  0.90948311974E+03 0.  0.
         23    2    4    4    0    0  0.71372219360E+02  0.36119017112E+03 -0.42976145931E+03  0.57365136248E+03  0.93960844850E+02 0.  0.
         23    2    4    4    0    0 -0.11485592342E+03 -0.45887687818E+03 -0.12470225957E+04  0.13368977307E+04  0.92034318031E+02 0.  0.
          2    1    3    3  502    0  0.19921177512E+01  0.19294459170E+02  0.52626233651E+01  0.20098255956E+02  0.00000000000E+00 0. -1.
         -1    1    3    3    0  502  0.41491586306E+02  0.78392247894E+02  0.30503375874E+03  0.31766726340E+03  0.00000000000E+00 0.  1.
         11    1    5    5    0    0  0.90297359901E+02  0.27337518382E+03 -0.35278099649E+03  0.45534825773E+03  0.00000000000E+00 0. -1.
        -11    1    5    5    0    0 -0.18925140541E+02  0.87814987297E+02 -0.76980462814E+02  0.11830310475E+03  0.00000000000E+00 0.  1.
          3    1    6    6  503    0 -0.10483057039E+03 -0.27303575289E+03 -0.68374618137E+03  0.74367117155E+03  0.00000000000E+00 0. -1.
         -3    1    6    6    0  503 -0.10025353027E+02 -0.18584112529E+03 -0.56327641430E+03  0.59322655913E+03  0.00000000000E+00 0.  1.
<mgrwt>
<rscale>  0 0.17853935E+04</rscale>
<asrwt>0</asrwt>
<pdfrwt beam="1">  1        2 0.27806171E+00 0.17853935E+04</pdfrwt>
<pdfrwt beam="2">  1       -1 0.67832842E-01 0.17853935E+04</pdfrwt>
<totfact> 0.20248068E+01</totfact>
</mgrwt>
</event>
<event>
12    6  0.9533401E-008  0.1818822E+04  0.7818608E-02  0.8696354E-01
          2   -1    0    0  501    0  0.00000000000E+00  0.00000000000E+00  0.58596808583E+03  0.58596808583E+03  0.00000000000E+00 0. -1.
         -1   -1    0    0    0  501 -0.00000000000E+00 -0.00000000000E+00 -0.14113886754E+04  0.14113886754E+04  0.00000000000E+00 0.  1.
         24    2    1    2    0    0 -0.51090876950E+03 -0.10881307101E+03  0.17479702716E+03  0.55561555745E+03  0.72708952704E+02 0.  0.
        254    2    1    2    0    0  0.51090876950E+03  0.10881307101E+03 -0.10002176167E+04  0.14417412038E+04  0.89739309263E+03 0.  0.
         23    2    4    4    0    0  0.96723336499E+02  0.22641376651E+03  0.80611292893E+02  0.27482926598E+03  0.91729752020E+02 0.  0.
         23    2    4    4    0    0  0.41418543300E+03 -0.11760069551E+03 -0.10808289096E+04  0.11669119378E+04  0.90071317482E+02 0.  0.
          2    1    3    3  502    0 -0.16667358106E+03 -0.12999277947E+02  0.28911531606E+02  0.16966125224E+03  0.00000000000E+00 0. -1.
         -1    1    3    3    0  502 -0.34423518844E+03 -0.95813793062E+02  0.14588549555E+03  0.38595430521E+03  0.00000000000E+00 0.  1.
         11    1    5    5    0    0  0.13140627837E+02  0.33746462154E+02  0.51274611751E+02  0.62774083968E+02  0.00000000000E+00 0. -1.
        -11    1    5    5    0    0  0.83582708663E+02  0.19266730436E+03  0.29336681142E+02  0.21205518201E+03  0.00000000000E+00 0.  1.
          3    1    6    6  503    0  0.91780182192E+02  0.72980384675E+01 -0.27622953949E+03  0.29116940377E+03  0.00000000000E+00 0. -1.
         -3    1    6    6    0  503  0.32240525080E+03 -0.12489873397E+03 -0.80459937013E+03  0.87574253403E+03  0.00000000000E+00 0.  1.
<mgrwt>
<rscale>  0 0.18188224E+04</rscale>
<asrwt>0</asrwt>
<pdfrwt beam="1">  1        2 0.90148935E-01 0.18188224E+04</pdfrwt>
<pdfrwt beam="2">  1       -1 0.21713672E+00 0.18188224E+04</pdfrwt>
<totfact> 0.63205952E+00</totfact>
</mgrwt>
</event>
<event>
12    6  0.9533401E-008  0.1757564E+04  0.7818608E-02  0.8729198E-01
         -1   -1    0    0    0  501 -0.00000000000E+00  0.00000000000E+00  0.16293411503E+04  0.16293411503E+04  0.00000000000E+00 0.  1.
          2   -1    0    0  501    0  0.00000000000E+00 -0.00000000000E+00 -0.47396942162E+03  0.47396942162E+03  0.00000000000E+00 0. -1.
         24    2    1    2    0    0  0.17309819457E+03 -0.18271106709E+03  0.12221245226E+04  0.12504539378E+04  0.81855867160E+02 0.  0.
        254    2    1    2    0    0 -0.17309819457E+03  0.18271106709E+03 -0.66752793921E+02  0.85285663406E+03  0.81213433849E+03 0.  0.
         23    2    4    4    0    0 -0.45860437919E+03  0.20236094919E+02 -0.16424138272E+03  0.49583013797E+03  0.90248644189E+02 0.  0.
         23    2    4    4    0    0  0.28550618462E+03  0.16247497217E+03  0.97488588799E+02  0.35702649608E+03  0.10025964254E+03 0.  0.
          4    1    3    3  502    0  0.11452497184E+03 -0.79209187876E+02  0.79402352577E+03  0.80614106960E+03  0.00000000000E+00 0. -1.
         -3    1    3    3    0  502  0.58573222726E+02 -0.10350187921E+03  0.42810099679E+03  0.44431286823E+03  0.00000000000E+00 0.  1.
         11    1    5    5    0    0 -0.38961988660E+03  0.49329311374E+02 -0.13207013880E+03  0.41434232050E+03  0.00000000000E+00 0. -1.
        -11    1    5    5    0    0 -0.68984492586E+02 -0.29093216456E+02 -0.32171243918E+02  0.81487817472E+02  0.00000000000E+00 0.  1.
          1    1    6    6  503    0  0.13795440052E+03  0.22617473492E+02  0.31702873615E+02  0.14334587167E+03  0.00000000000E+00 0. -1.
         -1    1    6    6    0  503  0.14755178410E+03  0.13985749867E+03  0.65785715184E+02  0.21368062441E+03  0.00000000000E+00 0.  1.
<mgrwt>
<rscale>  0 0.17575641E+04</rscale>
<asrwt>0</asrwt>
<pdfrwt beam="1">  1        2 0.72918374E-01 0.17575641E+04</pdfrwt>
<pdfrwt beam="2">  1       -1 0.25066787E+00 0.17575641E+04</pdfrwt>
<totfact> 0.48970893E+00</totfact>
</mgrwt>
</event>
<event>
12    6  0.9533401E-008  0.2818780E+04  0.7818608E-02  0.8297462E-01
          2   -1    0    0  501    0  0.00000000000E+00  0.00000000000E+00  0.14783547748E+04  0.14783547748E+04  0.00000000000E+00 0. -1.
         -3   -1    0    0    0  501 -0.00000000000E+00 -0.00000000000E+00 -0.13436424997E+04  0.13436424997E+04  0.00000000000E+00 0.  1.
         24    2    1    2    0    0  0.13586878905E+03 -0.12563102601E+04  0.30479442009E+02  0.12677036624E+04  0.96787301040E+02 0.  0.
        254    2    1    2    0    0 -0.13586878905E+03  0.12563102601E+04  0.10423283310E+03  0.15542936122E+04  0.89899296548E+03 0.  0.
         23    2    4    4    0    0  0.49964959046E+02 -0.11935963877E+03  0.16448821958E+02  0.15989602852E+03  0.92482191223E+02 0.  0.
         23    2    4    4    0    0 -0.18583374810E+03  0.13756698989E+04  0.87784011138E+02  0.13943975837E+04  0.98166879292E+02 0.  0.
          2    1    3    3  502    0  0.26827695042E+02 -0.88059865302E+02 -0.16091719152E+02  0.93451637351E+02  0.00000000000E+00 0. -1.
         -1    1    3    3    0  502  0.10904109401E+03 -0.11682503948E+04  0.46571161161E+02  0.11742520250E+04  0.00000000000E+00 0.  1.
         11    1    5    5    0    0  0.29428434711E+02 -0.18995321433E+02 -0.31205280631E+02  0.46910814800E+02  0.00000000000E+00 0.  1.
        -11    1    5    5    0    0  0.20536524335E+02 -0.10036431733E+03  0.47654102589E+02  0.11298521372E+03  0.00000000000E+00 0. -1.
          3    1    6    6  503    0 -0.89044710163E+02  0.99011294661E+03  0.63905187612E+02  0.99616087077E+03  0.00000000000E+00 0. -1.
         -3    1    6    6    0  503 -0.96789037934E+02  0.38555695227E+03  0.23878823526E+02  0.39823671293E+03  0.00000000000E+00 0.  1.
<mgrwt>
<rscale>  0 0.28187801E+04</rscale>
<asrwt>0</asrwt>
<pdfrwt beam="1">  1        2 0.22743920E+00 0.28187801E+04</pdfrwt>
<pdfrwt beam="2">  1       -3 0.20671423E+00 0.28187801E+04</pdfrwt>
<totfact> 0.95112945E-01</totfact>
</mgrwt>
</event>
<event>
12    6  0.9533401E-008  0.1265398E+04  0.7818608E-02  0.9057464E-01
          2   -1    0    0  501    0  0.00000000000E+00  0.00000000000E+00  0.11315502388E+04  0.11315502388E+04  0.00000000000E+00 0. -1.
         -1   -1    0    0    0  501 -0.00000000000E+00 -0.00000000000E+00 -0.35376971841E+03  0.35376971841E+03  0.00000000000E+00 0.  1.
         24    2    1    2    0    0  0.60358447823E+02 -0.40889796068E+02  0.55552656008E+03  0.56507852592E+03  0.73408881285E+02 0.  0.
        254    2    1    2    0    0 -0.60358447823E+02  0.40889796068E+02  0.22225396035E+03  0.92024143134E+03  0.89001817477E+03 0.  0.
         23    2    4    4    0    0  0.86490128453E+02  0.27706376582E+03  0.45249450112E+03  0.54609483027E+03  0.96038624786E+02 0.  0.
         23    2    4    4    0    0 -0.14684857628E+03 -0.23617396975E+03 -0.23024054077E+03  0.37414660107E+03  0.98144404509E+02 0.  0.
          2    1    3    3  502    0 -0.99828729501E-01 -0.42200403771E+02  0.19484374541E+03  0.19936140341E+03  0.00000000000E+00 0. -1.
         -1    1    3    3    0  502  0.60458276552E+02  0.13106077028E+01  0.36068281467E+03  0.36571712250E+03  0.00000000000E+00 0.  1.
         11    1    5    5    0    0  0.43560890532E+02  0.28406115112E+02  0.59054240589E+02  0.78688384729E+02  0.00000000000E+00 0. -1.
        -11    1    5    5    0    0  0.42929237921E+02  0.24865765071E+03  0.39344026053E+03  0.46740644554E+03  0.00000000000E+00 0.  1.
          3    1    6    6  503    0 -0.32121825581E+02 -0.35702034123E+02 -0.95099485705E+02  0.10653806409E+03  0.00000000000E+00 0. -1.
         -3    1    6    6    0  503 -0.11472675069E+03 -0.20047193563E+03 -0.13514105507E+03  0.26760853698E+03  0.00000000000E+00 0.  1.
<mgrwt>
<rscale>  0 0.12653983E+04</rscale>
<asrwt>0</asrwt>
<pdfrwt beam="1">  1        2 0.17408465E+00 0.12653983E+04</pdfrwt>
<pdfrwt beam="2">  1       -1 0.54426111E-01 0.12653983E+04</pdfrwt>
<totfact> 0.79578859E+01</totfact>
</mgrwt>
</event>
<event>
12    6  0.9533401E-008  0.1622262E+04  0.7818608E-02  0.8806987E-01
          2   -1    0    0  501    0  0.00000000000E+00  0.00000000000E+00  0.16727616001E+04  0.16727616001E+04  0.00000000000E+00 0. -1.
         -1   -1    0    0    0  501 -0.00000000000E+00 -0.00000000000E+00 -0.39332184383E+03  0.39332184383E+03  0.00000000000E+00 0.  1.
         24    2    1    2    0    0  0.13312525894E+03 -0.23108898846E+03 -0.17913054330E+03  0.33095061374E+03  0.79473907889E+02 0.  0.
        254    2    1    2    0    0 -0.13312525894E+03  0.23108898846E+03  0.14585702996E+04  0.17351328302E+04  0.90118486700E+03 0.  0.
         23    2    4    4    0    0  0.20384039084E+03  0.37052923360E+03  0.12089526511E+04  0.12839829809E+04  0.90570220275E+02 0.  0.
         23    2    4    4    0    0 -0.33696564977E+03 -0.13944024514E+03  0.24961764850E+03  0.45114984931E+03  0.90762244349E+02 0.  0.
          4    1    3    3  502    0  0.43817021630E+02 -0.18941636146E+02 -0.24513682620E+02  0.53662254891E+02  0.00000000000E+00 0. -1.
         -3    1    3    3    0  502  0.89308237308E+02 -0.21214735231E+03 -0.15461686068E+03  0.27728835884E+03  0.00000000000E+00 0.  1.
         11    1    5    5    0    0  0.14868658688E+03  0.17718335740E+03  0.63133794740E+03  0.67237582280E+03  0.00000000000E+00 0.  1.
        -11    1    5    5    0    0  0.55153803958E+02  0.19334587619E+03  0.57761470368E+03  0.61160715810E+03  0.00000000000E+00 0. -1.
          4    1    6    6  503    0 -0.22321276952E+03 -0.10330934862E+03  0.11585670940E+03  0.27188147988E+03  0.00000000000E+00 0. -1.
         -4    1    6    6    0  503 -0.11375288026E+03 -0.36130896513E+02  0.13376093910E+03  0.17926836943E+03  0.00000000000E+00 0.  1.
<mgrwt>
<rscale>  0 0.16222622E+04</rscale>
<asrwt>0</asrwt>
<pdfrwt beam="1">  1        2 0.25734794E+00 0.16222622E+04</pdfrwt>
<pdfrwt beam="2">  1       -1 0.60511054E-01 0.16222622E+04</pdfrwt>
<totfact> 0.30672833E+01</totfact>
</mgrwt>
</event>
<event>
12    6  0.9533401E-008  0.1403449E+04  0.7818608E-02  0.8951326E-01
         -1   -1    0    0    0  501 -0.00000000000E+00  0.00000000000E+00  0.17584179401E+03  0.17584179401E+03  0.00000000000E+00 0.  1.
          2   -1    0    0  501    0  0.00000000000E+00 -0.00000000000E+00 -0.28003409417E+04  0.28003409417E+04  0.00000000000E+00 0. -1.
         24    2    1    2    0    0 -0.31930324093E+03  0.11444749666E+03 -0.30216750017E+03  0.45990368682E+03  0.71787281854E+02 0.  0.
        254    2    1    2    0    0  0.31930324093E+03 -0.11444749666E+03 -0.23223316475E+04  0.25162790489E+04  0.90740464054E+03 0.  0.
         23    2    4    4    0    0 -0.61973199626E+02 -0.25237566344E+03 -0.16989086277E+03  0.32371844040E+03  0.91632802170E+02 0.  0.
         23    2    4    4    0    0  0.38127644055E+03  0.13792816678E+03 -0.21524407848E+04  0.21925606085E+04  0.99623223886E+02 0.  0.
          2    1    3    3  502    0 -0.97408656276E+02  0.47990856099E+02 -0.57079262666E+02  0.12267685525E+03  0.00000000000E+00 0. -1.
         -1    1    3    3    0  502 -0.22189458465E+03  0.66456640560E+02 -0.24508823751E+03  0.33722683158E+03  0.00000000000E+00 0.  1.
         11    1    5    5    0    0  0.52073662020E+01 -0.19876420997E+02 -0.49125802104E+02  0.53249724946E+02  0.00000000000E+00 0.  1.
        -11    1    5    5    0    0 -0.67180565828E+02 -0.23249924245E+03 -0.12076506067E+03  0.27046871546E+03  0.00000000000E+00 0. -1.
          1    1    6    6  503    0 -0.38948341572E+01  0.44823044382E+00 -0.83168716914E+02  0.83261072037E+02  0.00000000000E+00 0.  1.
         -1    1    6    6    0  503  0.38517127471E+03  0.13747993634E+03 -0.20692720678E+04  0.21092995365E+04  0.00000000000E+00 0. -1.
<mgrwt>
<rscale>  0 0.14034486E+04</rscale>
<asrwt>0</asrwt>
<pdfrwt beam="1">  1        2 0.43082167E+00 0.14034486E+04</pdfrwt>
<pdfrwt beam="2">  1       -1 0.27052585E-01 0.14034486E+04</pdfrwt>
<totfact> 0.31516831E+01</totfact>
</mgrwt>
</event>
<event>
12    6  0.9533401E-008  0.1167243E+04  0.7818608E-02  0.9142022E-01
          2   -1    0    0  501    0  0.00000000000E+00  0.00000000000E+00  0.21394322866E+04  0.21394322866E+04  0.00000000000E+00 0. -1.
         -1   -1    0    0    0  501 -0.00000000000E+00 -0.00000000000E+00 -0.15920774902E+03  0.15920774902E+03  0.00000000000E+00 0.  1.
         24    2    1    2    0    0 -0.49929582370E+02  0.16019790002E+03  0.68452839677E+03  0.70937103693E+03  0.80447571066E+02 0.  0.
        254    2    1    2    0    0  0.49929582370E+02 -0.16019790002E+03  0.12956961408E+04  0.15892689987E+04  0.90487078111E+03 0.  0.
         23    2    4    4    0    0 -0.16498951772E+03  0.27836787078E+02 -0.60915664494E+02  0.20010775353E+03  0.91301517889E+02 0.  0.
         23    2    4    4    0    0  0.21491910009E+03 -0.18803468709E+03  0.13566118053E+04  0.13891612452E+04  0.88465313173E+02 0.  0.
          4    1    3    3  502    0 -0.44069758347E+02  0.16206677610E+03  0.68255027735E+03  0.70291013980E+03  0.00000000000E+00 0. -1.
         -3    1    3    3    0  502 -0.58598240225E+01 -0.18688760823E+01  0.19781194187E+01  0.64608971375E+01  0.00000000000E+00 0.  1.
         11    1    5    5    0    0 -0.10675867727E+03  0.44861154274E+02 -0.24119374081E+01  0.11582640363E+03  0.00000000000E+00 0. -1.
        -11    1    5    5    0    0 -0.58230840448E+02 -0.17024367197E+02 -0.58503727086E+02  0.84281349898E+02  0.00000000000E+00 0.  1.
          3    1    6    6  503    0  0.20403340973E+02 -0.37212485043E+02  0.99385646224E+02  0.10806744210E+03  0.00000000000E+00 0. -1.
         -3    1    6    6    0  503  0.19451575911E+03 -0.15082220205E+03  0.12572261591E+04  0.12810938031E+04  0.00000000000E+00 0.  1.
<mgrwt>
<rscale>  0 0.11672432E+04</rscale>
<asrwt>0</asrwt>
<pdfrwt beam="1">  1        2 0.32914341E+00 0.11672432E+04</pdfrwt>
<pdfrwt beam="2">  1       -1 0.24493501E-01 0.11672432E+04</pdfrwt>
<totfact> 0.91513126E+01</totfact>
</mgrwt>
</event>
<event>
12    6  0.9533401E-008  0.2841824E+04  0.7818608E-02  0.8290400E-01
          2   -1    0    0  501    0  0.00000000000E+00  0.00000000000E+00  0.18964145352E+04  0.18964145352E+04  0.00000000000E+00 0. -1.
         -1   -1    0    0    0  501 -0.00000000000E+00 -0.00000000000E+00 -0.10646357293E+04  0.10646357293E+04  0.00000000000E+00 0.  1.
         24    2    1    2    0    0 -0.58898951390E+03  0.50377578089E+03 -0.68300265726E+03  0.10361837259E+04  0.80531975655E+02 0.  0.
        254    2    1    2    0    0  0.58898951390E+03 -0.50377578089E+03  0.15147814632E+04  0.19248665386E+04  0.89991645467E+03 0.  0.
         23    2    4    4    0    0  0.19065875803E+03  0.10812802729E+03 -0.36944387057E+01  0.23746291095E+03  0.91282818204E+02 0.  0.
         23    2    4    4    0    0  0.39833075587E+03 -0.61190380818E+03  0.15184759019E+04  0.16874036277E+04  0.92023238859E+02 0.  0.
          4    1    3    3  502    0 -0.92242147350E+02  0.55853057330E+02 -0.67566158551E+02  0.12725314747E+03  0.00000000000E+00 0. -1.
         -3    1    3    3    0  502 -0.49674736655E+03  0.44792272356E+03 -0.61543649871E+03  0.90893057843E+03  0.00000000000E+00 0.  1.
         11    1    5    5    0    0  0.28498692430E+02 -0.12329080218E+02 -0.16292406740E+02  0.35065997870E+02  0.00000000000E+00 0.  1.
        -11    1    5    5    0    0  0.16216006560E+03  0.12045710751E+03  0.12597968034E+02  0.20239691308E+03  0.00000000000E+00 0. -1.
          1    1    6    6  503    0  0.40935757250E+02 -0.12001420093E+03  0.22882290352E+03  0.26160861190E+03  0.00000000000E+00 0. -1.
         -1    1    6    6    0  503  0.35739499862E+03 -0.49188960725E+03  0.12896529984E+04  0.14257950158E+04  0.00000000000E+00 0.  1.
<mgrwt>
<rscale>  0 0.28418238E+04</rscale>
<asrwt>0</asrwt>
<pdfrwt beam="1">  1        2 0.29175608E+00 0.28418238E+04</pdfrwt>
<pdfrwt beam="2">  1       -1 0.16379011E+00 0.28418238E+04</pdfrwt>
<totfact> 0.20596439E+00</totfact>
</mgrwt>
</event>
<event>
12    6  0.9533401E-008  0.1985051E+04  0.7818608E-02  0.8613642E-01
          2   -1    0    0  501    0  0.00000000000E+00  0.00000000000E+00  0.48267830966E+03  0.48267830966E+03  0.00000000000E+00 0. -1.
         -1   -1    0    0    0  501 -0.00000000000E+00 -0.00000000000E+00 -0.20409183949E+04  0.20409183949E+04  0.00000000000E+00 0.  1.
         24    2    1    2    0    0  0.68440449124E+03 -0.16641825860E+03 -0.10550453285E+04  0.12710952674E+04  0.80361615265E+02 0.  0.
        254    2    1    2    0    0 -0.68440449124E+03  0.16641825860E+03 -0.50319475676E+03  0.12525014372E+04  0.90523496531E+03 0.  0.
         23    2    4    4    0    0  0.85984063709E+02 -0.12225545479E+03  0.12376305971E+03  0.21423401946E+03  0.90770395559E+02 0.  0.
         23    2    4    4    0    0 -0.77038855495E+03  0.28867371339E+03 -0.62695781646E+03  0.10382674177E+04  0.89956037114E+02 0.  0.
          4    1    3    3  502    0  0.12616485455E+03 -0.47454698253E+02 -0.25327351094E+03  0.28690937638E+03  0.00000000000E+00 0. -1.
         -3    1    3    3    0  502  0.55823963670E+03 -0.11896356035E+03 -0.80177181751E+03  0.98418589099E+03  0.00000000000E+00 0.  1.
         11    1    5    5    0    0  0.48852896889E+02 -0.96349696690E+01  0.11860173877E+02  0.51186930943E+02  0.00000000000E+00 0. -1.
        -11    1    5    5    0    0  0.37131166820E+02 -0.11262048512E+03  0.11190288583E+03  0.16304708852E+03  0.00000000000E+00 0.  1.
          1    1    6    6  503    0 -0.43641399199E+03  0.12474006411E+03 -0.31161644418E+03  0.55056522255E+03  0.00000000000E+00 0. -1.
         -1    1    6    6    0  503 -0.33397456296E+03  0.16393364928E+03 -0.31534137228E+03  0.48770219514E+03  0.00000000000E+00 0.  1.
<mgrwt>
<rscale>  0 0.19850512E+04</rscale>
<asrwt>0</asrwt>
<pdfrwt beam="1">  1        2 0.74258201E-01 0.19850512E+04</pdfrwt>
<pdfrwt beam="2">  1       -1 0.31398745E+00 0.19850512E+04</pdfrwt>
<totfact> 0.18280801E+00</totfact>
</mgrwt>
</event>
<event>
12    6  0.9533401E-008  0.1949388E+04  0.7818608E-02  0.8630656E-01
          2   -1    0    0  501    0  0.00000000000E+00  0.00000000000E+00  0.32602074568E+04  0.32602074568E+04  0.00000000000E+00 0. -1.
         -1   -1    0    0    0  501 -0.00000000000E+00 -0.00000000000E+00 -0.29140120920E+03  0.29140120920E+03  0.00000000000E+00 0.  1.
         24    2    1    2    0    0  0.22604675029E+03 -0.29367893271E+03 -0.44756090417E+02  0.38229275047E+03  0.82463268152E+02 0.  0.
        254    2    1    2    0    0 -0.22604675029E+03  0.29367893271E+03  0.30135623380E+04  0.31693159155E+04  0.90865887907E+03 0.  0.
         23    2    4    4    0    0  0.21927369229E+02 -0.52217761732E+02 -0.15482148001E+02  0.10925933672E+03  0.92143375190E+02 0.  0.
         23    2    4    4    0    0 -0.24797411952E+03  0.34589669444E+03  0.30290444860E+04  0.30600565788E+04  0.87750100451E+02 0.  0.
          2    1    3    3  502    0  0.94360365870E+02 -0.65570930956E+02  0.12584638707E+01  0.11491305132E+03  0.00000000000E+00 0. -1.
         -1    1    3    3    0  502  0.13168638442E+03 -0.22810800176E+03 -0.46014554288E+02  0.26737969914E+03  0.00000000000E+00 0.  1.
         11    1    5    5    0    0  0.27344828560E+02 -0.77246720335E+02 -0.68272112622E+01  0.82227770644E+02  0.00000000000E+00 0.  1.
        -11    1    5    5    0    0 -0.54174593313E+01  0.25028958603E+02 -0.86549367392E+01  0.27031566072E+02  0.00000000000E+00 0. -1.
          1    1    6    6  503    0  0.62089800782E+01  0.11488919895E+02  0.57058542486E+02  0.58533955826E+02  0.00000000000E+00 0. -1.
         -1    1    6    6    0  503 -0.25418309960E+03  0.33440777455E+03  0.29719859435E+04  0.30015226230E+04  0.00000000000E+00 0.  1.
<mgrwt>
<rscale>  0 0.19493880E+04</rscale>
<asrwt>0</asrwt>
<pdfrwt beam="1">  1        2 0.50157035E+00 0.19493880E+04</pdfrwt>
<pdfrwt beam="2">  1       -1 0.44830958E-01 0.19493880E+04</pdfrwt>
<totfact> 0.62266759E+00</totfact>
</mgrwt>
</event>
<event>
12    6  0.9533401E-008  0.1080749E+04  0.7818608E-02  0.9224161E-01
         -1   -1    0    0    0  501 -0.00000000000E+00  0.00000000000E+00  0.47879660549E+03  0.47879660549E+03  0.00000000000E+00 0.  1.
          2   -1    0    0  501    0  0.00000000000E+00 -0.00000000000E+00 -0.60987196782E+03  0.60987196782E+03  0.00000000000E+00 0. -1.
         24    2    1    2    0    0 -0.71531825514E+02 -0.11877058647E+03 -0.42853231325E+02  0.16629820906E+03  0.81212318206E+02 0.  0.
        254    2    1    2    0    0  0.71531825514E+02  0.11877058647E+03 -0.88222131008E+02  0.92237036425E+03  0.90761263222E+03 0.  0.
         23    2    4    4    0    0 -0.45989051048E+02 -0.33587848170E+03 -0.23432580200E+03  0.42208692691E+03  0.91210992239E+02 0.  0.
         23    2    4    4    0    0  0.11752087656E+03  0.45464906817E+03  0.14610367099E+03  0.50028343733E+03  0.91762211049E+02 0.  0.
          2    1    3    3  502    0 -0.71276930326E+01 -0.41897610014E+02 -0.50162770603E+02  0.65745853766E+02  0.00000000000E+00 0. -1.
         -1    1    3    3    0  502 -0.64404132481E+02 -0.76872976458E+02  0.73095392775E+01  0.10055235529E+03  0.00000000000E+00 0.  1.
         11    1    5    5    0    0 -0.48707237962E+02 -0.29694329792E+03 -0.23689687513E+03  0.38297238367E+03  0.00000000000E+00 0. -1.
        -11    1    5    5    0    0  0.27181869150E+01 -0.38935183779E+02  0.25710731314E+01  0.39114543242E+02  0.00000000000E+00 0.  1.
          2    1    6    6  503    0  0.26439008563E+02  0.13315206551E+03  0.86197880873E+02  0.16080599613E+03  0.00000000000E+00 0. -1.
         -2    1    6    6    0  503  0.91081867999E+02  0.32149700266E+03  0.59905790115E+02  0.33947744121E+03  0.00000000000E+00 0.  1.
<mgrwt>
<rscale>  0 0.10807491E+04</rscale>
<asrwt>0</asrwt>
<pdfrwt beam="1">  1        2 0.93826456E-01 0.10807491E+04</pdfrwt>
<pdfrwt beam="2">  1       -1 0.73661017E-01 0.10807491E+04</pdfrwt>
<totfact> 0.10257747E+02</totfact>
</mgrwt>
</event>
<event>
12    6  0.9533401E-008  0.2612899E+04  0.7818608E-02  0.8363833E-01
          2   -1    0    0  501    0  0.00000000000E+00  0.00000000000E+00  0.32323506923E+04  0.32323506923E+04  0.00000000000E+00 0. -1.
         -1   -1    0    0    0  501 -0.00000000000E+00 -0.00000000000E+00 -0.52803978041E+03  0.52803978041E+03  0.00000000000E+00 0.  1.
         24    2    1    2    0    0 -0.31127606789E+03  0.91451151734E+03  0.21082514707E+04  0.23204377096E+04  0.80515804705E+02 0.  0.
        254    2    1    2    0    0  0.31127606789E+03 -0.91451151734E+03  0.59605944117E+03  0.14399527631E+04  0.88597573141E+03 0.  0.
         23    2    4    4    0    0 -0.23089623296E+02 -0.28835371753E+02 -0.18479561072E+03  0.20930249980E+03  0.91068706539E+02 0.  0.
         23    2    4    4    0    0  0.33436569119E+03 -0.88567614558E+03  0.78085505189E+03  0.12306502633E+04  0.92427312534E+02 0.  0.
          2    1    3    3  502    0 -0.27343183378E+03  0.84342655228E+03  0.18851942830E+04  0.20832884585E+04  0.00000000000E+00 0. -1.
         -1    1    3    3    0  502 -0.37844234116E+02  0.71084965054E+02  0.22305718767E+03  0.23714925107E+03  0.00000000000E+00 0.  1.
         11    1    5    5    0    0  0.21320423943E+02 -0.45036672117E+02 -0.78646595825E+02  0.93102896557E+02  0.00000000000E+00 0.  1.
        -11    1    5    5    0    0 -0.44410047240E+02  0.16201300364E+02 -0.10614901490E+03  0.11619960324E+03  0.00000000000E+00 0. -1.
          2    1    6    6  503    0  0.27691230196E+03 -0.61822596010E+03  0.56841613297E+03  0.88429670413E+03  0.00000000000E+00 0. -1.
         -2    1    6    6    0  503  0.57453389227E+02 -0.26745018548E+03  0.21243891892E+03  0.34635355913E+03  0.00000000000E+00 0.  1.
<mgrwt>
<rscale>  0 0.26128986E+04</rscale>
<asrwt>0</asrwt>
<pdfrwt beam="1">  1        2 0.49728471E+00 0.26128986E+04</pdfrwt>
<pdfrwt beam="2">  1       -1 0.81236891E-01 0.26128986E+04</pdfrwt>
<totfact> 0.18731853E+00</totfact>
</mgrwt>
</event>
<event>
12    6  0.9533401E-008  0.2553618E+04  0.7818608E-02  0.8384129E-01
         -1   -1    0    0    0  501 -0.00000000000E+00  0.00000000000E+00  0.51088940653E+03  0.51088940653E+03  0.00000000000E+00 0.  1.
          2   -1    0    0  501    0  0.00000000000E+00 -0.00000000000E+00 -0.31909866719E+04  0.31909866719E+04  0.00000000000E+00 0. -1.
         24    2    1    2    0    0  0.45935401713E+03 -0.20307761401E+03 -0.26141226220E+04  0.26636910506E+04  0.96779647132E+02 0.  0.
        254    2    1    2    0    0 -0.45935401713E+03  0.20307761401E+03 -0.65974643420E+02  0.10381850278E+04  0.90621678867E+03 0.  0.
         23    2    4    4    0    0 -0.20562362029E+02 -0.16603329867E+03  0.29795551335E+03  0.35292871412E+03  0.88268467263E+02 0.  0.
         23    2    4    4    0    0 -0.43879165510E+03  0.36911091269E+03 -0.36393015677E+03  0.68525631371E+03  0.91378739471E+02 0.  0.
          4    1    3    3  502    0  0.12633410058E+03 -0.70635610504E+02 -0.55222703852E+03  0.57088036970E+03  0.00000000000E+00 0. -1.
         -3    1    3    3    0  502  0.33301991655E+03 -0.13244200351E+03 -0.20618955835E+04  0.20928106809E+04  0.00000000000E+00 0.  1.
         11    1    5    5    0    0  0.12225948032E+02 -0.15267383679E+03  0.25234001696E+03  0.29518512565E+03  0.00000000000E+00 0. -1.
        -11    1    5    5    0    0 -0.32788310061E+02 -0.13359461887E+02  0.45615496388E+02  0.57743588469E+02  0.00000000000E+00 0.  1.
          3    1    6    6  503    0 -0.10423827564E+03  0.58432003662E+02 -0.42226397829E+02  0.12673983523E+03  0.00000000000E+00 0.  1.
         -3    1    6    6    0  503 -0.33455337946E+03  0.31067890903E+03 -0.32170375894E+03  0.55851647848E+03  0.00000000000E+00 0. -1.
<mgrwt>
<rscale>  0 0.25536181E+04</rscale>
<asrwt>0</asrwt>
<pdfrwt beam="1">  1        2 0.49092103E+00 0.25536181E+04</pdfrwt>
<pdfrwt beam="2">  1       -1 0.78598370E-01 0.25536181E+04</pdfrwt>
<totfact> 0.21502322E+00</totfact>
</mgrwt>
</event>
<event>
12    6  0.9533401E-008  0.1484214E+04  0.7818608E-02  0.8895019E-01
          2   -1    0    0  501    0  0.00000000000E+00  0.00000000000E+00  0.24292022385E+04  0.24292022385E+04  0.00000000000E+00 0. -1.
         -1   -1    0    0    0  501 -0.00000000000E+00 -0.00000000000E+00 -0.22670919342E+03  0.22670919342E+03  0.00000000000E+00 0.  1.
         24    2    1    2    0    0  0.26531121506E+03 -0.32748452969E+02  0.14027285162E+04  0.14302152314E+04  0.80036342890E+02 0.  0.
        254    2    1    2    0    0 -0.26531121506E+03  0.32748452969E+02  0.79976452889E+03  0.12256962004E+04  0.88951974239E+03 0.  0.
         23    2    4    4    0    0  0.19180793193E+03  0.26780023344E+03  0.10923299547E+03  0.35879654576E+03  0.91081645640E+02 0.  0.
         23    2    4    4    0    0 -0.45711914699E+03 -0.23505178047E+03  0.69053153342E+03  0.86689965468E+03  0.10234235971E+03 0.  0.
          4    1    3    3  502    0  0.21083098229E+03 -0.25800160829E+02  0.12498698812E+04  0.12677894429E+04  0.00000000000E+00 0. -1.
         -3    1    3    3    0  502  0.54480232773E+02 -0.69482921402E+01  0.15285863492E+03  0.16242578858E+03  0.00000000000E+00 0.  1.
         11    1    5    5    0    0  0.17972566912E+03  0.21866824886E+03  0.11937727907E+03  0.30719383777E+03  0.00000000000E+00 0.  1.
        -11    1    5    5    0    0  0.12082262809E+02  0.49131984575E+02 -0.10144283607E+02  0.51602707999E+02  0.00000000000E+00 0. -1.
          1    1    6    6  503    0 -0.24681952942E+03 -0.78368393468E+02  0.38854331713E+03  0.46693403655E+03  0.00000000000E+00 0. -1.
         -1    1    6    6    0  503 -0.21029961757E+03 -0.15668338700E+03  0.30198821629E+03  0.39996561813E+03  0.00000000000E+00 0.  1.
<mgrwt>
<rscale>  0 0.14842136E+04</rscale>
<asrwt>0</asrwt>
<pdfrwt beam="1">  1        2 0.37372340E+00 0.14842136E+04</pdfrwt>
<pdfrwt beam="2">  1       -1 0.34878339E-01 0.14842136E+04</pdfrwt>
<totfact> 0.32983446E+01</totfact>
</mgrwt>
</event>
<event>
12    6  0.9533401E-008  0.1618740E+04  0.7818608E-02  0.8809118E-01
         -1   -1    0    0    0  501 -0.00000000000E+00  0.00000000000E+00  0.22838201242E+03  0.22838201242E+03  0.00000000000E+00 0.  1.
          2   -1    0    0  501    0  0.00000000000E+00 -0.00000000000E+00 -0.28683494757E+04  0.28683494757E+04  0.00000000000E+00 0. -1.
         24    2    1    2    0    0  0.24444050496E+03 -0.29605638243E+03 -0.17053123925E+04  0.17498307351E+04  0.80104327406E+02 0.  0.
        254    2    1    2    0    0 -0.24444050496E+03  0.29605638243E+03 -0.93465507079E+03  0.13469007531E+04  0.89059586529E+03 0.  0.
         23    2    4    4    0    0 -0.41832988547E+03 -0.17322396890E+03 -0.44778067046E+03  0.64334912139E+03  0.91564876864E+02 0.  0.
         23    2    4    4    0    0  0.17388938052E+03  0.46928035133E+03 -0.48687440032E+03  0.70355163169E+03  0.86467635377E+02 0.  0.
          2    1    3    3  502    0  0.16723938879E+03 -0.14481836148E+03 -0.10309495625E+04  0.10544184991E+04  0.00000000000E+00 0. -1.
         -1    1    3    3    0  502  0.77201116161E+02 -0.15123802095E+03 -0.67436283006E+03  0.69541223593E+03  0.00000000000E+00 0.  1.
         11    1    5    5    0    0 -0.18405862231E+03 -0.27646909628E+02 -0.17995516504E+03  0.25889339405E+03  0.00000000000E+00 0. -1.
        -11    1    5    5    0    0 -0.23427126316E+03 -0.14557705927E+03 -0.26782550542E+03  0.38445572734E+03  0.00000000000E+00 0.  1.
          3    1    6    6  503    0  0.87803276805E+02  0.12824557863E+03 -0.13219523855E+03  0.20403902801E+03  0.00000000000E+00 0. -1.
         -3    1    6    6    0  503  0.86086103711E+02  0.34103477270E+03 -0.35467916177E+03  0.49951260368E+03  0.00000000000E+00 0.  1.
<mgrwt>
<rscale>  0 0.16187395E+04</rscale>
<asrwt>0</asrwt>
<pdfrwt beam="1">  1        2 0.44128454E+00 0.16187395E+04</pdfrwt>
<pdfrwt beam="2">  1       -1 0.35135694E-01 0.16187395E+04</pdfrwt>
<totfact> 0.17734982E+01</totfact>
</mgrwt>
</event>
<event>
12    6  0.9533401E-008  0.1957915E+04  0.7818608E-02  0.8626553E-01
          2   -1    0    0  501    0  0.00000000000E+00  0.00000000000E+00  0.19135075365E+04  0.19135075365E+04  0.00000000000E+00 0. -1.
         -1   -1    0    0    0  501 -0.00000000000E+00 -0.00000000000E+00 -0.50083830317E+03  0.50083830317E+03  0.00000000000E+00 0.  1.
         24    2    1    2    0    0  0.25891479812E+03 -0.73053033495E+03  0.57612994769E+03  0.96927784589E+03  0.82839501105E+02 0.  0.
        254    2    1    2    0    0 -0.25891479812E+03  0.73053033495E+03  0.83653928566E+03  0.14450679938E+04  0.88753145707E+03 0.  0.
         23    2    4    4    0    0 -0.51258559199E+03  0.60150203850E+03  0.33943653703E+03  0.86525599542E+03  0.94350853200E+02 0.  0.
         23    2    4    4    0    0  0.25367079387E+03  0.12902829645E+03  0.49710274863E+03  0.57981199839E+03  0.89853424159E+02 0.  0.
          4    1    3    3  502    0 -0.89693284025E+00 -0.31467333575E+02  0.10241127517E+02  0.33104052073E+02  0.00000000000E+00 0. -1.
         -3    1    3    3    0  502  0.25981173096E+03 -0.69906300137E+03  0.56588882017E+03  0.93617379382E+03  0.00000000000E+00 0.  1.
         11    1    5    5    0    0 -0.24628526308E+03  0.22238077335E+03  0.12298869798E+03  0.35388678839E+03  0.00000000000E+00 0.  1.
        -11    1    5    5    0    0 -0.26630032891E+03  0.37912126515E+03  0.21644783906E+03  0.51136920703E+03  0.00000000000E+00 0. -1.
          1    1    6    6  503    0  0.20975064706E+02 -0.87836074015E+01  0.15660203161E+02  0.27610633123E+02  0.00000000000E+00 0. -1.
         -1    1    6    6    0  503  0.23269572916E+03  0.13781190385E+03  0.48144254547E+03  0.55220136526E+03  0.00000000000E+00 0.  1.
<mgrwt>
<rscale>  0 0.19579151E+04</rscale>
<asrwt>0</asrwt>
<pdfrwt beam="1">  1        2 0.29438577E+00 0.19579151E+04</pdfrwt>
<pdfrwt beam="2">  1       -1 0.77052047E-01 0.19579151E+04</pdfrwt>
<totfact> 0.13382401E+01</totfact>
</mgrwt>
</event>
<event>
12    6  0.9533401E-008  0.3410615E+04  0.7818608E-02  0.8135306E-01
          2   -1    0    0  501    0  0.00000000000E+00  0.00000000000E+00  0.21156712693E+04  0.21156712693E+04  0.00000000000E+00 0. -1.
         -1   -1    0    0    0  501 -0.00000000000E+00 -0.00000000000E+00 -0.13745396035E+04  0.13745396035E+04  0.00000000000E+00 0.  1.
         24    2    1    2    0    0  0.14664642148E+03 -0.38852322218E+03  0.19102982942E+04  0.19565617797E+04  0.80243118439E+02 0.  0.
        254    2    1    2    0    0 -0.14664642148E+03  0.38852322218E+03 -0.11691666284E+04  0.15336490931E+04  0.90148403693E+03 0.  0.
         23    2    4    4    0    0 -0.25821071369E+03  0.60856007998E+03 -0.10523182604E+04  0.12461549097E+04  0.92250713736E+02 0.  0.
         23    2    4    4    0    0  0.11156429221E+03 -0.22003685780E+03 -0.11684836803E+03  0.28749418348E+03  0.90202851039E+02 0.  0.
          4    1    3    3  502    0  0.85078248602E+02 -0.25680107871E+03  0.10633375517E+04  0.10972109420E+04  0.00000000000E+00 0. -1.
         -3    1    3    3    0  502  0.61568172878E+02 -0.13172214347E+03  0.84696074246E+03  0.85935083770E+03  0.00000000000E+00 0.  1.
         11    1    5    5    0    0 -0.24258181214E+03  0.52811466868E+03 -0.86987560739E+03  0.10461522887E+04  0.00000000000E+00 0. -1.
        -11    1    5    5    0    0 -0.15628901545E+02  0.80445411298E+02 -0.18244265297E+03  0.20000262094E+03  0.00000000000E+00 0.  1.
          4    1    6    6  503    0  0.60008177909E+02 -0.15721689842E+03 -0.11915486160E+03  0.20619412117E+03  0.00000000000E+00 0. -1.
         -4    1    6    6    0  503  0.51556114297E+02 -0.62819959383E+02  0.23064935639E+01  0.81300062305E+02  0.00000000000E+00 0.  1.
<mgrwt>
<rscale>  0 0.34106152E+04</rscale>
<asrwt>0</asrwt>
<pdfrwt beam="1">  1        2 0.32548789E+00 0.34106152E+04</pdfrwt>
<pdfrwt beam="2">  1       -1 0.21146763E+00 0.34106152E+04</pdfrwt>
<totfact> 0.68103505E-01</totfact>
</mgrwt>
</event>
<event>
12    6  0.9533401E-008  0.2079362E+04  0.7818608E-02  0.8570389E-01
          2   -1    0    0  501    0  0.00000000000E+00  0.00000000000E+00  0.17760894145E+04  0.17760894145E+04  0.00000000000E+00 0. -1.
         -1   -1    0    0    0  501 -0.00000000000E+00 -0.00000000000E+00 -0.60860510145E+03  0.60860510145E+03  0.00000000000E+00 0.  1.
         24    2    1    2    0    0 -0.40647210309E+03  0.41275305761E+03 -0.22818989073E+03  0.62777400340E+03  0.80280233909E+02 0.  0.
        254    2    1    2    0    0  0.40647210309E+03 -0.41275305761E+03  0.13956742037E+04  0.17569205125E+04  0.89625808065E+03 0.  0.
         23    2    4    4    0    0 -0.10611493301E+03  0.17097172019E+03  0.60733259550E+03  0.64636293990E+03  0.91871978333E+02 0.  0.
         23    2    4    4    0    0  0.51258703610E+03 -0.58372477780E+03  0.78834160824E+03  0.11105575726E+04  0.91518003792E+02 0.  0.
          4    1    3    3  502    0 -0.99485171535E+02  0.60204999484E+02 -0.30489569921E+02  0.12021462137E+03  0.00000000000E+00 0. -1.
         -3    1    3    3    0  502 -0.30698693155E+03  0.35254805813E+03 -0.19770032081E+03  0.50755938202E+03  0.00000000000E+00 0.  1.
         11    1    5    5    0    0 -0.35629288425E+02  0.27595965089E+02  0.26220948388E+03  0.26605412404E+03  0.00000000000E+00 0. -1.
        -11    1    5    5    0    0 -0.70485644585E+02  0.14337575510E+03  0.34512311162E+03  0.38030881586E+03  0.00000000000E+00 0.  1.
          1    1    6    6  503    0  0.38486446990E+03 -0.40379158764E+03  0.51438308498E+03  0.75878736452E+03  0.00000000000E+00 0. -1.
         -1    1    6    6    0  503  0.12772256620E+03 -0.17993319016E+03  0.27395852326E+03  0.35177020809E+03  0.00000000000E+00 0.  1.
<mgrwt>
<rscale>  0 0.20793625E+04</rscale>
<asrwt>0</asrwt>
<pdfrwt beam="1">  1        2 0.27324452E+00 0.20793625E+04</pdfrwt>
<pdfrwt beam="2">  1       -1 0.93631555E-01 0.20793625E+04</pdfrwt>
<totfact> 0.10344626E+01</totfact>
</mgrwt>
</event>
<event>
12    6  0.9533401E-008  0.1670626E+04  0.7818608E-02  0.8778297E-01
         -1   -1    0    0    0  501 -0.00000000000E+00  0.00000000000E+00  0.22901781639E+03  0.22901781639E+03  0.00000000000E+00 0.  1.
          2   -1    0    0  501    0  0.00000000000E+00 -0.00000000000E+00 -0.30466972450E+04  0.30466972450E+04  0.00000000000E+00 0. -1.
         24    2    1    2    0    0 -0.24862761751E+03 -0.54454137852E+03 -0.97454808256E+03  0.11465476810E+04  0.80539521548E+02 0.  0.
        254    2    1    2    0    0  0.24862761751E+03  0.54454137852E+03 -0.18431313461E+04  0.21291673804E+04  0.88197481242E+03 0.  0.
         23    2    4    4    0    0 -0.11533326753E+03 -0.18833394476E+03 -0.34628106118E+03  0.42072896638E+03  0.91273503652E+02 0.  0.
         23    2    4    4    0    0  0.36396088505E+03  0.73287532329E+03 -0.14968502849E+04  0.17084384140E+04  0.92883118851E+02 0.  0.
          2    1    3    3  502    0 -0.17262487697E+03 -0.41529765743E+03 -0.78688516147E+03  0.90634416739E+03  0.00000000000E+00 0. -1.
         -1    1    3    3    0  502 -0.76002740547E+02 -0.12924372109E+03 -0.18766292109E+03  0.24020351364E+03  0.00000000000E+00 0.  1.
         11    1    5    5    0    0 -0.25674269935E+02 -0.19684409233E+02 -0.12161976411E+03  0.12584916021E+03  0.00000000000E+00 0.  1.
        -11    1    5    5    0    0 -0.89658997598E+02 -0.16864953553E+03 -0.22466129707E+03  0.29487980617E+03  0.00000000000E+00 0. -1.
          3    1    6    6  503    0  0.21824496754E+03  0.50000962443E+03 -0.92183660311E+03  0.10711784227E+04  0.00000000000E+00 0. -1.
         -3    1    6    6    0  503  0.14571591751E+03  0.23286569885E+03 -0.57501368177E+03  0.63725999132E+03  0.00000000000E+00 0.  1.
<mgrwt>
<rscale>  0 0.16706262E+04</rscale>
<asrwt>0</asrwt>
<pdfrwt beam="1">  1        2 0.46872263E+00 0.16706262E+04</pdfrwt>
<pdfrwt beam="2">  1       -1 0.35233512E-01 0.16706262E+04</pdfrwt>
<totfact> 0.13623738E+01</totfact>
</mgrwt>
</event>
<event>
12    6  0.9533401E-008  0.1165045E+04  0.7818608E-02  0.9144015E-01
          2   -1    0    0  501    0  0.00000000000E+00  0.00000000000E+00  0.39056335004E+03  0.39056335004E+03  0.00000000000E+00 0. -1.
         -1   -1    0    0    0  501 -0.00000000000E+00 -0.00000000000E+00 -0.86882770379E+03  0.86882770379E+03  0.00000000000E+00 0.  1.
         24    2    1    2    0    0 -0.11736445494E+02 -0.55755164340E+02 -0.29675802498E+03  0.31293679093E+03  0.81349414396E+02 0.  0.
        254    2    1    2    0    0  0.11736445494E+02  0.55755164340E+02 -0.18150632877E+03  0.94645426291E+03  0.92713793035E+03 0.  0.
         23    2    4    4    0    0 -0.32640303364E+03 -0.48631331564E+02 -0.39591611693E+03  0.52364166928E+03  0.92450415825E+02 0.  0.
         23    2    4    4    0    0  0.33813947914E+03  0.10438649590E+03  0.21440978816E+03  0.42281259362E+03  0.86971743643E+02 0.  0.
          4    1    3    3  502    0 -0.22790424841E+02  0.75984497248E+01 -0.29472243740E+02  0.38023059500E+02  0.00000000000E+00 0. -1.
         -3    1    3    3    0  502  0.11053979347E+02 -0.63353614065E+02 -0.26728578124E+03  0.27491373143E+03  0.00000000000E+00 0.  1.
         11    1    5    5    0    0 -0.10455682550E+03 -0.41690005814E+02 -0.19021626606E+03  0.22102582251E+03  0.00000000000E+00 0.  1.
        -11    1    5    5    0    0 -0.22184620814E+03 -0.69413257496E+01 -0.20569985087E+03  0.30261584677E+03  0.00000000000E+00 0. -1.
          4    1    6    6  503    0  0.23794978564E+03  0.34843244500E+02  0.16263638749E+03  0.29031835407E+03  0.00000000000E+00 0. -1.
         -4    1    6    6    0  503  0.10018969349E+03  0.69543251404E+02  0.51773400665E+02  0.13249423955E+03  0.00000000000E+00 0.  1.
<mgrwt>
<rscale>  0 0.11650446E+04</rscale>
<asrwt>0</asrwt>
<pdfrwt beam="1">  1        2 0.60086670E-01 0.11650446E+04</pdfrwt>
<pdfrwt beam="2">  1       -1 0.13366580E+00 0.11650446E+04</pdfrwt>
<totfact> 0.43707414E+01</totfact>
</mgrwt>
</event>
<event>
12    6  0.9533401E-008  0.1584322E+04  0.7818608E-02  0.8830238E-01
         -1   -1    0    0    0  501 -0.00000000000E+00  0.00000000000E+00  0.11649735869E+04  0.11649735869E+04  0.00000000000E+00 0.  1.
          2   -1    0    0  501    0  0.00000000000E+00 -0.00000000000E+00 -0.53865537275E+03  0.53865537275E+03  0.00000000000E+00 0. -1.
         24    2    1    2    0    0  0.32766066434E+03  0.25924689788E+03 -0.14009164695E+03  0.44747568786E+03  0.77706863645E+02 0.  0.
        254    2    1    2    0    0 -0.32766066434E+03 -0.25924689788E+03  0.76640986114E+03  0.12561532718E+04  0.90330864163E+03 0.  0.
         23    2    4    4    0    0  0.83699476185E+02 -0.49090567096E+03  0.46965034497E+03  0.69110616189E+03  0.95196115374E+02 0.  0.
         23    2    4    4    0    0 -0.41136014053E+03  0.23165877308E+03  0.29675951617E+03  0.56504710993E+03  0.91263758653E+02 0.  0.
          2    1    3    3  502    0  0.23676260369E+03  0.18934191214E+03 -0.13721847892E+03  0.33276989220E+03  0.00000000000E+00 0. -1.
         -3    1    3    3    0  502  0.90898060651E+02  0.69904985740E+02 -0.28731680298E+01  0.11470579565E+03  0.00000000000E+00 0.  1.
         11    1    5    5    0    0  0.31977154892E+02 -0.38735618812E+03  0.33121955707E+03  0.51066011191E+03  0.00000000000E+00 0.  1.
        -11    1    5    5    0    0  0.51722321293E+02 -0.10354948284E+03  0.13843078790E+03  0.18044604998E+03  0.00000000000E+00 0. -1.
          3    1    6    6  503    0 -0.35951815752E+02 -0.16236037295E+01  0.73293232370E+01  0.36727212309E+02  0.00000000000E+00 0. -1.
         -3    1    6    6    0  503 -0.37540832478E+03  0.23328237681E+03  0.28943019293E+03  0.52831989762E+03  0.00000000000E+00 0.  1.
<mgrwt>
<rscale>  0 0.15843223E+04</rscale>
<asrwt>0</asrwt>
<pdfrwt beam="1">  1        2 0.82870057E-01 0.15843223E+04</pdfrwt>
<pdfrwt beam="2">  1       -1 0.17922671E+00 0.15843223E+04</pdfrwt>
<totfact> 0.13050103E+01</totfact>
</mgrwt>
</event>
<event>
12    6  0.1049809E-007  0.1713271E+04  0.7818608E-02  0.8753831E-01
         -1   -1    0    0    0  501 -0.00000000000E+00  0.00000000000E+00  0.56481684077E+03  0.56481684077E+03  0.00000000000E+00 0.  1.
          2   -1    0    0  501    0  0.00000000000E+00 -0.00000000000E+00 -0.12992259874E+04  0.12992259874E+04  0.00000000000E+00 0. -1.
         24    2    1    2    0    0 -0.39036228927E+03  0.14653446674E+03  0.22322062815E+03  0.47844227335E+03  0.72280656281E+02 0.  0.
        254    2    1    2    0    0  0.39036228927E+03 -0.14653446674E+03 -0.95762977475E+03  0.13856005548E+04  0.91048286369E+03 0.  0.
         23    2    4    4    0    0  0.35659831446E+03 -0.26983500371E+03 -0.10890068278E+04  0.11809572309E+04  0.93545834385E+02 0.  0.
         23    2    4    4    0    0  0.33763974815E+02  0.12330053697E+03  0.13137705307E+03  0.20464332386E+03  0.90972146921E+02 0.  0.
          4    1    3    3  502    0 -0.74075119822E+02  0.42464502313E+02  0.76271027983E+02  0.11448854547E+03  0.00000000000E+00 0. -1.
         -3    1    3    3    0  502 -0.31628716945E+03  0.10406996443E+03  0.14694960017E+03  0.36395372789E+03  0.00000000000E+00 0.  1.
         11    1    5    5    0    0  0.26965792959E+03 -0.23427509251E+03 -0.77823631691E+03  0.85630133886E+03  0.00000000000E+00 0. -1.
        -11    1    5    5    0    0  0.86940384871E+02 -0.35559911193E+02 -0.31077051090E+03  0.32465589206E+03  0.00000000000E+00 0.  1.
          2    1    6    6  503    0  0.35263800977E+02  0.13403028435E+03  0.98505252390E+02  0.17003216616E+03  0.00000000000E+00 0. -1.
         -2    1    6    6    0  503 -0.14998261624E+01 -0.10729747379E+02  0.32871800676E+02  0.34611157696E+02  0.00000000000E+00 0.  1.
<mgrwt>
<rscale>  0 0.17132714E+04</rscale>
<asrwt>0</asrwt>
<pdfrwt beam="1">  1        2 0.19988092E+00 0.17132714E+04</pdfrwt>
<pdfrwt beam="2">  1       -1 0.86894899E-01 0.17132714E+04</pdfrwt>
<totfact> 0.23401431E+01</totfact>
</mgrwt>
</event>
<event>
12    6  0.9533401E-008  0.2320300E+04  0.7818608E-02  0.8469960E-01
         -1   -1    0    0    0  501 -0.00000000000E+00  0.00000000000E+00  0.53833894707E+03  0.53833894707E+03  0.00000000000E+00 0.  1.
          2   -1    0    0  501    0  0.00000000000E+00 -0.00000000000E+00 -0.25001859946E+04  0.25001859946E+04  0.00000000000E+00 0. -1.
         24    2    1    2    0    0  0.17130734841E+03  0.93336826999E+03 -0.41145619400E+03  0.10382054340E+04  0.89731758501E+02 0.  0.
        254    2    1    2    0    0 -0.17130734841E+03 -0.93336826999E+03 -0.15503908535E+04  0.20003195077E+04  0.83489148946E+03 0.  0.
         23    2    4    4    0    0 -0.48709541799E+02 -0.10055113936E+04 -0.15334298042E+04  0.18366048823E+04  0.91020585988E+02 0.  0.
         23    2    4    4    0    0 -0.12259780661E+03  0.72143123572E+02 -0.16961049290E+02  0.16371462542E+03  0.79246128731E+02 0.  0.
          4    1    3    3  502    0 -0.71988338399E+01  0.85064442974E+02 -0.24014343730E+02  0.88681854807E+02  0.00000000000E+00 0. -1.
         -3    1    3    3    0  502  0.17850618225E+03  0.84830382701E+03 -0.38744185027E+03  0.94952357915E+03  0.00000000000E+00 0.  1.
         11    1    5    5    0    0 -0.15984796454E+02 -0.16708994384E+03 -0.31968015354E+03  0.36106781027E+03  0.00000000000E+00 0. -1.
        -11    1    5    5    0    0 -0.32724745345E+02 -0.83842144972E+03 -0.12137496507E+04  0.14755370720E+04  0.00000000000E+00 0.  1.
          1    1    6    6  503    0 -0.15275385462E+02  0.20991553701E+02  0.26531433122E+02  0.37120071003E+02  0.00000000000E+00 0. -1.
         -1    1    6    6    0  503 -0.10732242115E+03  0.51151569871E+02 -0.43492482412E+02  0.12659455442E+03  0.00000000000E+00 0.  1.
<mgrwt>
<rscale>  0 0.23202995E+04</rscale>
<asrwt>0</asrwt>
<pdfrwt beam="1">  1        2 0.38464399E+00 0.23202995E+04</pdfrwt>
<pdfrwt beam="2">  1       -1 0.82821379E-01 0.23202995E+04</pdfrwt>
<totfact> 0.51899289E+00</totfact>
</mgrwt>
</event>
<event>
12    6  0.9533401E-008  0.2486348E+04  0.7818608E-02  0.8407865E-01
          2   -1    0    0  501    0  0.00000000000E+00  0.00000000000E+00  0.25736463381E+04  0.25736463381E+04  0.00000000000E+00 0. -1.
         -1   -1    0    0    0  501 -0.00000000000E+00 -0.00000000000E+00 -0.60050280264E+03  0.60050280264E+03  0.00000000000E+00 0.  1.
         24    2    1    2    0    0  0.76370869516E+03  0.73904860764E+03  0.60562320460E+03  0.12258374917E+04  0.80338500583E+02 0.  0.
        254    2    1    2    0    0 -0.76370869516E+03 -0.73904860764E+03  0.13675203309E+04  0.19483116490E+04  0.89239151209E+03 0.  0.
         23    2    4    4    0    0 -0.94246391389E+03 -0.71170745095E+03  0.11579052177E+04  0.16564333169E+04  0.90890678698E+02 0.  0.
         23    2    4    4    0    0  0.17875521873E+03 -0.27341156689E+02  0.20961511325E+03  0.29187833217E+03  0.92485123204E+02 0.  0.
          4    1    3    3  502    0  0.32956668258E+03  0.29891687375E+03  0.21121804048E+03  0.49252264548E+03  0.00000000000E+00 0. -1.
         -3    1    3    3    0  502  0.43414201258E+03  0.44013173388E+03  0.39440516412E+03  0.73331484626E+03  0.00000000000E+00 0.  1.
         11    1    5    5    0    0 -0.15041345591E+03 -0.15732428963E+03  0.20720742562E+03  0.30051631745E+03  0.00000000000E+00 0.  1.
        -11    1    5    5    0    0 -0.79205045798E+03 -0.55438316132E+03  0.95069779204E+03  0.13559169994E+04  0.00000000000E+00 0. -1.
          4    1    6    6  503    0  0.15007285645E+03 -0.56470833862E+02  0.18192511370E+03  0.24250270991E+03  0.00000000000E+00 0. -1.
         -4    1    6    6    0  503  0.28682362274E+02  0.29129677172E+02  0.27689999555E+02  0.49375622256E+02  0.00000000000E+00 0.  1.
<mgrwt>
<rscale>  0 0.24863482E+04</rscale>
<asrwt>0</asrwt>
<pdfrwt beam="1">  1        2 0.39594558E+00 0.24863482E+04</pdfrwt>
<pdfrwt beam="2">  1       -1 0.92385048E-01 0.24863482E+04</pdfrwt>
<totfact> 0.36496859E+00</totfact>
</mgrwt>
</event>
<event>
12    6  0.9533401E-008  0.1218180E+04  0.7818608E-02  0.9097091E-01
          2   -1    0    0  501    0  0.00000000000E+00  0.00000000000E+00  0.20703001869E+04  0.20703001869E+04  0.00000000000E+00 0. -1.
         -1   -1    0    0    0  501 -0.00000000000E+00 -0.00000000000E+00 -0.17919645266E+03  0.17919645266E+03  0.00000000000E+00 0.  1.
         24    2    1    2    0    0  0.17663274214E+03  0.19594931766E+03  0.37167337731E+03  0.46222653543E+03  0.76922103208E+02 0.  0.
        254    2    1    2    0    0 -0.17663274214E+03 -0.19594931766E+03  0.15194303569E+04  0.17872701041E+04  0.90336623519E+03 0.  0.
         23    2    4    4    0    0  0.18871056055E+03 -0.41977583074E+03  0.10162854910E+04  0.11192949547E+04  0.90341422662E+02 0.  0.
         23    2    4    4    0    0 -0.36534330270E+03  0.22382651308E+03  0.50314486596E+03  0.66797514947E+03  0.97272850167E+02 0.  0.
          2    1    3    3  502    0  0.81005398122E+02  0.84190268788E+02  0.10220345004E+03  0.15522699857E+03  0.00000000000E+00 0. -1.
         -1    1    3    3    0  502  0.95627344022E+02  0.11175904887E+03  0.26946992727E+03  0.30699953687E+03  0.00000000000E+00 0.  1.
         11    1    5    5    0    0  0.96669911133E+02 -0.30318345561E+03  0.63993317352E+03  0.71468856577E+03  0.00000000000E+00 0. -1.
        -11    1    5    5    0    0  0.92040649421E+02 -0.11659237513E+03  0.37635231744E+03  0.40460638889E+03  0.00000000000E+00 0.  1.
          2    1    6    6  503    0 -0.13802270278E+03  0.13980423375E+03  0.24193422468E+03  0.31165310736E+03  0.00000000000E+00 0. -1.
         -2    1    6    6    0  503 -0.22732059992E+03  0.84022279327E+02  0.26121064128E+03  0.35632204211E+03  0.00000000000E+00 0.  1.
<mgrwt>
<rscale>  0 0.12181797E+04</rscale>
<asrwt>0</asrwt>
<pdfrwt beam="1">  1        2 0.31850770E+00 0.12181797E+04</pdfrwt>
<pdfrwt beam="2">  1       -1 0.27568686E-01 0.12181797E+04</pdfrwt>
<totfact> 0.81212809E+01</totfact>
</mgrwt>
</event>
<event>
12    6  0.9533401E-008  0.1370756E+04  0.7818608E-02  0.8975263E-01
          2   -1    0    0  501    0  0.00000000000E+00  0.00000000000E+00  0.12873487283E+04  0.12873487283E+04  0.00000000000E+00 0. -1.
         -1   -1    0    0    0  501 -0.00000000000E+00 -0.00000000000E+00 -0.36489162438E+03  0.36489162438E+03  0.00000000000E+00 0.  1.
         24    2    1    2    0    0 -0.24115752906E+03  0.28154439847E+03  0.36098361361E+03  0.52344696292E+03  0.79141339128E+02 0.  0.
        254    2    1    2    0    0  0.24115752906E+03 -0.28154439847E+03  0.56147349034E+03  0.11287933898E+04  0.90636517716E+03 0.  0.
         23    2    4    4    0    0  0.27796694469E+03 -0.49467176750E+03  0.62831115629E+02  0.57761205071E+03  0.87875776698E+02 0.  0.
         23    2    4    4    0    0 -0.36809415623E+02  0.21312736903E+03  0.49864237471E+03  0.55118133909E+03  0.91533830866E+02 0.  0.
          2    1    3    3  502    0 -0.62037702549E+02  0.47275097718E+02  0.11744247024E+03  0.14098349272E+03  0.00000000000E+00 0. -1.
         -1    1    3    3    0  502 -0.17911982651E+03  0.23426930076E+03  0.24354114337E+03  0.38246347020E+03  0.00000000000E+00 0.  1.
         11    1    5    5    0    0  0.63555471441E+02 -0.69339514461E+02 -0.14130946823E+02  0.95115455495E+02  0.00000000000E+00 0.  1.
        -11    1    5    5    0    0  0.21441147325E+03 -0.42533225304E+03  0.76962062452E+02  0.48249659522E+03  0.00000000000E+00 0. -1.
          1    1    6    6  503    0 -0.21699226002E+02  0.20235985448E+03  0.49025313967E+03  0.53081871488E+03  0.00000000000E+00 0. -1.
         -1    1    6    6    0  503 -0.15110189621E+02  0.10767514545E+02  0.83892350431E+01  0.20362624204E+02  0.00000000000E+00 0.  1.
<mgrwt>
<rscale>  0 0.13707557E+04</rscale>
<asrwt>0</asrwt>
<pdfrwt beam="1">  1        2 0.19805365E+00 0.13707557E+04</pdfrwt>
<pdfrwt beam="2">  1       -1 0.56137174E-01 0.13707557E+04</pdfrwt>
<totfact> 0.60017689E+01</totfact>
</mgrwt>
</event>
<event>
12    6  0.9533401E-008  0.1241757E+04  0.7818608E-02  0.9077072E-01
          2   -1    0    0  501    0  0.00000000000E+00  0.00000000000E+00  0.11182738532E+04  0.11182738532E+04  0.00000000000E+00 0. -1.
         -1   -1    0    0    0  501 -0.00000000000E+00 -0.00000000000E+00 -0.34471904172E+03  0.34471904172E+03  0.00000000000E+00 0.  1.
         24    2    1    2    0    0 -0.19829325459E+03 -0.93840530632E+02  0.40505683361E+03  0.46746913174E+03  0.79561866928E+02 0.  0.
        254    2    1    2    0    0  0.19829325459E+03  0.93840530632E+02  0.36849797785E+03  0.99552376316E+03  0.89841557384E+03 0.  0.
         23    2    4    4    0    0  0.25805921034E+03  0.42903266763E+03  0.39169829277E+03  0.64217013012E+03  0.91056781908E+02 0.  0.
         23    2    4    4    0    0 -0.59765955748E+02 -0.33519213699E+03 -0.23200314915E+02  0.35335363304E+03  0.91623125894E+02 0.  0.
          4    1    3    3  502    0 -0.19340905109E+03 -0.75507386692E+02  0.32863888768E+03  0.38873119889E+03  0.00000000000E+00 0. -1.
         -3    1    3    3    0  502 -0.48842035030E+01 -0.18333143941E+02  0.76417945930E+02  0.78737932858E+02  0.00000000000E+00 0.  1.
         11    1    5    5    0    0  0.24536280304E+03  0.35147424780E+03  0.31144564585E+03  0.52984473414E+03  0.00000000000E+00 0.  1.
        -11    1    5    5    0    0  0.12696407304E+02  0.77558419828E+02  0.80252646917E+02  0.11232539598E+03  0.00000000000E+00 0. -1.
          1    1    6    6  503    0 -0.49447727465E+02 -0.84149815323E+02 -0.29680846107E+02  0.10201579190E+03  0.00000000000E+00 0. -1.
         -1    1    6    6    0  503 -0.10318228283E+02 -0.25104232167E+03  0.64805311916E+01  0.25133784114E+03  0.00000000000E+00 0.  1.
<mgrwt>
<rscale>  0 0.12417573E+04</rscale>
<asrwt>0</asrwt>
<pdfrwt beam="1">  1        2 0.17204213E+00 0.12417573E+04</pdfrwt>
<pdfrwt beam="2">  1       -1 0.53033699E-01 0.12417573E+04</pdfrwt>
<totfact> 0.85384341E+01</totfact>
</mgrwt>
</event>
<event>
12    6  0.9533401E-008  0.2274858E+04  0.7818608E-02  0.8487901E-01
          2   -1    0    0  501    0  0.00000000000E+00  0.00000000000E+00  0.12338425546E+04  0.12338425546E+04  0.00000000000E+00 0. -1.
         -1   -1    0    0    0  501 -0.00000000000E+00 -0.00000000000E+00 -0.10485496118E+04  0.10485496118E+04  0.00000000000E+00 0.  1.
         24    2    1    2    0    0  0.56938881774E+03 -0.38866514598E+02  0.84927152051E+03  0.10261025712E+04  0.76877430638E+02 0.  0.
        254    2    1    2    0    0 -0.56938881774E+03  0.38866514598E+02 -0.66397857766E+03  0.12562895952E+04  0.90093382873E+03 0.  0.
         23    2    4    4    0    0 -0.89270815446E+02 -0.70909108064E+01  0.21446986873E+03  0.24950964880E+03  0.90764424441E+02 0.  0.
         23    2    4    4    0    0 -0.48011800229E+03  0.45957425405E+02 -0.87844844639E+03  0.10067799464E+04  0.96482156255E+02 0.  0.
          4    1    3    3  502    0  0.18171721156E+03 -0.44123954612E+02  0.24638041375E+03  0.30930789940E+03  0.00000000000E+00 0. -1.
         -3    1    3    3    0  502  0.38767160618E+03  0.52574400138E+01  0.60289110676E+03  0.71679467180E+03  0.00000000000E+00 0.  1.
         11    1    5    5    0    0 -0.32427832351E+02 -0.46987307905E+02  0.11219516335E+03  0.12588536886E+03  0.00000000000E+00 0. -1.
        -11    1    5    5    0    0 -0.56842983095E+02  0.39896397099E+02  0.10227470538E+03  0.12362427994E+03  0.00000000000E+00 0.  1.
          3    1    6    6  503    0 -0.43613642917E+03  0.62442552475E+02 -0.82752372516E+03  0.93750177221E+03  0.00000000000E+00 0. -1.
         -3    1    6    6    0  503 -0.43981573121E+02 -0.16485127070E+02 -0.50924721240E+02  0.69278174211E+02  0.00000000000E+00 0.  1.
<mgrwt>
<rscale>  0 0.22748584E+04</rscale>
<asrwt>0</asrwt>
<pdfrwt beam="1">  1        2 0.18982193E+00 0.22748584E+04</pdfrwt>
<pdfrwt beam="2">  1       -1 0.16131533E+00 0.22748584E+04</pdfrwt>
<totfact> 0.53480422E+00</totfact>
</mgrwt>
</event>
<event>
12    6  0.9533401E-008  0.2201337E+04  0.7818608E-02  0.8517872E-01
         -1   -1    0    0    0  501 -0.00000000000E+00  0.00000000000E+00  0.10218130308E+04  0.10218130308E+04  0.00000000000E+00 0.  1.
          2   -1    0    0  501    0  0.00000000000E+00 -0.00000000000E+00 -0.11856091045E+04  0.11856091045E+04  0.00000000000E+00 0. -1.
         24    2    1    2    0    0 -0.58948829823E+02 -0.76236513284E+03  0.43590331521E+03  0.88379556832E+03  0.80045899631E+02 0.  0.
        254    2    1    2    0    0  0.58948829823E+02  0.76236513284E+03 -0.59969938889E+03  0.13236265670E+04  0.89870594281E+03 0.  0.
         23    2    4    4    0    0  0.12833538294E+03  0.24383481502E+03 -0.72218959342E+03  0.77844927785E+03  0.92195888223E+02 0.  0.
         23    2    4    4    0    0 -0.69386553119E+02  0.51853031783E+03  0.12249020453E+03  0.54517728920E+03  0.92337653159E+02 0.  0.
          2    1    3    3  502    0 -0.53851420032E+02 -0.66923222439E+03  0.41118969385E+03  0.78730471225E+03  0.00000000000E+00 0. -1.
         -1    1    3    3    0  502 -0.50974097909E+01 -0.93132908453E+02  0.24713621364E+02  0.96490856066E+02  0.00000000000E+00 0.  1.
         11    1    5    5    0    0  0.94910583947E+02  0.14487486276E+03 -0.55421411342E+03  0.58064621614E+03  0.00000000000E+00 0. -1.
        -11    1    5    5    0    0  0.33424798996E+02  0.98959952257E+02 -0.16797548000E+03  0.19780306171E+03  0.00000000000E+00 0.  1.
          4    1    6    6  503    0 -0.82154195324E+02  0.44803118822E+03  0.12850060903E+03  0.47327968893E+03  0.00000000000E+00 0. -1.
         -4    1    6    6    0  503  0.12767642205E+02  0.70499129606E+02 -0.60104044986E+01  0.71897600272E+02  0.00000000000E+00 0.  1.
<mgrwt>
<rscale>  0 0.22013367E+04</rscale>
<asrwt>0</asrwt>
<pdfrwt beam="1">  1        2 0.18240140E+00 0.22013367E+04</pdfrwt>
<pdfrwt beam="2">  1       -1 0.15720201E+00 0.22013367E+04</pdfrwt>
<totfact> 0.61793042E+00</totfact>
</mgrwt>
</event>
<event>
12    6  0.9533401E-008  0.1184065E+04  0.7818608E-02  0.9126919E-01
          2   -1    0    0  501    0  0.00000000000E+00  0.00000000000E+00  0.61463977644E+03  0.61463977644E+03  0.00000000000E+00 0. -1.
         -1   -1    0    0    0  501 -0.00000000000E+00 -0.00000000000E+00 -0.57025721261E+03  0.57025721261E+03  0.00000000000E+00 0.  1.
         24    2    1    2    0    0  0.21588774323E+02  0.12447650703E+03  0.20317142235E+03  0.25181632649E+03  0.78564365005E+02 0.  0.
        254    2    1    2    0    0 -0.21588774323E+02 -0.12447650703E+03 -0.15878885851E+03  0.93308066256E+03  0.91074977094E+03 0.  0.
         23    2    4    4    0    0  0.19548765985E+03  0.20234473372E+03 -0.37278380355E+03  0.47552066002E+03  0.89405355006E+02 0.  0.
         23    2    4    4    0    0 -0.21707643417E+03 -0.32682124075E+03  0.21399494504E+03  0.45756000254E+03  0.98147938060E+02 0.  0.
          4    1    3    3  502    0  0.46874618408E+02  0.83072619214E+02  0.16287168544E+03  0.18874712139E+03  0.00000000000E+00 0. -1.
         -3    1    3    3    0  502 -0.25285844085E+02  0.41403887815E+02  0.40299736906E+02  0.63069205100E+02  0.00000000000E+00 0.  1.
         11    1    5    5    0    0  0.15615533318E+03  0.14836855730E+03 -0.21572880441E+03  0.30485510316E+03  0.00000000000E+00 0. -1.
        -11    1    5    5    0    0  0.39332326671E+02  0.53976176417E+02 -0.15705499914E+03  0.17066555686E+03  0.00000000000E+00 0.  1.
          3    1    6    6  503    0 -0.15725020684E+03 -0.27888004581E+03  0.13493343733E+03  0.34743163357E+03  0.00000000000E+00 0. -1.
         -3    1    6    6    0  503 -0.59826227331E+02 -0.47941194940E+02  0.79061507709E+02  0.11012836896E+03  0.00000000000E+00 0.  1.
<mgrwt>
<rscale>  0 0.11840655E+04</rscale>
<asrwt>0</asrwt>
<pdfrwt beam="1">  1        2 0.94559966E-01 0.11840655E+04</pdfrwt>
<pdfrwt beam="2">  1       -1 0.87731879E-01 0.11840655E+04</pdfrwt>
<totfact> 0.69503427E+01</totfact>
</mgrwt>
</event>
<event>
12    6  0.9533401E-008  0.1962392E+04  0.7818608E-02  0.8624408E-01
         -1   -1    0    0    0  501 -0.00000000000E+00  0.00000000000E+00  0.54843017918E+03  0.54843017918E+03  0.00000000000E+00 0.  1.
          2   -1    0    0  501    0  0.00000000000E+00 -0.00000000000E+00 -0.17554568640E+04  0.17554568640E+04  0.00000000000E+00 0. -1.
         24    2    1    2    0    0 -0.40031190930E+03  0.31967074768E+03  0.20164388512E+03  0.55629055072E+03  0.79749036122E+02 0.  0.
        254    2    1    2    0    0  0.40031190930E+03 -0.31967074768E+03 -0.14086705699E+04  0.17475964925E+04  0.89849970183E+03 0.  0.
         23    2    4    4    0    0  0.25403655729E+03 -0.61865741056E+03 -0.10622802952E+04  0.12583947764E+04  0.88580040397E+02 0.  0.
         23    2    4    4    0    0  0.14627535201E+03  0.29898666288E+03 -0.34639027470E+03  0.48920171605E+03  0.92426151011E+02 0.  0.
          2    1    3    3  502    0 -0.16321369057E+03  0.88818227091E+02  0.94444357871E+02  0.20843973466E+03  0.00000000000E+00 0. -1.
         -1    1    3    3    0  502 -0.23709821873E+03  0.23085252059E+03  0.10719952725E+03  0.34785081606E+03  0.00000000000E+00 0.  1.
         11    1    5    5    0    0  0.23455989837E+03 -0.57128424365E+03 -0.92827740389E+03  0.11149363083E+04  0.00000000000E+00 0.  1.
        -11    1    5    5    0    0  0.19476658917E+02 -0.47373166918E+02 -0.13400289135E+03  0.14345846812E+03  0.00000000000E+00 0. -1.
          3    1    6    6  503    0  0.11784745327E+03  0.17436744965E+03 -0.16563760238E+03  0.26782054638E+03  0.00000000000E+00 0. -1.
         -3    1    6    6    0  503  0.28427898737E+02  0.12461921323E+03 -0.18075267232E+03  0.22138116967E+03  0.00000000000E+00 0.  1.
<mgrwt>
<rscale>  0 0.19623919E+04</rscale>
<asrwt>0</asrwt>
<pdfrwt beam="1">  1        2 0.27007029E+00 0.19623919E+04</pdfrwt>
<pdfrwt beam="2">  1       -1 0.84373874E-01 0.19623919E+04</pdfrwt>
<totfact> 0.13486904E+01</totfact>
</mgrwt>
</event>
<event>
12    6  0.9533401E-008  0.1484121E+04  0.7818608E-02  0.8895081E-01
          2   -1    0    0  501    0  0.00000000000E+00  0.00000000000E+00  0.71610264809E+03  0.71610264809E+03  0.00000000000E+00 0. -1.
         -1   -1    0    0    0  501 -0.00000000000E+00 -0.00000000000E+00 -0.76895979898E+03  0.76895979898E+03  0.00000000000E+00 0.  1.
         24    2    1    2    0    0 -0.24640055636E+03 -0.27275272713E+03  0.26030021771E+03  0.45742161191E+03  0.79818815919E+02 0.  0.
        254    2    1    2    0    0  0.24640055636E+03  0.27275272713E+03 -0.31315736860E+03  0.10276408352E+04  0.90712229839E+03 0.  0.
         23    2    4    4    0    0 -0.12829981752E+03  0.38745379695E+03  0.12009751597E+03  0.43520622487E+03  0.91650187543E+02 0.  0.
         23    2    4    4    0    0  0.37470037389E+03 -0.11470106982E+03 -0.43325488457E+03  0.59243461029E+03  0.98550833857E+02 0.  0.
          4    1    3    3  502    0 -0.21151271277E+03 -0.26444887535E+03  0.22178671167E+03  0.40479646838E+03  0.00000000000E+00 0. -1.
         -3    1    3    3    0  502 -0.34887843589E+02 -0.83038517782E+01  0.38513506038E+02  0.52625143534E+02  0.00000000000E+00 0.  1.
         11    1    5    5    0    0 -0.11082127923E+03  0.20038911330E+03  0.48000545403E+02  0.23396838465E+03  0.00000000000E+00 0. -1.
        -11    1    5    5    0    0 -0.17478538296E+02  0.18706468365E+03  0.72096970572E+02  0.20123784022E+03  0.00000000000E+00 0.  1.
          4    1    6    6  503    0  0.63597256079E+02 -0.24002952404E+02 -0.13893437353E+03  0.15467227565E+03  0.00000000000E+00 0. -1.
         -4    1    6    6    0  503  0.31110311781E+03 -0.90698117412E+02 -0.29432051104E+03  0.43776233464E+03  0.00000000000E+00 0.  1.
<mgrwt>
<rscale>  0 0.14841215E+04</rscale>
<asrwt>0</asrwt>
<pdfrwt beam="1">  1        2 0.11016964E+00 0.14841215E+04</pdfrwt>
<pdfrwt beam="2">  1       -1 0.11830151E+00 0.14841215E+04</pdfrwt>
<totfact> 0.28199138E+01</totfact>
</mgrwt>
</event>
<event>
12    6  0.9533401E-008  0.3238044E+04  0.7818608E-02  0.8178841E-01
          2   -1    0    0  501    0  0.00000000000E+00  0.00000000000E+00  0.12750786413E+04  0.12750786413E+04  0.00000000000E+00 0. -1.
         -1   -1    0    0    0  501 -0.00000000000E+00 -0.00000000000E+00 -0.20557421419E+04  0.20557421419E+04  0.00000000000E+00 0.  1.
         24    2    1    2    0    0  0.10241574965E+04 -0.10422513529E+04 -0.60061758577E+02  0.14644919609E+04  0.77089743150E+02 0.  0.
        254    2    1    2    0    0 -0.10241574965E+04  0.10422513529E+04 -0.72060174204E+03  0.18663288224E+04  0.91034605639E+03 0.  0.
         23    2    4    4    0    0 -0.44201760225E+02  0.19095245863E+03  0.18219609709E+03  0.28253575474E+03  0.90633315319E+02 0.  0.
         23    2    4    4    0    0 -0.97995573626E+03  0.85129889425E+03 -0.90279783913E+03  0.15837930676E+04  0.91287952949E+02 0.  0.
          2    1    3    3  502    0  0.17669836911E+03 -0.22077666544E+03 -0.21691991390E+02  0.28361098734E+03  0.00000000000E+00 0. -1.
         -1    1    3    3    0  502  0.84745912737E+03 -0.82147468744E+03 -0.38369767187E+02  0.11808809736E+04  0.00000000000E+00 0.  1.
         11    1    5    5    0    0 -0.16850451033E+02  0.25142449180E+02 -0.53251676499E+01  0.30731707751E+02  0.00000000000E+00 0.  1.
        -11    1    5    5    0    0 -0.27351309192E+02  0.16581000945E+03  0.18752126474E+03  0.25180404699E+03  0.00000000000E+00 0. -1.
          3    1    6    6  503    0 -0.85111576370E+03  0.75770615061E+03 -0.75839295607E+03  0.13688230454E+04  0.00000000000E+00 0. -1.
         -3    1    6    6    0  503 -0.12883997257E+03  0.93592743634E+02 -0.14440488307E+03  0.21497002220E+03  0.00000000000E+00 0.  1.
<mgrwt>
<rscale>  0 0.32380444E+04</rscale>
<asrwt>0</asrwt>
<pdfrwt beam="1">  1        2 0.19616595E+00 0.32380444E+04</pdfrwt>
<pdfrwt beam="2">  1       -1 0.31626802E+00 0.32380444E+04</pdfrwt>
<totfact> 0.42304464E-01</totfact>
</mgrwt>
</event>
<event>
12    6  0.9533401E-008  0.4538293E+04  0.7818608E-02  0.7903967E-01
          2   -1    0    0  501    0  0.00000000000E+00  0.00000000000E+00  0.31200249691E+04  0.31200249691E+04  0.00000000000E+00 0. -1.
         -1   -1    0    0    0  501 -0.00000000000E+00 -0.00000000000E+00 -0.16503153055E+04  0.16503153055E+04  0.00000000000E+00 0.  1.
         24    2    1    2    0    0 -0.21764898533E+04  0.12103917302E+03  0.74342478752E+03  0.23045013766E+04  0.79294495855E+02 0.  0.
        254    2    1    2    0    0  0.21764898533E+04 -0.12103917302E+03  0.72628487599E+03  0.24658388980E+04  0.89504926512E+03 0.  0.
         23    2    4    4    0    0  0.79211643172E+03  0.35024235583E+03  0.11691422084E+03  0.87894779050E+03  0.93606272104E+02 0.  0.
         23    2    4    4    0    0  0.13843734216E+04 -0.47128152885E+03  0.60937065516E+03  0.15868911075E+04  0.91075473968E+02 0.  0.
          2    1    3    3  502    0 -0.15833466674E+03 -0.33678577737E+01  0.36712183069E+02  0.16256996507E+03  0.00000000000E+00 0. -1.
         -1    1    3    3    0  502 -0.20181551866E+04  0.12440703080E+03  0.70671260446E+03  0.21419314115E+04  0.00000000000E+00 0.  1.
         11    1    5    5    0    0  0.26927165432E+03  0.13418733913E+03 -0.19880835430E+01  0.30086112790E+03  0.00000000000E+00 0. -1.
        -11    1    5    5    0    0  0.52284477740E+03  0.21605501669E+03  0.11890230438E+03  0.57808666260E+03  0.00000000000E+00 0.  1.
          1    1    6    6  503    0  0.52315600059E+03 -0.14594257345E+03  0.26067393882E+03  0.60244695873E+03  0.00000000000E+00 0. -1.
         -1    1    6    6    0  503  0.86121742099E+03 -0.32533895540E+03  0.34869671634E+03  0.98444414879E+03  0.00000000000E+00 0.  1.
<mgrwt>
<rscale>  0 0.45382926E+04</rscale>
<asrwt>0</asrwt>
<pdfrwt beam="1">  1        2 0.48000384E+00 0.45382926E+04</pdfrwt>
<pdfrwt beam="2">  1       -1 0.25389466E+00 0.45382926E+04</pdfrwt>
<totfact> 0.82361832E-02</totfact>
</mgrwt>
</event>
<event>
12    6  0.9533401E-008  0.1267105E+04  0.7818608E-02  0.9056066E-01
         -1   -1    0    0    0  501 -0.00000000000E+00  0.00000000000E+00  0.42520034189E+03  0.42520034189E+03  0.00000000000E+00 0.  1.
          2   -1    0    0  501    0  0.00000000000E+00 -0.00000000000E+00 -0.94399940560E+03  0.94399940560E+03  0.00000000000E+00 0. -1.
         24    2    1    2    0    0  0.15957440901E+03  0.12019321027E+03  0.10661658480E+03  0.24071291161E+03  0.81640736505E+02 0.  0.
        254    2    1    2    0    0 -0.15957440901E+03 -0.12019321027E+03 -0.62541564850E+03  0.11284868359E+04  0.91783844196E+03 0.  0.
         23    2    4    4    0    0  0.21484060509E+03  0.17401284663E+03 -0.57083031167E+03  0.64057109376E+03  0.89705769346E+02 0.  0.
         23    2    4    4    0    0 -0.37441501410E+03 -0.29420605690E+03 -0.54585336836E+02  0.48791574212E+03  0.91314871228E+02 0.  0.
          4    1    3    3  502    0  0.70243617543E+02  0.22986411551E+02  0.49329556091E+01  0.74073443099E+02  0.00000000000E+00 0. -1.
         -3    1    3    3    0  502  0.89330791469E+02  0.97206798719E+02  0.10168362919E+03  0.16663946852E+03  0.00000000000E+00 0.  1.
         11    1    5    5    0    0  0.74932533524E+01  0.25825010696E+01 -0.83784610287E+02  0.84158654210E+02  0.00000000000E+00 0. -1.
        -11    1    5    5    0    0  0.20734735173E+03  0.17143034556E+03 -0.48704570138E+03  0.55641243955E+03  0.00000000000E+00 0.  1.
          2    1    6    6  503    0 -0.36033342089E+03 -0.27321332935E+03 -0.30868264375E+02  0.45325329264E+03  0.00000000000E+00 0. -1.
         -2    1    6    6    0  503 -0.14081593204E+02 -0.20992727559E+02 -0.23717072461E+02  0.34662449476E+02  0.00000000000E+00 0.  1.
<mgrwt>
<rscale>  0 0.12671052E+04</rscale>
<asrwt>0</asrwt>
<pdfrwt beam="1">  1        2 0.14523068E+00 0.12671052E+04</pdfrwt>
<pdfrwt beam="2">  1       -1 0.65415438E-01 0.12671052E+04</pdfrwt>
<totfact> 0.72764490E+01</totfact>
</mgrwt>
</event>
<event>
12    6  0.9533401E-008  0.1431305E+04  0.7818608E-02  0.8931465E-01
         -1   -1    0    0    0  501 -0.00000000000E+00  0.00000000000E+00  0.21752179399E+03  0.21752179399E+03  0.00000000000E+00 0.  1.
          2   -1    0    0  501    0  0.00000000000E+00 -0.00000000000E+00 -0.23545152252E+04  0.23545152252E+04  0.00000000000E+00 0. -1.
         24    2    1    2    0    0 -0.17597450603E+03  0.37496273425E+03 -0.47601078591E+03  0.63586006621E+03  0.78534557011E+02 0.  0.
        254    2    1    2    0    0  0.17597450603E+03 -0.37496273425E+03 -0.16609826453E+04  0.19361769530E+04  0.90462907672E+03 0.  0.
         23    2    4    4    0    0 -0.89792145644E+02  0.22819057443E+03 -0.82950022459E+03  0.87065308379E+03  0.99159477780E+02 0.  0.
         23    2    4    4    0    0  0.26576665168E+03 -0.60315330869E+03 -0.83148242075E+03  0.10655238692E+04  0.97735730285E+02 0.  0.
          4    1    3    3  502    0 -0.12356258875E+03  0.17840974807E+03 -0.22229581573E+03  0.31066570657E+03  0.00000000000E+00 0. -1.
         -3    1    3    3    0  502 -0.52411917284E+02  0.19655298618E+03 -0.25371497018E+03  0.32519435964E+03  0.00000000000E+00 0.  1.
         11    1    5    5    0    0 -0.91862748914E+02  0.10945332007E+03 -0.51578404234E+03  0.53521208155E+03  0.00000000000E+00 0. -1.
        -11    1    5    5    0    0  0.20706032694E+01  0.11873725436E+03 -0.31371618226E+03  0.33544100224E+03  0.00000000000E+00 0.  1.
          3    1    6    6  503    0  0.16420909835E+03 -0.27398290548E+03 -0.35489984005E+03  0.47747791252E+03  0.00000000000E+00 0. -1.
         -3    1    6    6    0  503  0.10155755332E+03 -0.32917040321E+03 -0.47658258069E+03  0.58804595671E+03  0.00000000000E+00 0.  1.
<mgrwt>
<rscale>  0 0.14313048E+04</rscale>
<asrwt>0</asrwt>
<pdfrwt beam="1">  1        2 0.36223311E+00 0.14313048E+04</pdfrwt>
<pdfrwt beam="2">  1       -1 0.33464892E-01 0.14313048E+04</pdfrwt>
<totfact> 0.39345312E+01</totfact>
</mgrwt>
</event>
<event>
12    6  0.9533401E-008  0.1424249E+04  0.7818608E-02  0.8936451E-01
         -3   -1    0    0    0  501 -0.00000000000E+00  0.00000000000E+00  0.16260791616E+04  0.16260791616E+04  0.00000000000E+00 0.  1.
          2   -1    0    0  501    0  0.00000000000E+00 -0.00000000000E+00 -0.31186741153E+03  0.31186741153E+03  0.00000000000E+00 0. -1.
         24    2    1    2    0    0 -0.10563464762E+03  0.45699154860E+02 -0.15519735952E+03  0.21077824014E+03  0.84226804413E+02 0.  0.
        254    2    1    2    0    0  0.10563464762E+03 -0.45699154860E+02  0.14694091096E+04  0.17271683330E+04  0.90038893129E+03 0.  0.
         23    2    4    4    0    0  0.83196546630E+01 -0.46149858920E+03  0.73396565528E+03  0.87179351685E+03  0.90929579376E+02 0.  0.
         23    2    4    4    0    0  0.97314992957E+02  0.41579943434E+03  0.73544345436E+03  0.85537481618E+03  0.91812984614E+02 0.  0.
          4    1    3    3  502    0 -0.69991992777E+02  0.17282356287E+02 -0.14800523592E+03  0.16463021822E+03  0.00000000000E+00 0. -1.
         -3    1    3    3    0  502 -0.35642654843E+02  0.28416798573E+02 -0.71921236045E+01  0.46148021922E+02  0.00000000000E+00 0.  1.
         11    1    5    5    0    0  0.31930032158E+02 -0.61399740937E+02  0.12199425084E+03  0.14025709386E+03  0.00000000000E+00 0. -1.
        -11    1    5    5    0    0 -0.23610377495E+02 -0.40009884826E+03  0.61197140444E+03  0.73153642299E+03  0.00000000000E+00 0.  1.
          2    1    6    6  503    0 -0.16559380364E+02  0.90946535137E+02  0.14766112416E+03  0.17421048453E+03  0.00000000000E+00 0. -1.
         -2    1    6    6    0  503  0.11387437332E+03  0.32485289920E+03  0.58778233019E+03  0.68116433165E+03  0.00000000000E+00 0.  1.
<mgrwt>
<rscale>  0 0.14242487E+04</rscale>
<asrwt>0</asrwt>
<pdfrwt beam="1">  1        2 0.47979603E-01 0.14242487E+04</pdfrwt>
<pdfrwt beam="2">  1       -3 0.25016602E+00 0.14242487E+04</pdfrwt>
<totfact> 0.46445790E+00</totfact>
</mgrwt>
</event>
<event>
12    6  0.9533401E-008  0.2379632E+04  0.7818608E-02  0.8447169E-01
          2   -1    0    0  501    0  0.00000000000E+00  0.00000000000E+00  0.16762538347E+04  0.16762538347E+04  0.00000000000E+00 0. -1.
         -1   -1    0    0    0  501 -0.00000000000E+00 -0.00000000000E+00 -0.84453924561E+03  0.84453924561E+03  0.00000000000E+00 0.  1.
         24    2    1    2    0    0  0.30095827665E+03  0.95782090673E+03  0.19075815596E+03  0.10250368260E+04  0.79467269770E+02 0.  0.
        254    2    1    2    0    0 -0.30095827665E+03 -0.95782090673E+03  0.64095643315E+03  0.14957562543E+04  0.90469047163E+03 0.  0.
         23    2    4    4    0    0 -0.32739790363E+03 -0.10905962802E+04  0.41140225021E+03  0.12141967461E+04  0.91827517739E+02 0.  0.
         23    2    4    4    0    0  0.26439626980E+02  0.13277537346E+03  0.22955418294E+03  0.28155950824E+03  0.90842061308E+02 0.  0.
          2    1    3    3  502    0  0.10366697713E+03  0.28099847665E+03  0.23208446559E+02  0.30040908445E+03  0.00000000000E+00 0. -1.
         -1    1    3    3    0  502  0.19729129952E+03  0.67682243008E+03  0.16754970940E+03  0.72462774157E+03  0.00000000000E+00 0.  1.
         11    1    5    5    0    0 -0.17655071195E+03 -0.50640907899E+03  0.23548888985E+03  0.58572632382E+03  0.00000000000E+00 0.  1.
        -11    1    5    5    0    0 -0.15084719169E+03 -0.58418720120E+03  0.17591336035E+03  0.62847042225E+03  0.00000000000E+00 0. -1.
          3    1    6    6  503    0 -0.26237785368E+02  0.44206321970E+02  0.12307712502E+03  0.13338140420E+03  0.00000000000E+00 0. -1.
         -3    1    6    6    0  503  0.52677412347E+02  0.88569051491E+02  0.10647705792E+03  0.14817810404E+03  0.00000000000E+00 0.  1.
<mgrwt>
<rscale>  0 0.23796320E+04</rscale>
<asrwt>0</asrwt>
<pdfrwt beam="1">  1        2 0.25788520E+00 0.23796320E+04</pdfrwt>
<pdfrwt beam="2">  1       -1 0.12992912E+00 0.23796320E+04</pdfrwt>
<totfact> 0.52660553E+00</totfact>
</mgrwt>
</event>
<event>
12    6  0.9533401E-008  0.1139808E+04  0.7818608E-02  0.9167238E-01
          2   -1    0    0  501    0  0.00000000000E+00  0.00000000000E+00  0.20681191241E+04  0.20681191241E+04  0.00000000000E+00 0. -1.
         -1   -1    0    0    0  501 -0.00000000000E+00 -0.00000000000E+00 -0.15704637422E+03  0.15704637422E+03  0.00000000000E+00 0.  1.
         24    2    1    2    0    0 -0.27102450303E+02  0.28848092857E+02  0.74668872701E+03  0.75243094514E+03  0.83913746727E+02 0.  0.
        254    2    1    2    0    0  0.27102450303E+02 -0.28848092857E+02  0.11643840229E+04  0.14727345532E+04  0.90088298694E+03 0.  0.
         23    2    4    4    0    0  0.30435450925E+03 -0.12842818011E+03  0.90133413513E+02  0.35546463347E+03  0.95423313033E+02 0.  0.
         23    2    4    4    0    0 -0.27725205894E+03  0.99580087252E+02  0.10742506094E+04  0.11172699197E+04  0.86560983328E+02 0.  0.
          2    1    3    3  502    0 -0.53682611566E+02  0.28518775466E+02  0.38527664233E+03  0.39004260596E+03  0.00000000000E+00 0. -1.
         -1    1    3    3    0  502  0.26580161263E+02  0.32931739102E+00  0.36141208468E+03  0.36238833918E+03  0.00000000000E+00 0.  1.
         11    1    5    5    0    0  0.10003510602E+02 -0.94972669332E+01 -0.15625100608E+02  0.20842554368E+02  0.00000000000E+00 0. -1.
        -11    1    5    5    0    0  0.29435099865E+03 -0.11893091318E+03  0.10575851412E+03  0.33462207910E+03  0.00000000000E+00 0.  1.
          1    1    6    6  503    0 -0.92999577188E+01  0.15167810711E+02  0.22716381480E+02  0.28854560868E+02  0.00000000000E+00 0. -1.
         -1    1    6    6    0  503 -0.26795210123E+03  0.84412276541E+02  0.10515342279E+04  0.10884153588E+04  0.00000000000E+00 0.  1.
<mgrwt>
<rscale>  0 0.11398081E+04</rscale>
<asrwt>0</asrwt>
<pdfrwt beam="1">  1        2 0.31817215E+00 0.11398081E+04</pdfrwt>
<pdfrwt beam="2">  1       -1 0.24160982E-01 0.11398081E+04</pdfrwt>
<totfact> 0.10283206E+02</totfact>
</mgrwt>
</event>
<event>
12    6  0.9533401E-008  0.2156541E+04  0.7818608E-02  0.8536738E-01
          2   -1    0    0  501    0  0.00000000000E+00  0.00000000000E+00  0.51695694281E+03  0.51695694281E+03  0.00000000000E+00 0. -1.
         -1   -1    0    0    0  501 -0.00000000000E+00 -0.00000000000E+00 -0.22490599539E+04  0.22490599539E+04  0.00000000000E+00 0.  1.
         24    2    1    2    0    0  0.53225076358E+03  0.25218982832E+03  0.13589726467E+03  0.60993708326E+03  0.81636965589E+02 0.  0.
        254    2    1    2    0    0 -0.53225076358E+03 -0.25218982832E+03 -0.18680002758E+04  0.21560798135E+04  0.90131267986E+03 0.  0.
         23    2    4    4    0    0 -0.54463204898E+03 -0.39308331107E+02 -0.43433349692E+03  0.70393008332E+03  0.93288595126E+02 0.  0.
         23    2    4    4    0    0  0.12381285406E+02 -0.21288149722E+03 -0.14336667789E+04  0.14521497302E+04  0.88693730641E+02 0.  0.
          2    1    3    3  502    0  0.48494238771E+03  0.20513705241E+03  0.10742382658E+03  0.53739204328E+03  0.00000000000E+00 0. -1.
         -1    1    3    3    0  502  0.47308375872E+02  0.47052775912E+02  0.28473438086E+02  0.72545039976E+02  0.00000000000E+00 0.  1.
         11    1    5    5    0    0 -0.15590605463E+03  0.17802301236E+02 -0.16421689417E+03  0.22713610046E+03  0.00000000000E+00 0. -1.
        -11    1    5    5    0    0 -0.38872599435E+03 -0.57110632343E+02 -0.27011660274E+03  0.47679398286E+03  0.00000000000E+00 0.  1.
          1    1    6    6  503    0  0.21400350510E+02 -0.14079754310E+03 -0.66618058809E+03  0.68123307252E+03  0.00000000000E+00 0. -1.
         -1    1    6    6    0  503 -0.90190651040E+01 -0.72083954115E+02 -0.76748619078E+03  0.77091665763E+03  0.00000000000E+00 0.  1.
<mgrwt>
<rscale>  0 0.21565409E+04</rscale>
<asrwt>0</asrwt>
<pdfrwt beam="1">  1        2 0.79531837E-01 0.21565409E+04</pdfrwt>
<pdfrwt beam="2">  1       -1 0.34600923E+00 0.21565409E+04</pdfrwt>
<totfact> 0.10255068E+00</totfact>
</mgrwt>
</event>
<event>
12    6  0.9533401E-008  0.1617370E+04  0.7818608E-02  0.8809947E-01
          2   -1    0    0  501    0  0.00000000000E+00  0.00000000000E+00  0.11196699274E+04  0.11196699274E+04  0.00000000000E+00 0. -1.
         -1   -1    0    0    0  501 -0.00000000000E+00 -0.00000000000E+00 -0.58407540105E+03  0.58407540105E+03  0.00000000000E+00 0.  1.
         24    2    1    2    0    0 -0.18683774849E+03 -0.25375197290E+03  0.68793078176E+03  0.76089324575E+03  0.80070986795E+02 0.  0.
        254    2    1    2    0    0  0.18683774849E+03  0.25375197290E+03 -0.15233625545E+03  0.94285208267E+03  0.87548004378E+03 0.  0.
         23    2    4    4    0    0  0.24439566856E+03  0.21898179738E+03 -0.48479429160E+03  0.59240568902E+03  0.90756403758E+02 0.  0.
         23    2    4    4    0    0 -0.57557920070E+02  0.34770175516E+02  0.33245803615E+03  0.35044639365E+03  0.88104765790E+02 0.  0.
          2    1    3    3  502    0 -0.16055654703E+03 -0.15592737936E+03  0.46919060035E+03  0.51983802466E+03  0.00000000000E+00 0. -1.
         -3    1    3    3    0  502 -0.26281201463E+02 -0.97824593535E+02  0.21874018141E+03  0.24105522109E+03  0.00000000000E+00 0.  1.
         11    1    5    5    0    0  0.24569767338E+03  0.19085023970E+03 -0.42935110932E+03  0.53022027099E+03  0.00000000000E+00 0. -1.
        -11    1    5    5    0    0 -0.13020048210E+01  0.28131557676E+02 -0.55443182279E+02  0.62185418026E+02  0.00000000000E+00 0.  1.
          4    1    6    6  503    0 -0.70349557257E+02  0.41059738271E+02  0.18299398904E+03  0.20030417453E+03  0.00000000000E+00 0. -1.
         -4    1    6    6    0  503  0.12791637187E+02 -0.62895627553E+01  0.14946404711E+03  0.15014221911E+03  0.00000000000E+00 0.  1.
<mgrwt>
<rscale>  0 0.16173703E+04</rscale>
<asrwt>0</asrwt>
<pdfrwt beam="1">  1        2 0.17225691E+00 0.16173703E+04</pdfrwt>
<pdfrwt beam="2">  1       -1 0.89857754E-01 0.16173703E+04</pdfrwt>
<totfact> 0.28055525E+01</totfact>
</mgrwt>
</event>
<event>
12    6  0.9533401E-008  0.2002556E+04  0.7818608E-02  0.8605427E-01
          2   -1    0    0  501    0  0.00000000000E+00  0.00000000000E+00  0.11705280610E+04  0.11705280610E+04  0.00000000000E+00 0. -1.
         -1   -1    0    0    0  501 -0.00000000000E+00 -0.00000000000E+00 -0.85649998499E+03  0.85649998499E+03  0.00000000000E+00 0.  1.
         24    2    1    2    0    0 -0.17862572183E+03  0.76721895216E+03  0.13886602512E+02  0.79193417265E+03  0.80217373598E+02 0.  0.
        254    2    1    2    0    0  0.17862572183E+03 -0.76721895216E+03  0.30014147349E+03  0.12350938733E+04  0.90268483025E+03 0.  0.
         23    2    4    4    0    0  0.13358144640E+03  0.18186332803E+03  0.45596845622E+02  0.24759434059E+03  0.91135131860E+02 0.  0.
         23    2    4    4    0    0  0.45044275431E+02 -0.94908228018E+03  0.25454462786E+03  0.98749953273E+03  0.87041359529E+02 0.  0.
          4    1    3    3  502    0 -0.16094454380E+03  0.72755694081E+03  0.29653905455E+02  0.74573561160E+03  0.00000000000E+00 0. -1.
         -3    1    3    3    0  502 -0.17681178031E+02  0.39662011350E+02 -0.15767302944E+02  0.46198561049E+02  0.00000000000E+00 0.  1.
         11    1    5    5    0    0  0.28664145435E+01  0.52731138607E+02 -0.13633618988E+02  0.54540488427E+02  0.00000000000E+00 0. -1.
        -11    1    5    5    0    0  0.13071503186E+03  0.12913218942E+03  0.59230464610E+02  0.19305385217E+03  0.00000000000E+00 0.  1.
          3    1    6    6  503    0  0.35189897109E+02 -0.39836749859E+03  0.14838416105E+03  0.42655931832E+03  0.00000000000E+00 0. -1.
         -3    1    6    6    0  503  0.98543783223E+01 -0.55071478159E+03  0.10616046681E+03  0.56094021442E+03  0.00000000000E+00 0.  1.
<mgrwt>
<rscale>  0 0.20025556E+04</rscale>
<asrwt>0</asrwt>
<pdfrwt beam="1">  1        2 0.18008124E+00 0.20025556E+04</pdfrwt>
<pdfrwt beam="2">  1       -1 0.13176923E+00 0.20025556E+04</pdfrwt>
<totfact> 0.10241035E+01</totfact>
</mgrwt>
</event>
<event>
12    6  0.9533401E-008  0.2087364E+04  0.7818608E-02  0.8566830E-01
          2   -1    0    0  501    0  0.00000000000E+00  0.00000000000E+00  0.60985491334E+03  0.60985491334E+03  0.00000000000E+00 0. -1.
         -1   -1    0    0    0  501 -0.00000000000E+00 -0.00000000000E+00 -0.17861164953E+04  0.17861164953E+04  0.00000000000E+00 0.  1.
         24    2    1    2    0    0  0.26459627121E+02  0.58881980316E+02  0.48863088227E+03  0.49956693333E+03  0.81484859273E+02 0.  0.
        254    2    1    2    0    0 -0.26459627121E+02 -0.58881980316E+02 -0.16648924642E+04  0.18964044753E+04  0.90571287783E+03 0.  0.
         23    2    4    4    0    0  0.11234843781E+03  0.35747701710E+03 -0.11537755479E+04  0.12165286005E+04  0.91278866448E+02 0.  0.
         23    2    4    4    0    0 -0.13880806493E+03 -0.41635899742E+03 -0.51111691626E+03  0.67987587484E+03  0.91477917938E+02 0.  0.
          2    1    3    3  502    0 -0.27760982885E+02  0.11874203515E+02  0.19322304593E+03  0.19556792774E+03  0.00000000000E+00 0. -1.
         -1    1    3    3    0  502  0.54220610005E+02  0.47007776801E+02  0.29540783634E+03  0.30399900559E+03  0.00000000000E+00 0.  1.
         11    1    5    5    0    0  0.41080580569E+02  0.24627524509E+03 -0.83334646071E+03  0.86994565004E+03  0.00000000000E+00 0.  1.
        -11    1    5    5    0    0  0.71267857240E+02  0.11120177201E+03 -0.32042908724E+03  0.34658295042E+03  0.00000000000E+00 0. -1.
          1    1    6    6  503    0 -0.70950783612E+02 -0.91350627410E+02 -0.11655534555E+03  0.16420748887E+03  0.00000000000E+00 0. -1.
         -1    1    6    6    0  503 -0.67857281318E+02 -0.32500837001E+03 -0.39456157071E+03  0.51566838597E+03  0.00000000000E+00 0.  1.
<mgrwt>
<rscale>  0 0.20873638E+04</rscale>
<asrwt>0</asrwt>
<pdfrwt beam="1">  1        2 0.93823832E-01 0.20873638E+04</pdfrwt>
<pdfrwt beam="2">  1       -1 0.27478716E+00 0.20873638E+04</pdfrwt>
<totfact> 0.24641639E+00</totfact>
</mgrwt>
</event>
<event>
12    6  0.9533401E-008  0.1534465E+04  0.7818608E-02  0.8861852E-01
         -1   -1    0    0    0  501 -0.00000000000E+00  0.00000000000E+00  0.54928539039E+03  0.54928539039E+03  0.00000000000E+00 0.  1.
          2   -1    0    0  501    0  0.00000000000E+00 -0.00000000000E+00 -0.10716569030E+04  0.10716569030E+04  0.00000000000E+00 0. -1.
         24    2    1    2    0    0  0.53403142870E+02 -0.31298095492E+03 -0.57253363363E+03  0.65940098528E+03  0.78777686782E+02 0.  0.
        254    2    1    2    0    0 -0.53403142870E+02  0.31298095492E+03  0.50162121004E+02  0.96154130813E+03  0.90622098577E+03 0.  0.
         23    2    4    4    0    0 -0.86173646145E+01 -0.17770212059E+03  0.33093219109E+03  0.38715876239E+03  0.93399622902E+02 0.  0.
         23    2    4    4    0    0 -0.44785778255E+02  0.49068307551E+03 -0.28077007009E+03  0.57438254575E+03  0.91147298813E+02 0.  0.
          2    1    3    3  502    0  0.30356220787E+02 -0.20867657088E+03 -0.44923606416E+03  0.49626651380E+03  0.00000000000E+00 0. -1.
         -3    1    3    3    0  502  0.23046922083E+02 -0.10430438404E+03 -0.12329756947E+03  0.16313447147E+03  0.00000000000E+00 0.  1.
         11    1    5    5    0    0 -0.42079962988E+02 -0.90890479460E+02  0.11792550183E+03  0.15471983235E+03  0.00000000000E+00 0. -1.
        -11    1    5    5    0    0  0.33462598373E+02 -0.86811641125E+02  0.21300668926E+03  0.23243893003E+03  0.00000000000E+00 0.  1.
          4    1    6    6  503    0  0.21832197846E+02  0.14202259609E+03 -0.55896859692E+02  0.15418015951E+03  0.00000000000E+00 0. -1.
         -4    1    6    6    0  503 -0.66617976102E+02  0.34866047941E+03 -0.22487321039E+03  0.42020238623E+03  0.00000000000E+00 0.  1.
<mgrwt>
<rscale>  0 0.15344647E+04</rscale>
<asrwt>0</asrwt>
<pdfrwt beam="1">  1        2 0.16487029E+00 0.15344647E+04</pdfrwt>
<pdfrwt beam="2">  1       -1 0.84505446E-01 0.15344647E+04</pdfrwt>
<totfact> 0.34586406E+01</totfact>
</mgrwt>
</event>
<event>
12    6  0.9533401E-008  0.2246200E+04  0.7818608E-02  0.8499441E-01
          2   -1    0    0  501    0  0.00000000000E+00  0.00000000000E+00  0.78723671154E+03  0.78723671154E+03  0.00000000000E+00 0. -1.
         -1   -1    0    0    0  501 -0.00000000000E+00 -0.00000000000E+00 -0.16022549931E+04  0.16022549931E+04  0.00000000000E+00 0.  1.
         24    2    1    2    0    0  0.15250028735E+03  0.61808805971E+03 -0.10831979458E+04  0.12589253739E+04  0.79285055542E+02 0.  0.
        254    2    1    2    0    0 -0.15250028735E+03 -0.61808805971E+03  0.26817966424E+03  0.11305663308E+04  0.89496966916E+03 0.  0.
         23    2    4    4    0    0  0.19874276757E+03 -0.51120332105E+03  0.44613196478E+03  0.71240050888E+03  0.87482752269E+02 0.  0.
         23    2    4    4    0    0 -0.35124305492E+03 -0.10688473866E+03 -0.17795230053E+03  0.41816582187E+03  0.91649344407E+02 0.  0.
          4    1    3    3  502    0  0.19547431564E+01  0.34263628589E+02 -0.98487324616E+02  0.10429559135E+03  0.00000000000E+00 0. -1.
         -3    1    3    3    0  502  0.15054554419E+03  0.58382443112E+03 -0.98471062123E+03  0.11546297826E+04  0.00000000000E+00 0.  1.
         11    1    5    5    0    0  0.11378442283E+03 -0.28790112894E+03  0.19548303888E+03  0.36612507891E+03  0.00000000000E+00 0.  1.
        -11    1    5    5    0    0  0.84958344740E+02 -0.22330219211E+03  0.25064892590E+03  0.34627542997E+03  0.00000000000E+00 0. -1.
          3    1    6    6  503    0 -0.30624421842E+03 -0.10998460738E+03 -0.18207575868E+03  0.37287225303E+03  0.00000000000E+00 0. -1.
         -3    1    6    6    0  503 -0.44998836492E+02  0.30998687218E+01  0.41234581407E+01  0.45293568845E+02  0.00000000000E+00 0.  1.
<mgrwt>
<rscale>  0 0.22462003E+04</rscale>
<asrwt>0</asrwt>
<pdfrwt beam="1">  1        2 0.12111334E+00 0.22462003E+04</pdfrwt>
<pdfrwt beam="2">  1       -1 0.24650077E+00 0.22462003E+04</pdfrwt>
<totfact> 0.26867825E+00</totfact>
</mgrwt>
</event>
<event>
12    6  0.9533401E-008  0.3484051E+04  0.7818608E-02  0.8117580E-01
         -1   -1    0    0    0  501 -0.00000000000E+00  0.00000000000E+00  0.11841270897E+04  0.11841270897E+04  0.00000000000E+00 0.  1.
          2   -1    0    0  501    0  0.00000000000E+00 -0.00000000000E+00 -0.25627767372E+04  0.25627767372E+04  0.00000000000E+00 0. -1.
         24    2    1    2    0    0  0.26941371615E+03 -0.58192141415E+03  0.96236919663E+03  0.11591253326E+04  0.78745052696E+02 0.  0.
        254    2    1    2    0    0 -0.26941371615E+03  0.58192141415E+03 -0.23410188442E+04  0.25877784944E+04  0.89722462323E+03 0.  0.
         23    2    4    4    0    0 -0.33579652889E+03  0.87899648281E+02 -0.25427566303E+03  0.44042805796E+03  0.93995236317E+02 0.  0.
         23    2    4    4    0    0  0.66382812736E+02  0.49402176587E+03 -0.20867431811E+04  0.21473504364E+04  0.90291803499E+02 0.  0.
          2    1    3    3  502    0  0.12617742905E+03 -0.35708424005E+03  0.53673786095E+03  0.65689986259E+03  0.00000000000E+00 0. -1.
         -1    1    3    3    0  502  0.14323628710E+03 -0.22483717410E+03  0.42563133567E+03  0.50222546999E+03  0.00000000000E+00 0.  1.
         11    1    5    5    0    0 -0.19594774332E+03  0.95221828292E+02 -0.13356392709E+03  0.25554263307E+03  0.00000000000E+00 0.  1.
        -11    1    5    5    0    0 -0.13984878556E+03 -0.73221800107E+01 -0.12071173594E+03  0.18488542489E+03  0.00000000000E+00 0. -1.
          4    1    6    6  503    0  0.22009924028E+02  0.39530118984E+03 -0.15466766675E+04  0.15965450765E+04  0.00000000000E+00 0. -1.
         -4    1    6    6    0  503  0.44372888708E+02  0.98720576034E+02 -0.54006651359E+03  0.55080535989E+03  0.00000000000E+00 0.  1.
<mgrwt>
<rscale>  0 0.34840513E+04</rscale>
<asrwt>0</asrwt>
<pdfrwt beam="1">  1        2 0.39427334E+00 0.34840513E+04</pdfrwt>
<pdfrwt beam="2">  1       -1 0.18217340E+00 0.34840513E+04</pdfrwt>
<totfact> 0.60056643E-01</totfact>
</mgrwt>
</event>
<event>
12    6  0.9533401E-008  0.1608724E+04  0.7818608E-02  0.8815206E-01
         -1   -1    0    0    0  501 -0.00000000000E+00  0.00000000000E+00  0.51802027817E+03  0.51802027817E+03  0.00000000000E+00 0.  1.
          2   -1    0    0  501    0  0.00000000000E+00 -0.00000000000E+00 -0.12489829046E+04  0.12489829046E+04  0.00000000000E+00 0. -1.
         24    2    1    2    0    0  0.51832534829E+03  0.15734443977E+03 -0.20390169399E+03  0.58492314212E+03  0.84502911061E+02 0.  0.
        254    2    1    2    0    0 -0.51832534829E+03 -0.15734443977E+03 -0.52706093241E+03  0.11820800406E+04  0.90890129088E+03 0.  0.
         23    2    4    4    0    0 -0.20608219443E+03 -0.13411827905E+03  0.23568508287E+03  0.35230665970E+03  0.90082964782E+02 0.  0.
         23    2    4    4    0    0 -0.31224315386E+03 -0.23226160720E+02 -0.76274601529E+03  0.82977338093E+03  0.93312047389E+02 0.  0.
          4    1    3    3  502    0  0.58814840169E+02  0.63249176548E+01  0.21012407233E+01  0.59191259659E+02  0.00000000000E+00 0. -1.
         -3    1    3    3    0  502  0.45951050812E+03  0.15101952212E+03 -0.20600293471E+03  0.52573188247E+03  0.00000000000E+00 0.  1.
         11    1    5    5    0    0  0.71948536187E+01 -0.12565148964E+02  0.24618611082E+02  0.28560898072E+02  0.00000000000E+00 0. -1.
        -11    1    5    5    0    0 -0.21327704805E+03 -0.12155313009E+03  0.21106647179E+03  0.32374576163E+03  0.00000000000E+00 0.  1.
          1    1    6    6  503    0 -0.60663282738E+02 -0.34966141598E+02 -0.23138602254E+03  0.24174812586E+03  0.00000000000E+00 0. -1.
         -1    1    6    6    0  503 -0.25157987112E+03  0.11739980878E+02 -0.53135999275E+03  0.58802525507E+03  0.00000000000E+00 0.  1.
<mgrwt>
<rscale>  0 0.16087243E+04</rscale>
<asrwt>0</asrwt>
<pdfrwt beam="1">  1        2 0.19215121E+00 0.16087243E+04</pdfrwt>
<pdfrwt beam="2">  1       -1 0.79695428E-01 0.16087243E+04</pdfrwt>
<totfact> 0.30436281E+01</totfact>
</mgrwt>
</event>
<event>
12    6  0.9533401E-008  0.2652977E+04  0.7818608E-02  0.8350425E-01
          2   -1    0    0  501    0  0.00000000000E+00  0.00000000000E+00  0.15562892266E+04  0.15562892266E+04  0.00000000000E+00 0. -1.
         -1   -1    0    0    0  501 -0.00000000000E+00 -0.00000000000E+00 -0.11306204225E+04  0.11306204225E+04  0.00000000000E+00 0.  1.
         24    2    1    2    0    0 -0.51775041210E+02  0.97712156914E+03 -0.46824142121E+03  0.10869094214E+04  0.68372845407E+02 0.  0.
        254    2    1    2    0    0  0.51775041210E+02 -0.97712156914E+03  0.89391022535E+03  0.16000002277E+04  0.89636935571E+03 0.  0.
         23    2    4    4    0    0 -0.20557414864E+02 -0.54504650521E+03 -0.49063232200E+02  0.55630231382E+03  0.97809833156E+02 0.  0.
         23    2    4    4    0    0  0.72332456074E+02 -0.43207506394E+03  0.94297345755E+03  0.10436979139E+04  0.90474022287E+02 0.  0.
          4    1    3    3  502    0 -0.10087662353E+02  0.25740945000E+03 -0.15695781395E+03  0.30165732420E+03  0.00000000000E+00 0. -1.
         -3    1    3    3    0  502 -0.41687378857E+02  0.71971211914E+03 -0.31128360727E+03  0.78525209719E+03  0.00000000000E+00 0.  1.
         11    1    5    5    0    0 -0.42631609969E+02 -0.51185385398E+03 -0.38517235492E+02  0.51506834443E+03  0.00000000000E+00 0. -1.
        -11    1    5    5    0    0  0.22074195105E+02 -0.33192651221E+02 -0.10545996707E+02  0.41233969384E+02  0.00000000000E+00 0.  1.
          1    1    6    6  503    0  0.51310312900E+01  0.30511784101E+01  0.61527190069E+01  0.85728130136E+01  0.00000000000E+00 0.  1.
         -1    1    6    6    0  503  0.67201424784E+02 -0.43512624235E+03  0.93682073855E+03  0.10351251009E+04  0.00000000000E+00 0. -1.
<mgrwt>
<rscale>  0 0.26529775E+04</rscale>
<asrwt>0</asrwt>
<pdfrwt beam="1">  1        2 0.23942911E+00 0.26529775E+04</pdfrwt>
<pdfrwt beam="2">  1       -1 0.17394160E+00 0.26529775E+04</pdfrwt>
<totfact> 0.27247584E+00</totfact>
</mgrwt>
</event>
<event>
12    6  0.9533401E-008  0.1773982E+04  0.7818608E-02  0.8720259E-01
         -3   -1    0    0    0  501 -0.00000000000E+00  0.00000000000E+00  0.16099623641E+04  0.16099623641E+04  0.00000000000E+00 0.  1.
          4   -1    0    0  501    0  0.00000000000E+00 -0.00000000000E+00 -0.48867785219E+03  0.48867785219E+03  0.00000000000E+00 0. -1.
         24    2    1    2    0    0 -0.52698796713E+03 -0.17238056564E+03  0.81013849861E+03  0.98500490354E+03  0.80491590579E+02 0.  0.
        254    2    1    2    0    0  0.52698796713E+03  0.17238056564E+03  0.31114601330E+03  0.11136353128E+04  0.91429775856E+03 0.  0.
         23    2    4    4    0    0  0.74593869113E+03  0.25664848839E+03  0.13809252972E+03  0.80591716654E+03  0.90221699385E+02 0.  0.
         23    2    4    4    0    0 -0.21895072400E+03 -0.84267922752E+02  0.17305348358E+03  0.30771814621E+03  0.98500999918E+02 0.  0.
          4    1    3    3  502    0 -0.36276895136E+03 -0.87193833861E+02  0.49967576705E+03  0.62360239649E+03  0.00000000000E+00 0. -1.
         -3    1    3    3    0  502 -0.16421901578E+03 -0.85186731777E+02  0.31046273157E+03  0.36140250705E+03  0.00000000000E+00 0.  1.
         11    1    5    5    0    0  0.19849924352E+03  0.90575892036E+02  0.73363895144E+02  0.23019166581E+03  0.00000000000E+00 0.  1.
        -11    1    5    5    0    0  0.54743944761E+03  0.16607259636E+03  0.64728634574E+02  0.57572550073E+03  0.00000000000E+00 0. -1.
          4    1    6    6  503    0 -0.21281769901E+03 -0.92747051297E+02  0.18116920212E+03  0.29447524231E+03  0.00000000000E+00 0. -1.
         -4    1    6    6    0  503 -0.61330249927E+01  0.84791285451E+01 -0.81157185401E+01  0.13242903906E+02  0.00000000000E+00 0.  1.
<mgrwt>
<rscale>  0 0.17739819E+04</rscale>
<asrwt>0</asrwt>
<pdfrwt beam="1">  1        4 0.75181209E-01 0.17739819E+04</pdfrwt>
<pdfrwt beam="2">  1       -3 0.24768652E+00 0.17739819E+04</pdfrwt>
<totfact> 0.26113025E-01</totfact>
</mgrwt>
</event>
<event>
12    6  0.9533401E-008  0.2185798E+04  0.7818608E-02  0.8524363E-01
          2   -1    0    0  501    0  0.00000000000E+00  0.00000000000E+00  0.27068024361E+04  0.27068024361E+04  0.00000000000E+00 0. -1.
         -1   -1    0    0    0  501 -0.00000000000E+00 -0.00000000000E+00 -0.44126892004E+03  0.44126892004E+03  0.00000000000E+00 0.  1.
         24    2    1    2    0    0  0.48965629676E+01 -0.28203447307E+02 -0.36045855768E+03  0.37044659386E+03  0.80504014348E+02 0.  0.
        254    2    1    2    0    0 -0.48965629676E+01  0.28203447307E+02  0.26259920737E+04  0.27776247623E+04  0.90473506505E+03 0.  0.
         23    2    4    4    0    0 -0.44299877145E+02  0.17864439481E+03  0.25845273339E+04  0.25926202803E+04  0.89566061026E+02 0.  0.
         23    2    4    4    0    0  0.39403314177E+02 -0.15044094750E+03  0.41464739816E+02  0.18500448195E+03  0.91226278237E+02 0.  0.
          4    1    3    3  502    0 -0.13069712018E+02  0.14400165692E+02 -0.24927141716E+03  0.25002884145E+03  0.00000000000E+00 0. -1.
         -3    1    3    3    0  502  0.17966274986E+02 -0.42603612999E+02 -0.11118714052E+03  0.12041775241E+03  0.00000000000E+00 0.  1.
         11    1    5    5    0    0 -0.79078088389E+01  0.16013594427E+03  0.22283556577E+04  0.22341161544E+04  0.00000000000E+00 0. -1.
        -11    1    5    5    0    0 -0.36392068306E+02  0.18508450535E+02  0.35617167616E+03  0.35850412589E+03  0.00000000000E+00 0.  1.
          3    1    6    6  503    0  0.15778422117E+02 -0.15200732352E+03  0.22092899275E+02  0.15441269768E+03  0.00000000000E+00 0. -1.
         -3    1    6    6    0  503  0.23624892060E+02  0.15663760190E+01  0.19371840540E+02  0.30591784266E+02  0.00000000000E+00 0.  1.
<mgrwt>
<rscale>  0 0.21857976E+04</rscale>
<asrwt>0</asrwt>
<pdfrwt beam="1">  1        2 0.41643113E+00 0.21857976E+04</pdfrwt>
<pdfrwt beam="2">  1       -1 0.67887528E-01 0.21857976E+04</pdfrwt>
<totfact> 0.60216592E+00</totfact>
</mgrwt>
</event>
<event>
12    6  0.9533401E-008  0.1550060E+04  0.7818608E-02  0.8851829E-01
         -1   -1    0    0    0  501 -0.00000000000E+00  0.00000000000E+00  0.22218714299E+03  0.22218714299E+03  0.00000000000E+00 0.  1.
          2   -1    0    0  501    0  0.00000000000E+00 -0.00000000000E+00 -0.27034495004E+04  0.27034495004E+04  0.00000000000E+00 0. -1.
         24    2    1    2    0    0 -0.17465382960E+03 -0.19105479294E+03 -0.16606546369E+04  0.16826111223E+04  0.80002948656E+02 0.  0.
        254    2    1    2    0    0  0.17465382960E+03  0.19105479294E+03 -0.82060772048E+03  0.12430255210E+04  0.89705602999E+03 0.  0.
         23    2    4    4    0    0 -0.33098441539E+03  0.12170640902E+03 -0.14552609314E+03  0.39149508638E+03  0.87905777114E+02 0.  0.
         23    2    4    4    0    0  0.50563824499E+03  0.69348383921E+02 -0.67508162734E+03  0.85153043466E+03  0.94284910933E+02 0.  0.
          4    1    3    3  502    0 -0.13098703164E+03 -0.13353315733E+03 -0.13882852221E+04  0.14008299556E+04  0.00000000000E+00 0. -1.
         -3    1    3    3    0  502 -0.43666797955E+02 -0.57521635612E+02 -0.27236941482E+03  0.28178116676E+03  0.00000000000E+00 0.  1.
         11    1    5    5    0    0 -0.26876870106E+03  0.13212171663E+03 -0.10967618080E+03  0.31893828135E+03  0.00000000000E+00 0.  1.
        -11    1    5    5    0    0 -0.62215714329E+02 -0.10415307609E+02 -0.35849912339E+02  0.72556805034E+02  0.00000000000E+00 0. -1.
          4    1    6    6  503    0  0.97776852854E+02 -0.10240672070E+02 -0.18057747596E+03  0.20560498327E+03  0.00000000000E+00 0.  1.
         -4    1    6    6    0  503  0.40786139213E+03  0.79589055992E+02 -0.49450415138E+03  0.64592545139E+03  0.00000000000E+00 0. -1.
<mgrwt>
<rscale>  0 0.15500603E+04</rscale>
<asrwt>0</asrwt>
<pdfrwt beam="1">  1        2 0.41591530E+00 0.15500603E+04</pdfrwt>
<pdfrwt beam="2">  1       -1 0.34182638E-01 0.15500603E+04</pdfrwt>
<totfact> 0.23544643E+01</totfact>
</mgrwt>
</event>
<event>
12    6  0.9533401E-008  0.1277876E+04  0.7818608E-02  0.9047296E-01
          2   -1    0    0  501    0  0.00000000000E+00  0.00000000000E+00  0.23854778804E+04  0.23854778804E+04  0.00000000000E+00 0. -1.
         -1   -1    0    0    0  501 -0.00000000000E+00 -0.00000000000E+00 -0.17113630352E+03  0.17113630352E+03  0.00000000000E+00 0.  1.
         24    2    1    2    0    0 -0.17506203067E+03 -0.23534033761E+03  0.30524514382E+03  0.43076704591E+03  0.79711109199E+02 0.  0.
        254    2    1    2    0    0  0.17506203067E+03  0.23534033761E+03  0.19090964331E+04  0.21258471380E+04  0.88800060493E+03 0.  0.
         23    2    4    4    0    0 -0.86635836193E+02  0.44968022707E+03  0.15704144218E+04  0.16387774832E+04  0.98346878574E+02 0.  0.
         23    2    4    4    0    0  0.26169786686E+03 -0.21433988946E+03  0.33868201124E+03  0.48706965478E+03  0.90022120269E+02 0.  0.
          4    1    3    3  502    0 -0.80093679463E+02 -0.12915343756E+03  0.10379721546E+03  0.18403659924E+03  0.00000000000E+00 0. -1.
         -3    1    3    3    0  502 -0.94968351203E+02 -0.10618690005E+03  0.20144792836E+03  0.24673044667E+03  0.00000000000E+00 0.  1.
         11    1    5    5    0    0 -0.71510900430E+02  0.43653741213E+03  0.14275826631E+04  0.14945470822E+04  0.00000000000E+00 0. -1.
        -11    1    5    5    0    0 -0.15124935763E+02  0.13142814943E+02  0.14283175874E+03  0.14423040100E+03  0.00000000000E+00 0.  1.
          4    1    6    6  503    0  0.85427001829E+02 -0.11932718991E+03  0.17535757869E+03  0.22866357668E+03  0.00000000000E+00 0. -1.
         -4    1    6    6    0  503  0.17627086503E+03 -0.95012699553E+02  0.16332443255E+03  0.25840607810E+03  0.00000000000E+00 0.  1.
<mgrwt>
<rscale>  0 0.12778762E+04</rscale>
<asrwt>0</asrwt>
<pdfrwt beam="1">  1        2 0.36699657E+00 0.12778762E+04</pdfrwt>
<pdfrwt beam="2">  1       -1 0.26328664E-01 0.12778762E+04</pdfrwt>
<totfact> 0.58274043E+01</totfact>
</mgrwt>
</event>
<event>
12    6  0.9533401E-008  0.1610539E+04  0.7818608E-02  0.8814100E-01
         -1   -1    0    0    0  501 -0.00000000000E+00  0.00000000000E+00  0.12599943064E+04  0.12599943064E+04  0.00000000000E+00 0.  1.
          2   -1    0    0  501    0  0.00000000000E+00 -0.00000000000E+00 -0.51465222652E+03  0.51465222652E+03  0.00000000000E+00 0. -1.
         24    2    1    2    0    0 -0.22408789226E+03 -0.49420426756E+03  0.17186442491E+03  0.57591071493E+03  0.87650039834E+02 0.  0.
        254    2    1    2    0    0  0.22408789226E+03  0.49420426756E+03  0.57347765501E+03  0.11987358180E+04  0.90201868003E+03 0.  0.
         23    2    4    4    0    0 -0.21962825516E+03  0.47629771058E+03  0.51694480874E+03  0.74206428949E+03  0.91276474994E+02 0.  0.
         23    2    4    4    0    0  0.44371614742E+03  0.17906556979E+02  0.56532846268E+02  0.45667152854E+03  0.90267701934E+02 0.  0.
          2    1    3    3  502    0 -0.12833739129E+03 -0.31178490857E+03  0.14901094767E+03  0.36862525381E+03  0.00000000000E+00 0. -1.
         -1    1    3    3    0  502 -0.95750500974E+02 -0.18241935899E+03  0.22853477237E+02  0.20728546112E+03  0.00000000000E+00 0.  1.
         11    1    5    5    0    0 -0.33661346534E+02  0.17504016304E+03  0.17986369119E+03  0.25322537853E+03  0.00000000000E+00 0. -1.
        -11    1    5    5    0    0 -0.18596690862E+03  0.30125754755E+03  0.33708111756E+03  0.48883891096E+03  0.00000000000E+00 0.  1.
          1    1    6    6  503    0  0.21917877629E+03  0.54001627301E+02  0.29284945965E+02  0.22762495422E+03  0.00000000000E+00 0. -1.
         -1    1    6    6    0  503  0.22453737113E+03 -0.36095070321E+02  0.27247900303E+02  0.22904657432E+03  0.00000000000E+00 0.  1.
<mgrwt>
<rscale>  0 0.16105389E+04</rscale>
<asrwt>0</asrwt>
<pdfrwt beam="1">  1        2 0.79177266E-01 0.16105389E+04</pdfrwt>
<pdfrwt beam="2">  1       -1 0.19384528E+00 0.16105389E+04</pdfrwt>
<totfact> 0.10826586E+01</totfact>
</mgrwt>
</event>
<event>
12    6  0.9533401E-008  0.1319529E+04  0.7818608E-02  0.9014220E-01
          2   -1    0    0  501    0  0.00000000000E+00  0.00000000000E+00  0.12637948471E+04  0.12637948471E+04  0.00000000000E+00 0. -1.
         -1   -1    0    0    0  501 -0.00000000000E+00 -0.00000000000E+00 -0.34443052305E+03  0.34443052305E+03  0.00000000000E+00 0.  1.
         24    2    1    2    0    0  0.25242593507E+03  0.23713835053E+03  0.18842097612E+03  0.40231537198E+03  0.80010901121E+02 0.  0.
        254    2    1    2    0    0 -0.25242593507E+03 -0.23713835053E+03  0.73094334794E+03  0.12059099982E+04  0.89442008912E+03 0.  0.
         23    2    4    4    0    0  0.17788846536E+03 -0.68566524844E+02 -0.11158234341E+03  0.24076890417E+03  0.95777718797E+02 0.  0.
         23    2    4    4    0    0 -0.43031440043E+03 -0.16857182569E+03  0.84252569135E+03  0.96514109401E+03  0.89782220547E+02 0.  0.
          2    1    3    3  502    0  0.84990656876E+02  0.13430778338E+03  0.87008640692E+02  0.18119739509E+03  0.00000000000E+00 0. -1.
         -1    1    3    3    0  502  0.16743527820E+03  0.10283056715E+03  0.10141233543E+03  0.22111797688E+03  0.00000000000E+00 0.  1.
         11    1    5    5    0    0  0.97124940180E+02 -0.49270942179E+02 -0.11404854391E+03  0.15769575174E+03  0.00000000000E+00 0. -1.
        -11    1    5    5    0    0  0.80763525178E+02 -0.19295582665E+02  0.24662005048E+01  0.83073152429E+02  0.00000000000E+00 0.  1.
          4    1    6    6  503    0 -0.32267467055E+02 -0.31183952532E+02  0.46626429747E+02  0.64712072108E+02  0.00000000000E+00 0.  1.
         -4    1    6    6    0  503 -0.39804693337E+03 -0.13738787315E+03  0.79589926160E+03  0.90042902190E+03  0.00000000000E+00 0. -1.
<mgrwt>
<rscale>  0 0.13195295E+04</rscale>
<asrwt>0</asrwt>
<pdfrwt beam="1">  1        2 0.19442997E+00 0.13195295E+04</pdfrwt>
<pdfrwt beam="2">  1       -1 0.52989312E-01 0.13195295E+04</pdfrwt>
<totfact> 0.69546321E+01</totfact>
</mgrwt>
</event>
<event>
12    6  0.9533401E-008  0.1585142E+04  0.7818608E-02  0.8829728E-01
         -1   -1    0    0    0  501 -0.00000000000E+00  0.00000000000E+00  0.26728790120E+03  0.26728790120E+03  0.00000000000E+00 0.  1.
          2   -1    0    0  501    0  0.00000000000E+00 -0.00000000000E+00 -0.23501574475E+04  0.23501574475E+04  0.00000000000E+00 0. -1.
         24    2    1    2    0    0  0.27604837453E+03 -0.44207980209E+03 -0.90794332368E+03  0.10499837022E+04  0.80420391640E+02 0.  0.
        254    2    1    2    0    0 -0.27604837453E+03  0.44207980209E+03 -0.11749262226E+04  0.15674616465E+04  0.89713272604E+03 0.  0.
         23    2    4    4    0    0 -0.56980774213E+03  0.32830277758E+03 -0.55404725633E+03  0.86475331434E+03  0.91467784803E+02 0.  0.
         23    2    4    4    0    0  0.29375936759E+03  0.11377702451E+03 -0.62087896626E+03  0.70270833213E+03  0.95228839910E+02 0.  0.
          2    1    3    3  502    0  0.22378408755E+03 -0.31851377135E+03 -0.61600385896E+03  0.72869135759E+03  0.00000000000E+00 0. -1.
         -3    1    3    3    0  502  0.52264286988E+02 -0.12356603074E+03 -0.29193946473E+03  0.32129234462E+03  0.00000000000E+00 0.  1.
         11    1    5    5    0    0 -0.38398233673E+02  0.14283167588E+02 -0.10509945104E+02  0.42295297276E+02  0.00000000000E+00 0. -1.
        -11    1    5    5    0    0 -0.53140950846E+03  0.31401960999E+03 -0.54353731123E+03  0.82245801706E+03  0.00000000000E+00 0.  1.
          1    1    6    6  503    0  0.46181348483E+02  0.54389423936E+02 -0.17952049704E+03  0.19318005912E+03  0.00000000000E+00 0. -1.
         -1    1    6    6    0  503  0.24757801911E+03  0.59387600569E+02 -0.44135846922E+03  0.50952827302E+03  0.00000000000E+00 0.  1.
<mgrwt>
<rscale>  0 0.15851418E+04</rscale>
<asrwt>0</asrwt>
<pdfrwt beam="1">  1        2 0.36156269E+00 0.15851418E+04</pdfrwt>
<pdfrwt beam="2">  1       -1 0.41121215E-01 0.15851418E+04</pdfrwt>
<totfact> 0.26908704E+01</totfact>
</mgrwt>
</event>
<event>
12    6  0.9533401E-008  0.1817586E+04  0.7818608E-02  0.8697003E-01
         -1   -1    0    0    0  501 -0.00000000000E+00  0.00000000000E+00  0.57773997458E+03  0.57773997458E+03  0.00000000000E+00 0.  1.
          2   -1    0    0  501    0  0.00000000000E+00 -0.00000000000E+00 -0.14295444102E+04  0.14295444102E+04  0.00000000000E+00 0. -1.
         24    2    1    2    0    0 -0.37808312756E+03  0.47630456311E+03  0.27242088983E+02  0.61408395612E+03  0.80895522600E+02 0.  0.
        254    2    1    2    0    0  0.37808312756E+03 -0.47630456311E+03 -0.87904652463E+03  0.13932004287E+04  0.89357246705E+03 0.  0.
         23    2    4    4    0    0  0.62463794659E+03 -0.17131560187E+03 -0.39387393109E+03  0.76366452790E+03  0.92332214365E+02 0.  0.
         23    2    4    4    0    0 -0.24655481903E+03 -0.30498896123E+03 -0.48517259354E+03  0.62953590080E+03  0.84353183753E+02 0.  0.
          4    1    3    3  502    0 -0.98951801362E+02  0.96131698515E+02 -0.22667459271E+02  0.13980907039E+03  0.00000000000E+00 0. -1.
         -3    1    3    3    0  502 -0.27913132620E+03  0.38017286459E+03  0.49909548255E+02  0.47427488574E+03  0.00000000000E+00 0.  1.
         11    1    5    5    0    0  0.40024322870E+03 -0.75254463760E+02 -0.28063811747E+03  0.49458632150E+03  0.00000000000E+00 0.  1.
        -11    1    5    5    0    0  0.22439471789E+03 -0.96061138113E+02 -0.11323581362E+03  0.26907820640E+03  0.00000000000E+00 0. -1.
          3    1    6    6  503    0 -0.17319219039E+03 -0.25134487429E+03 -0.41259338056E+03  0.51322809581E+03  0.00000000000E+00 0. -1.
         -3    1    6    6    0  503 -0.73362628638E+02 -0.53644086938E+02 -0.72579212980E+02  0.11630780499E+03  0.00000000000E+00 0.  1.
<mgrwt>
<rscale>  0 0.18175863E+04</rscale>
<asrwt>0</asrwt>
<pdfrwt beam="1">  1        2 0.21992990E+00 0.18175863E+04</pdfrwt>
<pdfrwt beam="2">  1       -1 0.88883075E-01 0.18175863E+04</pdfrwt>
<totfact> 0.18568335E+01</totfact>
</mgrwt>
</event>
<event>
12    6  0.9533401E-008  0.1874923E+04  0.7818608E-02  0.8667440E-01
         -3   -1    0    0    0  501 -0.00000000000E+00  0.00000000000E+00  0.27723527927E+03  0.27723527927E+03  0.00000000000E+00 0.  1.
          2   -1    0    0  501    0  0.00000000000E+00 -0.00000000000E+00 -0.31699935477E+04  0.31699935477E+04  0.00000000000E+00 0. -1.
         24    2    1    2    0    0 -0.28604524751E+03 -0.32597137667E+03 -0.21655718685E+04  0.22099727415E+04  0.78732320574E+02 0.  0.
        254    2    1    2    0    0  0.28604524751E+03  0.32597137667E+03 -0.72718639990E+03  0.12372560855E+04  0.90217699973E+03 0.  0.
         23    2    4    4    0    0  0.54854194201E+02  0.58496850305E+03 -0.62870617701E+03  0.86530002460E+03  0.90970013692E+02 0.  0.
         23    2    4    4    0    0  0.23119105331E+03 -0.25899712638E+03 -0.98480222891E+02  0.37195606088E+03  0.90134024239E+02 0.  0.
          2    1    3    3  502    0 -0.28674251619E+03 -0.32873878916E+03 -0.21256467367E+04  0.21699457393E+04  0.00000000000E+00 0. -1.
         -1    1    3    3    0  502  0.69726867670E+00  0.27674124879E+01 -0.39925131815E+02  0.40027002210E+02  0.00000000000E+00 0.  1.
         11    1    5    5    0    0 -0.36125863015E+00  0.42743786847E+03 -0.44273973865E+03  0.61540371960E+03  0.00000000000E+00 0.  1.
        -11    1    5    5    0    0  0.55215452831E+02  0.15753063458E+03 -0.18596643836E+03  0.24989630501E+03  0.00000000000E+00 0. -1.
          4    1    6    6  503    0  0.12798121636E+03 -0.19768508453E+03 -0.41709213753E+02  0.23916154143E+03  0.00000000000E+00 0. -1.
         -4    1    6    6    0  503  0.10320983695E+03 -0.61312041846E+02 -0.56771009137E+02  0.13279451946E+03  0.00000000000E+00 0.  1.
<mgrwt>
<rscale>  0 0.18749230E+04</rscale>
<asrwt>0</asrwt>
<pdfrwt beam="1">  1        2 0.48769134E+00 0.18749230E+04</pdfrwt>
<pdfrwt beam="2">  1       -3 0.42651579E-01 0.18749230E+04</pdfrwt>
<totfact> 0.45262029E+00</totfact>
</mgrwt>
</event>
<event>
12    6  0.9533401E-008  0.1405199E+04  0.7818608E-02  0.8950064E-01
         -1   -1    0    0    0  501 -0.00000000000E+00  0.00000000000E+00  0.66193772717E+03  0.66193772717E+03  0.00000000000E+00 0.  1.
          2   -1    0    0  501    0  0.00000000000E+00 -0.00000000000E+00 -0.74575930038E+03  0.74575930038E+03  0.00000000000E+00 0. -1.
         24    2    1    2    0    0  0.12481587867E+03 -0.33887749984E+03 -0.22144237453E+03  0.43126672681E+03  0.80853577234E+02 0.  0.
        254    2    1    2    0    0 -0.12481587867E+03  0.33887749984E+03  0.13762080132E+03  0.97643030074E+03  0.89669375139E+03 0.  0.
         23    2    4    4    0    0 -0.19319144021E+03  0.51780136922E+03 -0.18535988854E+03  0.58986603711E+03  0.90235596764E+02 0.  0.
         23    2    4    4    0    0  0.68375561542E+02 -0.17892386938E+03  0.32298068986E+03  0.38656426363E+03  0.91795617765E+02 0.  0.
          4    1    3    3  502    0  0.11663862401E+03 -0.22206966583E+03 -0.12890296058E+03  0.28202035093E+03  0.00000000000E+00 0. -1.
         -3    1    3    3    0  502  0.81772546641E+01 -0.11680783401E+03 -0.92539413949E+02  0.14924637588E+03  0.00000000000E+00 0.  1.
         11    1    5    5    0    0 -0.21555318554E+02  0.10809757614E+02 -0.25321982644E+01  0.24246538840E+02  0.00000000000E+00 0. -1.
        -11    1    5    5    0    0 -0.17163612166E+03  0.50699161160E+03 -0.18282769028E+03  0.56561949827E+03  0.00000000000E+00 0.  1.
          4    1    6    6  503    0 -0.46225291856E+01 -0.49599729781E+02  0.30144698874E+02  0.58225456981E+02  0.00000000000E+00 0. -1.
         -4    1    6    6    0  503  0.72998090728E+02 -0.12932413960E+03  0.29283599099E+03  0.32833880665E+03  0.00000000000E+00 0.  1.
<mgrwt>
<rscale>  0 0.14051992E+04</rscale>
<asrwt>0</asrwt>
<pdfrwt beam="1">  1        2 0.11473220E+00 0.14051992E+04</pdfrwt>
<pdfrwt beam="2">  1       -1 0.10183657E+00 0.14051992E+04</pdfrwt>
<totfact> 0.38380650E+01</totfact>
</mgrwt>
</event>
<event>
12    6  0.9533401E-008  0.1543834E+04  0.7818608E-02  0.8855816E-01
          2   -1    0    0  501    0  0.00000000000E+00  0.00000000000E+00  0.14696723847E+04  0.14696723847E+04  0.00000000000E+00 0. -1.
         -1   -1    0    0    0  501 -0.00000000000E+00 -0.00000000000E+00 -0.40543454149E+03  0.40543454149E+03  0.00000000000E+00 0.  1.
         24    2    1    2    0    0 -0.16385704199E+03  0.36078318179E+03 -0.22706557106E+02  0.40626097847E+03  0.86710786058E+02 0.  0.
        254    2    1    2    0    0  0.16385704199E+03 -0.36078318179E+03  0.10869444004E+04  0.14688459478E+04  0.90501196363E+03 0.  0.
         23    2    4    4    0    0  0.26995172233E+03 -0.57880524471E+03  0.10097919390E+04  0.11984874639E+04  0.93824290077E+02 0.  0.
         23    2    4    4    0    0 -0.10609468034E+03  0.21802206292E+03  0.77152461385E+02  0.27035848386E+03  0.91386576612E+02 0.  0.
          4    1    3    3  502    0 -0.18291880821E+02  0.70534430225E+02  0.27128122596E+02  0.77753673783E+02  0.00000000000E+00 0. -1.
         -3    1    3    3    0  502 -0.14556516117E+03  0.29024875156E+03 -0.49834679702E+02  0.32850730469E+03  0.00000000000E+00 0.  1.
         11    1    5    5    0    0  0.26469011285E+03 -0.52269623020E+03  0.95142054557E+03  0.11173510010E+04  0.00000000000E+00 0. -1.
        -11    1    5    5    0    0  0.52616094811E+01 -0.56109014506E+02  0.58371393410E+02  0.81136462899E+02  0.00000000000E+00 0.  1.
          2    1    6    6  503    0 -0.67559737472E+02  0.18183927183E+03  0.24114038568E+02  0.19547717453E+03  0.00000000000E+00 0. -1.
         -2    1    6    6    0  503 -0.38534942865E+02  0.36182791089E+02  0.53038422817E+02  0.74881309334E+02  0.00000000000E+00 0.  1.
<mgrwt>
<rscale>  0 0.15438341E+04</rscale>
<asrwt>0</asrwt>
<pdfrwt beam="1">  1        2 0.22610344E+00 0.15438341E+04</pdfrwt>
<pdfrwt beam="2">  1       -1 0.62374546E-01 0.15438341E+04</pdfrwt>
<totfact> 0.37780876E+01</totfact>
</mgrwt>
</event>
<event>
12    6  0.9533401E-008  0.1783006E+04  0.7818608E-02  0.8715389E-01
          2   -1    0    0  501    0  0.00000000000E+00  0.00000000000E+00  0.63350380244E+03  0.63350380244E+03  0.00000000000E+00 0. -1.
         -1   -1    0    0    0  501 -0.00000000000E+00 -0.00000000000E+00 -0.12545745998E+04  0.12545745998E+04  0.00000000000E+00 0.  1.
         24    2    1    2    0    0 -0.29510413812E+03 -0.44072757558E+03  0.18938653197E+03  0.56829511153E+03  0.75926458432E+02 0.  0.
        254    2    1    2    0    0  0.29510413812E+03  0.44072757558E+03 -0.81045732937E+03  0.13197832907E+04  0.89647063733E+03 0.  0.
         23    2    4    4    0    0  0.31261551655E+03  0.23432674582E+03  0.73135408504E+02  0.40793533012E+03  0.91787584073E+02 0.  0.
         23    2    4    4    0    0 -0.17511378429E+02  0.20640082975E+03 -0.88359273787E+03  0.91184796062E+03  0.88445610262E+02 0.  0.
          4    1    3    3  502    0 -0.26918454201E+03 -0.42690590453E+03  0.16783431652E+03  0.53186213137E+03  0.00000000000E+00 0. -1.
         -3    1    3    3    0  502 -0.25919596110E+02 -0.13821671049E+02  0.21552215449E+02  0.36432980167E+02  0.00000000000E+00 0.  1.
         11    1    5    5    0    0  0.52956845195E+02  0.49943347336E+01  0.22768249200E+02  0.57859865227E+02  0.00000000000E+00 0. -1.
        -11    1    5    5    0    0  0.25965867135E+03  0.22933241109E+03  0.50367159304E+02  0.35007546490E+03  0.00000000000E+00 0.  1.
          3    1    6    6  503    0 -0.13800615194E+02 -0.41206782086E+01 -0.46397880455E+02  0.48581892505E+02  0.00000000000E+00 0. -1.
         -3    1    6    6    0  503 -0.37107632349E+01  0.21052150796E+03 -0.83719485742E+03  0.86326606812E+03  0.00000000000E+00 0.  1.
<mgrwt>
<rscale>  0 0.17830062E+04</rscale>
<asrwt>0</asrwt>
<pdfrwt beam="1">  1        2 0.97462125E-01 0.17830062E+04</pdfrwt>
<pdfrwt beam="2">  1       -1 0.19301147E+00 0.17830062E+04</pdfrwt>
<totfact> 0.84333715E+00</totfact>
</mgrwt>
</event>
<event>
12    6  0.9533401E-008  0.1188360E+04  0.7818608E-02  0.9123107E-01
         -3   -1    0    0    0  501 -0.00000000000E+00  0.00000000000E+00  0.12187052196E+04  0.12187052196E+04  0.00000000000E+00 0.  1.
          2   -1    0    0  501    0  0.00000000000E+00 -0.00000000000E+00 -0.28969253100E+03  0.28969253100E+03  0.00000000000E+00 0. -1.
         24    2    1    2    0    0  0.21493220550E+03  0.96597478971E+02  0.10019842450E+03  0.26836548303E+03  0.80332946600E+02 0.  0.
        254    2    1    2    0    0 -0.21493220550E+03 -0.96597478971E+02  0.82881426406E+03  0.12400322675E+04  0.89175109434E+03 0.  0.
         23    2    4    4    0    0 -0.44429687329E+02 -0.47886620032E+03  0.38699104220E+03  0.62420376603E+03  0.92636061299E+02 0.  0.
         23    2    4    4    0    0 -0.17050251817E+03  0.38226872135E+03  0.44182322186E+03  0.61582850148E+03  0.94002658689E+02 0.  0.
          2    1    3    3  502    0  0.11177061947E+03  0.48027738772E+02  0.83296930803E+01  0.12193735627E+03  0.00000000000E+00 0. -1.
         -1    1    3    3    0  502  0.10316158603E+03  0.48569740199E+02  0.91868731416E+02  0.14642812676E+03  0.00000000000E+00 0.  1.
         11    1    5    5    0    0  0.14508695096E+02 -0.30659369604E+03  0.22604343678E+03  0.38119002085E+03  0.00000000000E+00 0.  1.
        -11    1    5    5    0    0 -0.58938382425E+02 -0.17227250429E+03  0.16094760542E+03  0.24301374518E+03  0.00000000000E+00 0. -1.
          1    1    6    6  503    0  0.49120693934E+01  0.75368938341E+01  0.32855750314E+02  0.34065136475E+02  0.00000000000E+00 0. -1.
         -1    1    6    6    0  503 -0.17541458756E+03  0.37473182752E+03  0.40896747154E+03  0.58176336501E+03  0.00000000000E+00 0.  1.
<mgrwt>
<rscale>  0 0.11883599E+04</rscale>
<asrwt>0</asrwt>
<pdfrwt beam="1">  1        2 0.44568082E-01 0.11883599E+04</pdfrwt>
<pdfrwt beam="2">  1       -3 0.18749311E+00 0.11883599E+04</pdfrwt>
<totfact> 0.12389812E+01</totfact>
</mgrwt>
</event>
<event>
12    6  0.9533401E-008  0.2722986E+04  0.7818608E-02  0.8327585E-01
         -1   -1    0    0    0  501 -0.00000000000E+00  0.00000000000E+00  0.10404876151E+04  0.10404876151E+04  0.00000000000E+00 0.  1.
          2   -1    0    0  501    0  0.00000000000E+00 -0.00000000000E+00 -0.17815325172E+04  0.17815325172E+04  0.00000000000E+00 0. -1.
         24    2    1    2    0    0  0.18747135023E+02 -0.92893378768E+02 -0.15816300759E+04  0.15871636728E+04  0.92488876687E+02 0.  0.
        254    2    1    2    0    0 -0.18747135023E+02  0.92893378768E+02  0.84058517381E+03  0.12348564594E+04  0.89961458750E+03 0.  0.
         23    2    4    4    0    0  0.66397120980E+01 -0.14864184503E+03 -0.13885866901E+03  0.22188687240E+03  0.88394402049E+02 0.  0.
         23    2    4    4    0    0 -0.25386847121E+02  0.24153522380E+03  0.97944384282E+03  0.10129695870E+04  0.88393363008E+02 0.  0.
          2    1    3    3  502    0 -0.21777470997E+02 -0.79563086522E+02 -0.12629202108E+04  0.12656113155E+04  0.00000000000E+00 0. -1.
         -3    1    3    3    0  502  0.40524606019E+02 -0.13330292245E+02 -0.31870986512E+03  0.32155235734E+03  0.00000000000E+00 0.  1.
         11    1    5    5    0    0 -0.21482551249E+02 -0.13715196043E+01 -0.28515120782E+02  0.35728044830E+02  0.00000000000E+00 0.  1.
        -11    1    5    5    0    0  0.28122263347E+02 -0.14727032543E+03 -0.11034354823E+03  0.18615882757E+03  0.00000000000E+00 0. -1.
          4    1    6    6  503    0 -0.20679161315E+02  0.24015223513E+03  0.97877394917E+03  0.10080174440E+04  0.00000000000E+00 0. -1.
         -4    1    6    6    0  503 -0.47076858059E+01  0.13829886687E+01  0.66989365242E+00  0.49521430523E+01  0.00000000000E+00 0.  1.
<mgrwt>
<rscale>  0 0.27229855E+04</rscale>
<asrwt>0</asrwt>
<pdfrwt beam="1">  1        2 0.27408192E+00 0.27229855E+04</pdfrwt>
<pdfrwt beam="2">  1       -1 0.16007502E+00 0.27229855E+04</pdfrwt>
<totfact> 0.25699518E+00</totfact>
</mgrwt>
</event>
<event>
12    6  0.9533401E-008  0.1601053E+04  0.7818608E-02  0.8819901E-01
         -1   -1    0    0    0  501 -0.00000000000E+00  0.00000000000E+00  0.36551973083E+03  0.36551973083E+03  0.00000000000E+00 0.  1.
          2   -1    0    0  501    0  0.00000000000E+00 -0.00000000000E+00 -0.17532369970E+04  0.17532369970E+04  0.00000000000E+00 0. -1.
         24    2    1    2    0    0 -0.10037639267E+03 -0.51002020129E+03 -0.68823281610E+03  0.86627317053E+03  0.81047954282E+02 0.  0.
        254    2    1    2    0    0  0.10037639267E+03  0.51002020129E+03 -0.69948445004E+03  0.12524835573E+04  0.89957797853E+03 0.  0.
         23    2    4    4    0    0  0.41082119298E+03  0.22507888294E+03 -0.66573151121E+03  0.81911128051E+03  0.91160784874E+02 0.  0.
         23    2    4    4    0    0 -0.31044480031E+03  0.28494131836E+03 -0.33752938827E+02  0.43337227676E+03  0.95418763540E+02 0.  0.
          4    1    3    3  502    0 -0.55042162261E+02 -0.43221768344E+03 -0.55852464980E+03  0.70837246554E+03  0.00000000000E+00 0. -1.
         -3    1    3    3    0  502 -0.45334230408E+02 -0.77802517852E+02 -0.12970816630E+03  0.15790070499E+03  0.00000000000E+00 0.  1.
         11    1    5    5    0    0  0.18122023114E+03  0.14995699269E+03 -0.31106404708E+03  0.38998552950E+03  0.00000000000E+00 0. -1.
        -11    1    5    5    0    0  0.22960096184E+03  0.75121890244E+02 -0.35466746412E+03  0.42912575101E+03  0.00000000000E+00 0.  1.
          4    1    6    6  503    0 -0.71778143258E+02  0.21354978218E+02  0.81445353390E+01  0.75329080707E+02  0.00000000000E+00 0. -1.
         -4    1    6    6    0  503 -0.23866665705E+03  0.26358634014E+03 -0.41897474166E+02  0.35804319605E+03  0.00000000000E+00 0.  1.
<mgrwt>
<rscale>  0 0.16010530E+04</rscale>
<asrwt>0</asrwt>
<pdfrwt beam="1">  1        2 0.26972876E+00 0.16010530E+04</pdfrwt>
<pdfrwt beam="2">  1       -1 0.56233806E-01 0.16010530E+04</pdfrwt>
<totfact> 0.32016303E+01</totfact>
</mgrwt>
</event>
<event>
12    6  0.9533401E-008  0.2025322E+04  0.7818608E-02  0.8594873E-01
         -1   -1    0    0    0  501 -0.00000000000E+00  0.00000000000E+00  0.71074868191E+03  0.71074868191E+03  0.00000000000E+00 0.  1.
          2   -1    0    0  501    0  0.00000000000E+00 -0.00000000000E+00 -0.14428192464E+04  0.14428192464E+04  0.00000000000E+00 0. -1.
         24    2    1    2    0    0 -0.92472026770E+02 -0.59131931687E+03 -0.86976789610E+03  0.10584345635E+04  0.74685486372E+02 0.  0.
        254    2    1    2    0    0  0.92472026770E+02  0.59131931687E+03  0.13769733161E+03  0.10951333648E+04  0.90672317791E+03 0.  0.
         23    2    4    4    0    0  0.41785083843E+03  0.60601641092E+03  0.38061380997E+02  0.74208663188E+03  0.85957472109E+02 0.  0.
         23    2    4    4    0    0 -0.32537881166E+03 -0.14697094045E+02  0.99635950617E+02  0.35304673294E+03  0.92883245733E+02 0.  0.
          2    1    3    3  502    0 -0.95797728348E+02 -0.41331924969E+03 -0.58668139021E+03  0.72402006915E+03  0.00000000000E+00 0. -1.
         -1    1    3    3    0  502  0.33257015778E+01 -0.17800006718E+03 -0.28308650589E+03  0.33441449434E+03  0.00000000000E+00 0.  1.
         11    1    5    5    0    0  0.53403178314E+02  0.13753406317E+03  0.10008096099E+02  0.14787724630E+03  0.00000000000E+00 0.  1.
        -11    1    5    5    0    0  0.36444766011E+03  0.46848234775E+03  0.28053284898E+02  0.59420938558E+03  0.00000000000E+00 0. -1.
          3    1    6    6  503    0 -0.25917393476E+03  0.24585709634E+02  0.63312138797E+02  0.26792538606E+03  0.00000000000E+00 0. -1.
         -3    1    6    6    0  503 -0.66204876897E+02 -0.39282803679E+02  0.36323811820E+02  0.85121346882E+02  0.00000000000E+00 0.  1.
<mgrwt>
<rscale>  0 0.20253216E+04</rscale>
<asrwt>0</asrwt>
<pdfrwt beam="1">  1        2 0.22197219E+00 0.20253216E+04</pdfrwt>
<pdfrwt beam="2">  1       -1 0.10934595E+00 0.20253216E+04</pdfrwt>
<totfact> 0.11185786E+01</totfact>
</mgrwt>
</event>
<event>
12    6  0.9533401E-008  0.1284983E+04  0.7818608E-02  0.9041559E-01
          2   -1    0    0  501    0  0.00000000000E+00  0.00000000000E+00  0.11757131229E+04  0.11757131229E+04  0.00000000000E+00 0. -1.
         -1   -1    0    0    0  501 -0.00000000000E+00 -0.00000000000E+00 -0.35110212188E+03  0.35110212188E+03  0.00000000000E+00 0.  1.
         24    2    1    2    0    0  0.49003829767E+02  0.83364674089E+02  0.57542248501E+03  0.58900008495E+03  0.80368025942E+02 0.  0.
        254    2    1    2    0    0 -0.49003829767E+02 -0.83364674089E+02  0.24918851601E+03  0.93781515982E+03  0.89891674435E+03 0.  0.
         23    2    4    4    0    0  0.79590301102E+02  0.69604646938E+02  0.54980389151E+03  0.56566433328E+03  0.80699417101E+02 0.  0.
         23    2    4    4    0    0 -0.12859413087E+03 -0.15296932103E+03 -0.30061537551E+03  0.37215082654E+03  0.90501768126E+02 0.  0.
          2    1    3    3  502    0  0.66819376065E+02  0.66897721369E+02  0.51961449500E+03  0.52814709841E+03  0.00000000000E+00 0. -1.
         -1    1    3    3    0  502 -0.17815546297E+02  0.16466952720E+02  0.55807990012E+02  0.60852986540E+02  0.00000000000E+00 0.  1.
         11    1    5    5    0    0  0.39128213289E+02  0.78946419684E+02  0.30945732962E+03  0.32175672971E+03  0.00000000000E+00 0.  1.
        -11    1    5    5    0    0  0.40462087812E+02 -0.93417727466E+01  0.24034656189E+03  0.24390760358E+03  0.00000000000E+00 0. -1.
          3    1    6    6  503    0 -0.53291892311E+02 -0.61623229475E+01 -0.87412395829E+02  0.10256182016E+03  0.00000000000E+00 0. -1.
         -3    1    6    6    0  503 -0.75302238559E+02 -0.14680699808E+03 -0.21320297968E+03  0.26958900638E+03  0.00000000000E+00 0.  1.
<mgrwt>
<rscale>  0 0.12849831E+04</rscale>
<asrwt>0</asrwt>
<pdfrwt beam="1">  1        2 0.18087894E+00 0.12849831E+04</pdfrwt>
<pdfrwt beam="2">  1       -1 0.54015712E-01 0.12849831E+04</pdfrwt>
<totfact> 0.75812601E+01</totfact>
</mgrwt>
</event>
<event>
12    6  0.9533401E-008  0.1819498E+04  0.7818608E-02  0.8695999E-01
         -1   -1    0    0    0  501 -0.00000000000E+00  0.00000000000E+00  0.35642708627E+03  0.35642708627E+03  0.00000000000E+00 0.  1.
          2   -1    0    0  501    0  0.00000000000E+00 -0.00000000000E+00 -0.23220538142E+04  0.23220538142E+04  0.00000000000E+00 0. -1.
         24    2    1    2    0    0  0.18327357641E+02 -0.52438090362E+03 -0.13291478819E+04  0.14311626403E+04  0.79253939476E+02 0.  0.
        254    2    1    2    0    0 -0.18327357641E+02  0.52438090362E+03 -0.63647884607E+03  0.12473182602E+04  0.93562080813E+03 0.  0.
         23    2    4    4    0    0 -0.13282841140E+03  0.58120610514E+02  0.21026529556E+03  0.26965988835E+03  0.86507621766E+02 0.  0.
         23    2    4    4    0    0  0.11450105376E+03  0.46626029311E+03 -0.84674414163E+03  0.97765837185E+03  0.91274850941E+02 0.  0.
          2    1    3    3  502    0  0.20638931809E+02 -0.51311661440E+03 -0.13203007369E+04  0.14166540373E+04  0.00000000000E+00 0. -1.
         -1    1    3    3    0  502 -0.23115741686E+01 -0.11264289221E+02 -0.88471449680E+01  0.14508602996E+02  0.00000000000E+00 0.  1.
         11    1    5    5    0    0 -0.36239653215E+02 -0.19173643458E+02  0.29060287426E+02  0.50253769748E+02  0.00000000000E+00 0. -1.
        -11    1    5    5    0    0 -0.96588758188E+02  0.77294253972E+02  0.18120500814E+03  0.21940611860E+03  0.00000000000E+00 0.  1.
          4    1    6    6  503    0  0.77075814791E+02  0.13962998081E+03 -0.29664637995E+03  0.33680303963E+03  0.00000000000E+00 0.  1.
         -4    1    6    6    0  503  0.37425238971E+02  0.32663031230E+03 -0.55009776169E+03  0.64085533222E+03  0.00000000000E+00 0. -1.
<mgrwt>
<rscale>  0 0.18194976E+04</rscale>
<asrwt>0</asrwt>
<pdfrwt beam="1">  1        2 0.35723906E+00 0.18194976E+04</pdfrwt>
<pdfrwt beam="2">  1       -1 0.54834935E-01 0.18194976E+04</pdfrwt>
<totfact> 0.15895731E+01</totfact>
</mgrwt>
</event>
<event>
12    6  0.9533401E-008  0.1582059E+04  0.7818608E-02  0.8831646E-01
          2   -1    0    0  501    0  0.00000000000E+00  0.00000000000E+00  0.21769678221E+04  0.21769678221E+04  0.00000000000E+00 0. -1.
         -1   -1    0    0    0  501 -0.00000000000E+00 -0.00000000000E+00 -0.28743099364E+03  0.28743099364E+03  0.00000000000E+00 0.  1.
         24    2    1    2    0    0 -0.20965074367E+03  0.20561208441E+02 -0.11426611466E+03  0.25148744810E+03  0.76242992977E+02 0.  0.
        254    2    1    2    0    0  0.20965074367E+03 -0.20561208441E+02  0.20038029431E+04  0.22129113676E+04  0.91508157482E+03 0.  0.
         23    2    4    4    0    0 -0.85818706278E+02  0.65520031783E+02 -0.36790755401E+02  0.14677599233E+03  0.92368324272E+02 0.  0.
         23    2    4    4    0    0  0.29546944994E+03 -0.86081240224E+02  0.20405936985E+04  0.20661353753E+04  0.10089881523E+03 0.  0.
          2    1    3    3  502    0 -0.48963007682E+02 -0.87237583603E+01 -0.63064530840E+02  0.80315721570E+02  0.00000000000E+00 0. -1.
         -1    1    3    3    0  502 -0.16068773598E+03  0.29284966801E+02 -0.51201583818E+02  0.17117172653E+03  0.00000000000E+00 0.  1.
         11    1    5    5    0    0 -0.18076914714E+02 -0.19708864018E+02  0.96258322932E+01  0.28423068338E+02  0.00000000000E+00 0. -1.
        -11    1    5    5    0    0 -0.67741791565E+02  0.85228895800E+02 -0.46416587694E+02  0.11835292399E+03  0.00000000000E+00 0.  1.
          1    1    6    6  503    0  0.40662165094E+02 -0.46360183228E+02  0.27658722545E+03  0.28337814231E+03  0.00000000000E+00 0. -1.
         -1    1    6    6    0  503  0.25480728485E+03 -0.39721056996E+02  0.17640064731E+04  0.17827572330E+04  0.00000000000E+00 0.  1.
<mgrwt>
<rscale>  0 0.15820594E+04</rscale>
<asrwt>0</asrwt>
<pdfrwt beam="1">  1        2 0.33491812E+00 0.15820594E+04</pdfrwt>
<pdfrwt beam="2">  1       -1 0.44220154E-01 0.15820594E+04</pdfrwt>
<totfact> 0.29462897E+01</totfact>
</mgrwt>
</event>
<event>
12    6  0.9533401E-008  0.1897651E+04  0.7818608E-02  0.8656027E-01
          2   -1    0    0  501    0  0.00000000000E+00  0.00000000000E+00  0.81931762091E+03  0.81931762091E+03  0.00000000000E+00 0. -1.
         -1   -1    0    0    0  501 -0.00000000000E+00 -0.00000000000E+00 -0.10988040849E+04  0.10988040849E+04  0.00000000000E+00 0.  1.
         24    2    1    2    0    0 -0.44663906737E+03 -0.56985359036E+03 -0.81822200862E+02  0.73293657903E+03  0.79256453255E+02 0.  0.
        254    2    1    2    0    0  0.44663906737E+03  0.56985359036E+03 -0.19766426314E+03  0.11851851268E+04  0.91726389492E+03 0.  0.
         23    2    4    4    0    0  0.32835099355E+03 -0.18115685345E+03  0.24831194582E+02  0.38788465868E+03  0.95946546002E+02 0.  0.
         23    2    4    4    0    0  0.11828807382E+03  0.75101044381E+03 -0.22249545772E+03  0.79730046812E+03  0.90415997737E+02 0.  0.
          2    1    3    3  502    0 -0.38474246062E+03 -0.52743734996E+03 -0.65360305862E+02  0.65611652069E+03  0.00000000000E+00 0. -1.
         -1    1    3    3    0  502 -0.61896606750E+02 -0.42416240392E+02 -0.16461895000E+02  0.76820058339E+02  0.00000000000E+00 0.  1.
         11    1    5    5    0    0  0.18709594062E+02 -0.11620710737E+01 -0.19436214595E+02  0.27003069398E+02  0.00000000000E+00 0. -1.
        -11    1    5    5    0    0  0.30964139949E+03 -0.17999478238E+03  0.44267409177E+02  0.36088158928E+03  0.00000000000E+00 0.  1.
          4    1    6    6  503    0  0.14840267593E+02  0.17786820020E+03 -0.90534485066E+02  0.20013451269E+03  0.00000000000E+00 0. -1.
         -4    1    6    6    0  503  0.10344780623E+03  0.57314224361E+03 -0.13196097265E+03  0.59716595543E+03  0.00000000000E+00 0.  1.
<mgrwt>
<rscale>  0 0.18976507E+04</rscale>
<asrwt>0</asrwt>
<pdfrwt beam="1">  1        2 0.12604886E+00 0.18976507E+04</pdfrwt>
<pdfrwt beam="2">  1       -1 0.16904678E+00 0.18976507E+04</pdfrwt>
<totfact> 0.89196812E+00</totfact>
</mgrwt>
</event>
<event>
12    6  0.9533401E-008  0.1383848E+04  0.7818608E-02  0.8965594E-01
          2   -1    0    0  501    0  0.00000000000E+00  0.00000000000E+00  0.14369908113E+04  0.14369908113E+04  0.00000000000E+00 0. -1.
         -1   -1    0    0    0  501 -0.00000000000E+00 -0.00000000000E+00 -0.33316778953E+03  0.33316778953E+03  0.00000000000E+00 0.  1.
         24    2    1    2    0    0  0.28660502755E+03  0.18098896151E+03  0.56954855179E+03  0.67034667216E+03  0.10039751997E+03 0.  0.
        254    2    1    2    0    0 -0.28660502755E+03 -0.18098896151E+03  0.53427446997E+03  0.10998119287E+04  0.89957635759E+03 0.  0.
         23    2    4    4    0    0  0.29767119910E+03 -0.19678031868E+03  0.25029546772E+03  0.44381180098E+03  0.83608952468E+02 0.  0.
         23    2    4    4    0    0 -0.58427622666E+03  0.15791357170E+02  0.28397900226E+03  0.65600012768E+03  0.89799876357E+02 0.  0.
          2    1    3    3  502    0  0.21614580078E+03  0.15422012798E+03  0.50731952850E+03  0.57260453986E+03  0.00000000000E+00 0. -1.
         -1    1    3    3    0  502  0.70459226778E+02  0.26768833535E+02  0.62229023292E+02  0.97742132301E+02  0.00000000000E+00 0.  1.
         11    1    5    5    0    0  0.87717374400E+02 -0.97606315375E+02  0.63406363511E+02  0.14574531727E+03  0.00000000000E+00 0. -1.
        -11    1    5    5    0    0  0.20995382470E+03 -0.99174003307E+02  0.18688910421E+03  0.29806648371E+03  0.00000000000E+00 0.  1.
          2    1    6    6  503    0 -0.19190177026E+03  0.22572457931E+01  0.14109653583E+03  0.23820079137E+03  0.00000000000E+00 0. -1.
         -2    1    6    6    0  503 -0.39237445640E+03  0.13534111377E+02  0.14288246642E+03  0.41779933631E+03  0.00000000000E+00 0.  1.
<mgrwt>
<rscale>  0 0.13838483E+04</rscale>
<asrwt>0</asrwt>
<pdfrwt beam="1">  1        2 0.22107551E+00 0.13838483E+04</pdfrwt>
<pdfrwt beam="2">  1       -1 0.51256584E-01 0.13838483E+04</pdfrwt>
<totfact> 0.58580109E+01</totfact>
</mgrwt>
</event>
<event>
12    6  0.9533401E-008  0.1917994E+04  0.7818608E-02  0.8645951E-01
          2   -1    0    0  501    0  0.00000000000E+00  0.00000000000E+00  0.20439722340E+04  0.20439722340E+04  0.00000000000E+00 0. -1.
         -1   -1    0    0    0  501 -0.00000000000E+00 -0.00000000000E+00 -0.44994498284E+03  0.44994498284E+03  0.00000000000E+00 0.  1.
         24    2    1    2    0    0  0.14884574295E+03  0.16593413429E+03  0.15504684120E+04  0.15683886331E+04  0.78749067605E+02 0.  0.
        254    2    1    2    0    0 -0.14884574295E+03 -0.16593413429E+03  0.43558839135E+02  0.92552858374E+03  0.89722717008E+03 0.  0.
         23    2    4    4    0    0  0.15191072813E+02  0.24422303477E+03 -0.27032528117E+03  0.37540937269E+03  0.89335211745E+02 0.  0.
         23    2    4    4    0    0 -0.16403681577E+03 -0.41015716906E+03  0.31388412031E+03  0.55011921104E+03  0.94714967746E+02 0.  0.
          2    1    3    3  502    0  0.97885725275E+02  0.79994397408E+02  0.10835963030E+04  0.10909453087E+04  0.00000000000E+00 0. -1.
         -1    1    3    3    0  502  0.50960017678E+02  0.85939736882E+02  0.46687210904E+03  0.47744332436E+03  0.00000000000E+00 0.  1.
         11    1    5    5    0    0 -0.10975456572E+02  0.17528461482E+02  0.12109181483E+01  0.20716513501E+02  0.00000000000E+00 0.  1.
        -11    1    5    5    0    0  0.26166529385E+02  0.22669457329E+03 -0.27153619932E+03  0.35469285919E+03  0.00000000000E+00 0. -1.
          1    1    6    6  503    0 -0.10956352415E+03 -0.25289720695E+03  0.24919031221E+03  0.37156019002E+03  0.00000000000E+00 0. -1.
         -1    1    6    6    0  503 -0.54473291618E+02 -0.15725996211E+03  0.64693808102E+02  0.17855902102E+03  0.00000000000E+00 0.  1.
<mgrwt>
<rscale>  0 0.19179938E+04</rscale>
<asrwt>0</asrwt>
<pdfrwt beam="1">  1        2 0.31445726E+00 0.19179938E+04</pdfrwt>
<pdfrwt beam="2">  1       -1 0.69222306E-01 0.19179938E+04</pdfrwt>
<totfact> 0.14196141E+01</totfact>
</mgrwt>
</event>
<event>
12    6  0.9533401E-008  0.1381409E+04  0.7818608E-02  0.8967387E-01
         -1   -1    0    0    0  501 -0.00000000000E+00  0.00000000000E+00  0.16594956250E+03  0.16594956250E+03  0.00000000000E+00 0.  1.
          2   -1    0    0  501    0  0.00000000000E+00 -0.00000000000E+00 -0.28748045136E+04  0.28748045136E+04  0.00000000000E+00 0. -1.
         24    2    1    2    0    0  0.86880122103E+02  0.19722926931E+03 -0.15020224883E+04  0.15194931371E+04  0.79625989112E+02 0.  0.
        254    2    1    2    0    0 -0.86880122103E+02 -0.19722926931E+03 -0.12068324629E+04  0.15212609390E+04  0.90074564162E+03 0.  0.
         23    2    4    4    0    0 -0.29312938116E+03 -0.45150573545E+03 -0.51498572966E+03  0.75037803003E+03  0.89858905860E+02 0.  0.
         23    2    4    4    0    0  0.20624925906E+03  0.25427646613E+03 -0.69184673321E+03  0.77088290900E+03  0.91723928379E+02 0.  0.
          2    1    3    3  502    0  0.87589616022E+02  0.15084199104E+03 -0.13274650507E+04  0.13388759120E+04  0.00000000000E+00 0. -1.
         -1    1    3    3    0  502 -0.70949391958E+00  0.46387278271E+02 -0.17455743760E+03  0.18061722506E+03  0.00000000000E+00 0.  1.
         11    1    5    5    0    0 -0.96132164897E+02 -0.79219350554E+02 -0.11725867261E+03  0.17107511488E+03  0.00000000000E+00 0.  1.
        -11    1    5    5    0    0 -0.19699721627E+03 -0.37228638489E+03 -0.39772705705E+03  0.57930291515E+03  0.00000000000E+00 0. -1.
          3    1    6    6  503    0  0.87792359089E+02  0.17812547283E+03 -0.38194596237E+03  0.43048681810E+03  0.00000000000E+00 0. -1.
         -3    1    6    6    0  503  0.11845689997E+03  0.76150993305E+02 -0.30990077084E+03  0.34039609090E+03  0.00000000000E+00 0.  1.
<mgrwt>
<rscale>  0 0.13814088E+04</rscale>
<asrwt>0</asrwt>
<pdfrwt beam="1">  1        2 0.44227760E+00 0.13814088E+04</pdfrwt>
<pdfrwt beam="2">  1       -1 0.25530703E-01 0.13814088E+04</pdfrwt>
<totfact> 0.31467178E+01</totfact>
</mgrwt>
</event>
<event>
12    6  0.9533401E-008  0.2701566E+04  0.7818608E-02  0.8334497E-01
         -1   -1    0    0    0  501 -0.00000000000E+00  0.00000000000E+00  0.10303750229E+04  0.10303750229E+04  0.00000000000E+00 0.  1.
          2   -1    0    0  501    0  0.00000000000E+00 -0.00000000000E+00 -0.17708262192E+04  0.17708262192E+04  0.00000000000E+00 0. -1.
         24    2    1    2    0    0  0.76847872905E+03  0.26395805483E+03  0.58121340940E+03  0.10021265620E+04  0.78836585735E+02 0.  0.
        254    2    1    2    0    0 -0.76847872905E+03 -0.26395805483E+03 -0.13216646057E+04  0.17990746801E+04  0.91084519149E+03 0.  0.
         23    2    4    4    0    0 -0.54866902616E+03  0.53515625452E+02 -0.17493929886E+03  0.58561928147E+03  0.91894298567E+02 0.  0.
         23    2    4    4    0    0 -0.21980970288E+03 -0.31747368028E+03 -0.11467253069E+04  0.12134553986E+04  0.91592750356E+02 0.  0.
          2    1    3    3  502    0  0.22465572854E+02 -0.15773626029E+01  0.29071021359E+02  0.36773826552E+02  0.00000000000E+00 0. -1.
         -3    1    3    3    0  502  0.74601315619E+03  0.26553541743E+03  0.55214238804E+03  0.96535273543E+03  0.00000000000E+00 0.  1.
         11    1    5    5    0    0 -0.38336568213E+02 -0.18761401511E+02 -0.21794509916E+02  0.47923723890E+02  0.00000000000E+00 0. -1.
        -11    1    5    5    0    0 -0.51033245795E+03  0.72277026963E+02 -0.15314478895E+03  0.53769555758E+03  0.00000000000E+00 0.  1.
          4    1    6    6  503    0 -0.15345313521E+02 -0.69094697544E+02 -0.28435881769E+03  0.29303496903E+03  0.00000000000E+00 0. -1.
         -4    1    6    6    0  503 -0.20446438936E+03 -0.24837898274E+03 -0.86236648916E+03  0.92042042959E+03  0.00000000000E+00 0.  1.
<mgrwt>
<rscale>  0 0.27015663E+04</rscale>
<asrwt>0</asrwt>
<pdfrwt beam="1">  1        2 0.27243480E+00 0.27015663E+04</pdfrwt>
<pdfrwt beam="2">  1       -1 0.15851924E+00 0.27015663E+04</pdfrwt>
<totfact> 0.26820784E+00</totfact>
</mgrwt>
</event>
<event>
12    6  0.9533401E-008  0.2352622E+04  0.7818608E-02  0.8457457E-01
         -1   -1    0    0    0  501 -0.00000000000E+00  0.00000000000E+00  0.11788604378E+04  0.11788604378E+04  0.00000000000E+00 0.  1.
          2   -1    0    0  501    0  0.00000000000E+00 -0.00000000000E+00 -0.11737668579E+04  0.11737668579E+04  0.00000000000E+00 0. -1.
         24    2    1    2    0    0  0.44693754809E+03  0.52155467507E+03  0.72634418323E+03  0.10028874029E+04  0.80217326424E+02 0.  0.
        254    2    1    2    0    0 -0.44693754809E+03 -0.52155467507E+03 -0.72125060339E+03  0.13497398928E+04  0.91094615330E+03 0.  0.
         23    2    4    4    0    0 -0.13246806839E+03 -0.43103784998E+03 -0.86564948467E+03  0.98046006973E+03  0.92798172216E+02 0.  0.
         23    2    4    4    0    0 -0.31446947971E+03 -0.90516825095E+02  0.14439888127E+03  0.36927982303E+03  0.91827019383E+02 0.  0.
          4    1    3    3  502    0  0.88897828011E+02  0.14669583844E+03  0.15175518559E+03  0.22902429826E+03  0.00000000000E+00 0. -1.
         -3    1    3    3    0  502  0.35803972008E+03  0.37485883663E+03  0.57458899764E+03  0.77386310467E+03  0.00000000000E+00 0.  1.
         11    1    5    5    0    0 -0.38017774439E+02 -0.38255037264E+02 -0.13844508239E+03  0.14857940600E+03  0.00000000000E+00 0. -1.
        -11    1    5    5    0    0 -0.94450293948E+02 -0.39278281271E+03 -0.72720440228E+03  0.83188066373E+03  0.00000000000E+00 0.  1.
          3    1    6    6  503    0 -0.98103745271E+02 -0.48157496356E+02  0.91539129473E+02  0.14255841440E+03  0.00000000000E+00 0. -1.
         -3    1    6    6    0  503 -0.21636573444E+03 -0.42359328740E+02  0.52859751802E+02  0.22672140863E+03  0.00000000000E+00 0.  1.
<mgrwt>
<rscale>  0 0.23526218E+04</rscale>
<asrwt>0</asrwt>
<pdfrwt beam="1">  1        2 0.18057952E+00 0.23526218E+04</pdfrwt>
<pdfrwt beam="2">  1       -1 0.18136314E+00 0.23526218E+04</pdfrwt>
<totfact> 0.41124478E+00</totfact>
</mgrwt>
</event>
<event>
12    6  0.9533401E-008  0.1818496E+04  0.7818608E-02  0.8696525E-01
          2   -1    0    0  501    0  0.00000000000E+00  0.00000000000E+00  0.30794569603E+04  0.30794569603E+04  0.00000000000E+00 0. -1.
         -1   -1    0    0    0  501 -0.00000000000E+00 -0.00000000000E+00 -0.26846670718E+03  0.26846670718E+03  0.00000000000E+00 0.  1.
         24    2    1    2    0    0 -0.17721967873E+03  0.97604662860E+02 -0.13977584075E+03  0.25567297223E+03  0.69984986448E+02 0.  0.
        254    2    1    2    0    0  0.17721967873E+03 -0.97604662860E+02  0.29507660938E+04  0.30922506952E+04  0.90225292291E+03 0.  0.
         23    2    4    4    0    0 -0.19389028351E+03 -0.20735966679E+02  0.24412890025E+04  0.24507006775E+04  0.89545490741E+02 0.  0.
         23    2    4    4    0    0  0.37110996224E+03 -0.76868696182E+02  0.50947709139E+03  0.64155001773E+03  0.91586669716E+02 0.  0.
          2    1    3    3  502    0 -0.64038665107E+02  0.74345562331E+02 -0.56300904479E+02  0.11312826840E+03  0.00000000000E+00 0. -1.
         -1    1    3    3    0  502 -0.11318101363E+03  0.23259100530E+02 -0.83474936267E+02  0.14254470382E+03  0.00000000000E+00 0.  1.
         11    1    5    5    0    0 -0.17527530607E+03 -0.45724223697E+02  0.19376061725E+04  0.19460549369E+04  0.00000000000E+00 0.  1.
        -11    1    5    5    0    0 -0.18614977432E+02  0.24988257019E+02  0.50368282993E+03  0.50464574063E+03  0.00000000000E+00 0. -1.
          1    1    6    6  503    0  0.20227553673E+03 -0.85825683526E+02  0.26392775005E+03  0.34342291414E+03  0.00000000000E+00 0. -1.
         -1    1    6    6    0  503  0.16883442551E+03  0.89569873443E+01  0.24554934134E+03  0.29812710359E+03  0.00000000000E+00 0.  1.
<mgrwt>
<rscale>  0 0.18184957E+04</rscale>
<asrwt>0</asrwt>
<pdfrwt beam="1">  1        2 0.47376258E+00 0.18184957E+04</pdfrwt>
<pdfrwt beam="2">  1       -1 0.41302573E-01 0.18184957E+04</pdfrwt>
<totfact> 0.95991290E+00</totfact>
</mgrwt>
</event>
<event>
12    6  0.9533401E-008  0.1233943E+04  0.7818608E-02  0.9083654E-01
          2   -1    0    0  501    0  0.00000000000E+00  0.00000000000E+00  0.27786846435E+03  0.27786846435E+03  0.00000000000E+00 0. -1.
         -1   -1    0    0    0  501 -0.00000000000E+00 -0.00000000000E+00 -0.13699065068E+04  0.13699065068E+04  0.00000000000E+00 0.  1.
         24    2    1    2    0    0 -0.18082634283E+03  0.55659513015E+02  0.54399610052E+01  0.20851211023E+03  0.87473191812E+02 0.  0.
        254    2    1    2    0    0  0.18082634283E+03 -0.55659513015E+02 -0.10974780034E+04  0.14392628609E+04  0.91171457544E+03 0.  0.
         23    2    4    4    0    0 -0.22991834283E+03 -0.13306864931E+02  0.15996487107E+02  0.24832002420E+03  0.91473656295E+02 0.  0.
         23    2    4    4    0    0  0.41074468566E+03 -0.42352648084E+02 -0.11134744905E+04  0.11909428367E+04  0.89523491761E+02 0.  0.
          4    1    3    3  502    0 -0.14294253416E+03  0.42495042968E+01  0.15578638027E+02  0.14385173034E+03  0.00000000000E+00 0. -1.
         -3    1    3    3    0  502 -0.37883808672E+02  0.51410008718E+02 -0.10138677022E+02  0.64660379891E+02  0.00000000000E+00 0.  1.
         11    1    5    5    0    0 -0.17156065665E+03 -0.41760335663E+02 -0.13343631940E+02  0.17707353574E+03  0.00000000000E+00 0. -1.
        -11    1    5    5    0    0 -0.58357686182E+02  0.28453470732E+02  0.29340119047E+02  0.71246488467E+02  0.00000000000E+00 0.  1.
          1    1    6    6  503    0  0.40841470465E+03 -0.32596315049E+02 -0.10578527496E+04  0.11344238761E+04  0.00000000000E+00 0. -1.
         -1    1    6    6    0  503  0.23299810096E+01 -0.97563330356E+01 -0.55621740926E+02  0.56518960619E+02  0.00000000000E+00 0.  1.
<mgrwt>
<rscale>  0 0.12339430E+04</rscale>
<asrwt>0</asrwt>
<pdfrwt beam="1">  1        2 0.42748995E-01 0.12339430E+04</pdfrwt>
<pdfrwt beam="2">  1       -1 0.21075484E+00 0.12339430E+04</pdfrwt>
<totfact> 0.17152399E+01</totfact>
</mgrwt>
</event>
<event>
12    6  0.9533401E-008  0.1520558E+04  0.7818608E-02  0.8870896E-01
         -1   -1    0    0    0  501 -0.00000000000E+00  0.00000000000E+00  0.38851342408E+03  0.38851342408E+03  0.00000000000E+00 0.  1.
          2   -1    0    0  501    0  0.00000000000E+00 -0.00000000000E+00 -0.14877833200E+04  0.14877833200E+04  0.00000000000E+00 0. -1.
         24    2    1    2    0    0  0.93062152762E+02  0.25394272289E+03 -0.82998414868E+03  0.87674351454E+03  0.81596767273E+02 0.  0.
        254    2    1    2    0    0 -0.93062152762E+02 -0.25394272289E+03 -0.26928574721E+03  0.99955322951E+03  0.92382053137E+03 0.  0.
         23    2    4    4    0    0 -0.23986011522E+03  0.20646017693E+02 -0.52616626627E+03  0.58575273510E+03  0.91083445215E+02 0.  0.
         23    2    4    4    0    0  0.14679796246E+03 -0.27458874059E+03  0.25688051906E+03  0.41380049441E+03  0.91074858552E+02 0.  0.
          4    1    3    3  502    0  0.80044471337E+02  0.23299750184E+03 -0.65080162605E+03  0.69587190612E+03  0.00000000000E+00 0. -1.
         -3    1    3    3    0  502  0.13017681425E+02  0.20945221052E+02 -0.17918252263E+03  0.18087160841E+03  0.00000000000E+00 0.  1.
         11    1    5    5    0    0 -0.15384145131E+03  0.51247723207E+02 -0.28526180906E+03  0.32812775101E+03  0.00000000000E+00 0.  1.
        -11    1    5    5    0    0 -0.86018663910E+02 -0.30601705514E+02 -0.24090445721E+03  0.25762498409E+03  0.00000000000E+00 0. -1.
          4    1    6    6  503    0  0.64604381977E+02 -0.10310775917E+03  0.46615662664E+02  0.13029948648E+03  0.00000000000E+00 0.  1.
         -4    1    6    6    0  503  0.82193580486E+02 -0.17148098141E+03  0.21026485640E+03  0.28350100793E+03  0.00000000000E+00 0. -1.
<mgrwt>
<rscale>  0 0.15205575E+04</rscale>
<asrwt>0</asrwt>
<pdfrwt beam="1">  1        2 0.22888974E+00 0.15205575E+04</pdfrwt>
<pdfrwt beam="2">  1       -1 0.59771297E-01 0.15205575E+04</pdfrwt>
<totfact> 0.40234582E+01</totfact>
</mgrwt>
</event>
<event>
12    6  0.9533401E-008  0.1204298E+04  0.7818608E-02  0.9109103E-01
         -1   -1    0    0    0  501 -0.00000000000E+00  0.00000000000E+00  0.14487717942E+03  0.14487717942E+03  0.00000000000E+00 0.  1.
          2   -1    0    0  501    0  0.00000000000E+00 -0.00000000000E+00 -0.25026943444E+04  0.25026943444E+04  0.00000000000E+00 0. -1.
         24    2    1    2    0    0 -0.51479384022E+02  0.10366572346E+01 -0.10828874014E+04  0.10870652476E+04  0.80090740728E+02 0.  0.
        254    2    1    2    0    0  0.51479384022E+02 -0.10366572346E+01 -0.12749297635E+04  0.15605062762E+04  0.89837783502E+03 0.  0.
         23    2    4    4    0    0  0.50500515953E+02 -0.69565343887E+02 -0.13944465580E+04  0.14002027270E+04  0.93256819833E+02 0.  0.
         23    2    4    4    0    0  0.97886806980E+00  0.68528686653E+02  0.11951679443E+03  0.16030354921E+03  0.81950135199E+02 0.  0.
          2    1    3    3  502    0 -0.20019565407E+02  0.23326178186E+02 -0.88059692347E+03  0.88113326757E+03  0.00000000000E+00 0. -1.
         -1    1    3    3    0  502 -0.31459818616E+02 -0.22289520952E+02 -0.20229047793E+03  0.20593198002E+03  0.00000000000E+00 0.  1.
         11    1    5    5    0    0  0.32387107418E+02 -0.13328599261E+02 -0.10599504781E+04  0.10605289210E+04  0.00000000000E+00 0.  1.
        -11    1    5    5    0    0  0.18113408535E+02 -0.56236744626E+02 -0.33449607987E+03  0.33967380597E+03  0.00000000000E+00 0. -1.
          3    1    6    6  503    0  0.36789634605E+01 -0.15241851309E+02  0.17788695881E+01  0.15780151472E+02  0.00000000000E+00 0. -1.
         -3    1    6    6    0  503 -0.27000953907E+01  0.83770537962E+02  0.11773792485E+03  0.14452339773E+03  0.00000000000E+00 0.  1.
<mgrwt>
<rscale>  0 0.12042978E+04</rscale>
<asrwt>0</asrwt>
<pdfrwt beam="1">  1        2 0.38502990E+00 0.12042978E+04</pdfrwt>
<pdfrwt beam="2">  1       -1 0.22288797E-01 0.12042978E+04</pdfrwt>
<totfact> 0.66830879E+01</totfact>
</mgrwt>
</event>
<event>
12    6  0.9533401E-008  0.2050141E+04  0.7818608E-02  0.8583530E-01
          2   -1    0    0  501    0  0.00000000000E+00  0.00000000000E+00  0.24172211143E+04  0.24172211143E+04  0.00000000000E+00 0. -1.
         -1   -1    0    0    0  501 -0.00000000000E+00 -0.00000000000E+00 -0.43470151164E+03  0.43470151164E+03  0.00000000000E+00 0.  1.
         24    2    1    2    0    0  0.75370260866E+03 -0.15056993379E+03  0.33740496956E+03  0.84316247560E+03  0.79636169650E+02 0.  0.
        254    2    1    2    0    0 -0.75370260866E+03  0.15056993379E+03  0.16451146331E+04  0.20087601503E+04  0.85905544538E+03 0.  0.
         23    2    4    4    0    0 -0.32375765369E+02  0.12352756274E+03  0.10687750448E+04  0.10801765942E+04  0.90521430959E+02 0.  0.
         23    2    4    4    0    0 -0.72132684329E+03  0.27042371046E+02  0.57633958832E+03  0.92858355608E+03  0.95165092737E+02 0.  0.
          4    1    3    3  502    0  0.24891229467E+03 -0.38965962673E+02  0.71969050740E+02  0.26202141315E+03  0.00000000000E+00 0. -1.
         -3    1    3    3    0  502  0.50479031399E+03 -0.11160397112E+03  0.26543591882E+03  0.58114106246E+03  0.00000000000E+00 0.  1.
         11    1    5    5    0    0 -0.59847761766E+02  0.11090605216E+03  0.88606486340E+03  0.89498203844E+03  0.00000000000E+00 0. -1.
        -11    1    5    5    0    0  0.27471996398E+02  0.12621510586E+02  0.18271018139E+03  0.18519455580E+03  0.00000000000E+00 0.  1.
          4    1    6    6  503    0 -0.17312995367E+03  0.41682427958E+02  0.16849858453E+03  0.24515949634E+03  0.00000000000E+00 0.  1.
         -4    1    6    6    0  503 -0.54819688963E+03 -0.14640056912E+02  0.40784100378E+03  0.68342405974E+03  0.00000000000E+00 0. -1.
<mgrwt>
<rscale>  0 0.20501411E+04</rscale>
<asrwt>0</asrwt>
<pdfrwt beam="1">  1        2 0.37188016E+00 0.20501411E+04</pdfrwt>
<pdfrwt beam="2">  1       -1 0.66877157E-01 0.20501411E+04</pdfrwt>
<totfact> 0.92734032E+00</totfact>
</mgrwt>
</event>
<event>
12    6  0.9533401E-008  0.2862850E+04  0.7818608E-02  0.8284017E-01
          2   -1    0    0  501    0  0.00000000000E+00  0.00000000000E+00  0.25599384019E+04  0.25599384019E+04  0.00000000000E+00 0. -1.
         -1   -1    0    0    0  501 -0.00000000000E+00 -0.00000000000E+00 -0.80040092512E+03  0.80040092512E+03  0.00000000000E+00 0.  1.
         24    2    1    2    0    0 -0.44781621187E+03 -0.39247017939E+03  0.21306711430E+04  0.22137432359E+04  0.79544915775E+02 0.  0.
        254    2    1    2    0    0  0.44781621187E+03  0.39247017939E+03 -0.37113366620E+03  0.11465960911E+04  0.90684629166E+03 0.  0.
         23    2    4    4    0    0  0.39902296455E+03  0.57517229503E+03  0.15775456071E+02  0.70626014348E+03  0.92260663598E+02 0.  0.
         23    2    4    4    0    0  0.48793247321E+02 -0.18270211564E+03 -0.38690912227E+03  0.44033594765E+03  0.91848973062E+02 0.  0.
          4    1    3    3  502    0 -0.44839868616E+03 -0.37886023024E+03  0.20758727923E+04  0.21572770581E+04  0.00000000000E+00 0. -1.
         -3    1    3    3    0  502  0.58247428488E+00 -0.13609949151E+02  0.54798350723E+02  0.56466177789E+02  0.00000000000E+00 0.  1.
         11    1    5    5    0    0  0.17950657140E+03  0.26212483953E+03 -0.38735986763E+02  0.32005080432E+03  0.00000000000E+00 0. -1.
        -11    1    5    5    0    0  0.21951639315E+03  0.31304745550E+03  0.54511442834E+02  0.38620933917E+03  0.00000000000E+00 0.  1.
          4    1    6    6  503    0  0.95685444515E+01 -0.16769844527E+03 -0.31805411825E+03  0.35968423336E+03  0.00000000000E+00 0. -1.
         -4    1    6    6    0  503  0.39224702869E+02 -0.15003670370E+02 -0.68855004012E+02  0.80651714286E+02  0.00000000000E+00 0.  1.
<mgrwt>
<rscale>  0 0.28628497E+04</rscale>
<asrwt>0</asrwt>
<pdfrwt beam="1">  1        2 0.39383667E+00 0.28628497E+04</pdfrwt>
<pdfrwt beam="2">  1       -1 0.12313861E+00 0.28628497E+04</pdfrwt>
<totfact> 0.18357142E+00</totfact>
</mgrwt>
</event>
<event>
12    6  0.9533401E-008  0.2080854E+04  0.7818608E-02  0.8569725E-01
         -1   -1    0    0    0  501 -0.00000000000E+00  0.00000000000E+00  0.81838416700E+03  0.81838416700E+03  0.00000000000E+00 0.  1.
          2   -1    0    0  501    0  0.00000000000E+00 -0.00000000000E+00 -0.13227140702E+04  0.13227140702E+04  0.00000000000E+00 0. -1.
         24    2    1    2    0    0 -0.39466531623E+03 -0.41723179216E+03 -0.84019123613E+03  0.10207924697E+04  0.79075107517E+02 0.  0.
        254    2    1    2    0    0  0.39466531623E+03  0.41723179216E+03  0.33586133296E+03  0.11203057675E+04  0.90135403562E+03 0.  0.
         23    2    4    4    0    0  0.37000957383E+02 -0.26443849163E+03  0.16546201967E+03  0.32696687166E+03  0.90735155835E+02 0.  0.
         23    2    4    4    0    0  0.35766435884E+03  0.68167028379E+03  0.17039931329E+03  0.79333889586E+03  0.88048329450E+02 0.  0.
          4    1    3    3  502    0 -0.29404134012E+03 -0.30235922803E+03 -0.55248623643E+03  0.69507010719E+03  0.00000000000E+00 0. -1.
         -3    1    3    3    0  502 -0.10062397610E+03 -0.11487256413E+03 -0.28770499970E+03  0.32572236247E+03  0.00000000000E+00 0.  1.
         11    1    5    5    0    0  0.21451592637E+02 -0.26547387201E+03  0.15812911601E+03  0.30974403122E+03  0.00000000000E+00 0. -1.
        -11    1    5    5    0    0  0.15549364747E+02  0.10353803801E+01  0.73329036558E+01  0.17222840433E+02  0.00000000000E+00 0.  1.
          1    1    6    6  503    0  0.14133780817E+03  0.28424918885E+03  0.26626561154E+02  0.31856388863E+03  0.00000000000E+00 0. -1.
         -1    1    6    6    0  503  0.21632655067E+03  0.39742109494E+03  0.14377275214E+03  0.47477500723E+03  0.00000000000E+00 0.  1.
<mgrwt>
<rscale>  0 0.20808539E+04</rscale>
<asrwt>0</asrwt>
<pdfrwt beam="1">  1        2 0.20349447E+00 0.20808539E+04</pdfrwt>
<pdfrwt beam="2">  1       -1 0.12590526E+00 0.20808539E+04</pdfrwt>
<totfact> 0.92725534E+00</totfact>
</mgrwt>
</event>
<event>
12    6  0.9533401E-008  0.1459064E+04  0.7818608E-02  0.8912141E-01
         -1   -1    0    0    0  501 -0.00000000000E+00  0.00000000000E+00  0.21979262096E+03  0.21979262096E+03  0.00000000000E+00 0.  1.
          2   -1    0    0  501    0  0.00000000000E+00 -0.00000000000E+00 -0.24214497826E+04  0.24214497826E+04  0.00000000000E+00 0. -1.
         24    2    1    2    0    0 -0.14173477682E+02 -0.12769334324E+03 -0.14553859791E+04  0.14633009230E+04  0.81208163331E+02 0.  0.
        254    2    1    2    0    0  0.14173477682E+02  0.12769334324E+03 -0.74627118253E+03  0.11779414805E+04  0.90228541842E+03 0.  0.
         23    2    4    4    0    0 -0.15514303835E+03  0.25270076071E+03 -0.86558153410E+03  0.91961353424E+03  0.92361373844E+02 0.  0.
         23    2    4    4    0    0  0.16931651603E+03 -0.12500741747E+03  0.11931035157E+03  0.25832794628E+03  0.90572792906E+02 0.  0.
          4    1    3    3  502    0  0.17706208887E+02 -0.49335130961E+02 -0.89836166674E+03  0.89988952058E+03  0.00000000000E+00 0. -1.
         -3    1    3    3    0  502 -0.31879686569E+02 -0.78358212284E+02 -0.55702431237E+03  0.56341140245E+03  0.00000000000E+00 0.  1.
         11    1    5    5    0    0 -0.27022010721E+01  0.69377323868E+02 -0.14838832539E+03  0.16382798927E+03  0.00000000000E+00 0.  1.
        -11    1    5    5    0    0 -0.15244083727E+03  0.18332343684E+03 -0.71719320871E+03  0.75578554497E+03  0.00000000000E+00 0. -1.
          4    1    6    6  503    0  0.13221820255E+03 -0.11655721481E+03  0.56866713171E+02  0.18520545477E+03  0.00000000000E+00 0. -1.
         -4    1    6    6    0  503  0.37098313475E+02 -0.84502026611E+01  0.62443638402E+02  0.73122491509E+02  0.00000000000E+00 0.  1.
<mgrwt>
<rscale>  0 0.14590638E+04</rscale>
<asrwt>0</asrwt>
<pdfrwt beam="1">  1        2 0.37253072E+00 0.14590638E+04</pdfrwt>
<pdfrwt beam="2">  1       -1 0.33814251E-01 0.14590638E+04</pdfrwt>
<totfact> 0.35295411E+01</totfact>
</mgrwt>
</event>
<event>
12    6  0.9533401E-008  0.2504425E+04  0.7818608E-02  0.8401411E-01
          2   -1    0    0  501    0  0.00000000000E+00  0.00000000000E+00  0.27171380777E+04  0.27171380777E+04  0.00000000000E+00 0. -1.
         -1   -1    0    0    0  501 -0.00000000000E+00 -0.00000000000E+00 -0.57709120520E+03  0.57709120520E+03  0.00000000000E+00 0.  1.
         24    2    1    2    0    0  0.26578808994E+03 -0.44467116467E+03  0.21849605470E+04  0.22471821202E+04  0.86018229240E+02 0.  0.
        254    2    1    2    0    0 -0.26578808994E+03  0.44467116467E+03 -0.44913674531E+02  0.10470471627E+04  0.90879853068E+03 0.  0.
         23    2    4    4    0    0  0.10091346808E+02  0.61525067942E+03 -0.22900775011E+03  0.66300484850E+03  0.92171827151E+02 0.  0.
         23    2    4    4    0    0 -0.27587943675E+03 -0.17057951476E+03  0.18409407558E+03  0.38404231422E+03  0.91602598073E+02 0.  0.
          4    1    3    3  502    0  0.18533571032E+03 -0.29741698969E+03  0.16377293673E+04  0.16748025769E+04  0.00000000000E+00 0. -1.
         -3    1    3    3    0  502  0.80452379617E+02 -0.14725417498E+03  0.54723117979E+03  0.57237954328E+03  0.00000000000E+00 0.  1.
         11    1    5    5    0    0  0.11872875366E+02  0.61823759386E+03 -0.22584630671E+03  0.65830482444E+03  0.00000000000E+00 0. -1.
        -11    1    5    5    0    0 -0.17815285578E+01 -0.29869144345E+01 -0.31614433969E+01  0.47000240630E+01  0.00000000000E+00 0.  1.
          2    1    6    6  503    0 -0.15474553843E+03 -0.10428314312E+03  0.15577729121E+03  0.24307965785E+03  0.00000000000E+00 0. -1.
         -2    1    6    6    0  503 -0.12113389832E+03 -0.66296371639E+02  0.28316784362E+02  0.14096265637E+03  0.00000000000E+00 0.  1.
<mgrwt>
<rscale>  0 0.25044253E+04</rscale>
<asrwt>0</asrwt>
<pdfrwt beam="1">  1        2 0.41802124E+00 0.25044253E+04</pdfrwt>
<pdfrwt beam="2">  1       -1 0.88783264E-01 0.25044253E+04</pdfrwt>
<totfact> 0.32731622E+00</totfact>
</mgrwt>
</event>
<event>
12    6  0.9533401E-008  0.3315453E+04  0.7818608E-02  0.8158974E-01
          2   -1    0    0  501    0  0.00000000000E+00  0.00000000000E+00  0.28466427910E+04  0.28466427910E+04  0.00000000000E+00 0. -1.
         -1   -1    0    0    0  501 -0.00000000000E+00 -0.00000000000E+00 -0.96536784034E+03  0.96536784034E+03  0.00000000000E+00 0.  1.
         24    2    1    2    0    0  0.33988513176E+03 -0.80495929699E+03  0.23238317411E+04  0.24840613457E+04  0.82978526078E+02 0.  0.
        254    2    1    2    0    0 -0.33988513176E+03  0.80495929699E+03 -0.44255679037E+03  0.13279492857E+04  0.89672259928E+03 0.  0.
         23    2    4    4    0    0  0.73747029867E+01 -0.17998314763E+03 -0.43092352408E+02  0.20600712127E+03  0.90186825560E+02 0.  0.
         23    2    4    4    0    0 -0.34725983474E+03  0.98494244462E+03 -0.39946443796E+03  0.11219421644E+04  0.92094359544E+02 0.  0.
          2    1    3    3  502    0  0.26631485509E+03 -0.60881035585E+03  0.18591925344E+04  0.19743785177E+04  0.00000000000E+00 0. -1.
         -1    1    3    3    0  502  0.73570276667E+02 -0.19614894114E+03  0.46463920670E+03  0.50968282797E+03  0.00000000000E+00 0.  1.
         11    1    5    5    0    0 -0.21352101419E+02 -0.13686332616E+02 -0.26101951400E+02  0.36394227597E+02  0.00000000000E+00 0. -1.
        -11    1    5    5    0    0  0.28726804405E+02 -0.16629681501E+03 -0.16990401007E+02  0.16961289368E+03  0.00000000000E+00 0.  1.
          2    1    6    6  503    0 -0.26051333104E+03  0.60860082166E+03 -0.26271725428E+03  0.71223767905E+03  0.00000000000E+00 0. -1.
         -2    1    6    6    0  503 -0.86746503700E+02  0.37634162296E+03 -0.13674718368E+03  0.40970448536E+03  0.00000000000E+00 0.  1.
<mgrwt>
<rscale>  0 0.33154532E+04</rscale>
<asrwt>0</asrwt>
<pdfrwt beam="1">  1        2 0.43794504E+00 0.33154532E+04</pdfrwt>
<pdfrwt beam="2">  1       -1 0.14851813E+00 0.33154532E+04</pdfrwt>
<totfact> 0.73517676E-01</totfact>
</mgrwt>
</event>
<event>
12    6  0.9533401E-008  0.1652491E+04  0.7818608E-02  0.8788934E-01
          2   -1    0    0  501    0  0.00000000000E+00  0.00000000000E+00  0.12811305861E+04  0.12811305861E+04  0.00000000000E+00 0. -1.
         -1   -1    0    0    0  501 -0.00000000000E+00 -0.00000000000E+00 -0.53287453176E+03  0.53287453176E+03  0.00000000000E+00 0.  1.
         24    2    1    2    0    0 -0.49509858325E+03 -0.28966695866E+03  0.34568349898E+03  0.67464408807E+03  0.81351152571E+02 0.  0.
        254    2    1    2    0    0  0.49509858325E+03  0.28966695866E+03  0.40257255539E+03  0.11393610298E+04  0.89835924875E+03 0.  0.
         23    2    4    4    0    0  0.64772081557E+02  0.54310325208E+03  0.16197766059E+03  0.57772595724E+03  0.91509311970E+02 0.  0.
         23    2    4    4    0    0  0.43032650170E+03 -0.25343629342E+03  0.24059489480E+03  0.56163507257E+03  0.90206421324E+02 0.  0.
          2    1    3    3  502    0 -0.34007048987E+03 -0.22984038305E+03  0.21575738355E+03  0.46370873220E+03  0.00000000000E+00 0. -1.
         -1    1    3    3    0  502 -0.15502809338E+03 -0.59826575615E+02  0.12992611543E+03  0.21093535587E+03  0.00000000000E+00 0.  1.
         11    1    5    5    0    0  0.37665594215E+02  0.79891191860E+02  0.73293288872E+01  0.88628542729E+02  0.00000000000E+00 0. -1.
        -11    1    5    5    0    0  0.27106487342E+02  0.46321206022E+03  0.15464833170E+03  0.48909741452E+03  0.00000000000E+00 0.  1.
          1    1    6    6  503    0  0.14425661921E+03 -0.43545678200E+02  0.49319823415E+02  0.15855170531E+03  0.00000000000E+00 0. -1.
         -1    1    6    6    0  503  0.28606988248E+03 -0.20989061522E+03  0.19127507139E+03  0.40308336725E+03  0.00000000000E+00 0.  1.
<mgrwt>
<rscale>  0 0.16524913E+04</rscale>
<asrwt>0</asrwt>
<pdfrwt beam="1">  1        2 0.19709701E+00 0.16524913E+04</pdfrwt>
<pdfrwt beam="2">  1       -1 0.81980698E-01 0.16524913E+04</pdfrwt>
<totfact> 0.27333929E+01</totfact>
</mgrwt>
</event>
<event>
12    6  0.9533401E-008  0.1210400E+04  0.7818608E-02  0.9103802E-01
          2   -1    0    0  501    0  0.00000000000E+00  0.00000000000E+00  0.14137762648E+04  0.14137762648E+04  0.00000000000E+00 0. -1.
         -1   -1    0    0    0  501 -0.00000000000E+00 -0.00000000000E+00 -0.25906994985E+03  0.25906994985E+03  0.00000000000E+00 0.  1.
         24    2    1    2    0    0  0.24388517084E+02  0.11444523657E+03 -0.60590972855E+02  0.15475199101E+03  0.81144320744E+02 0.  0.
        254    2    1    2    0    0 -0.24388517084E+02 -0.11444523657E+03  0.12152972878E+04  0.15180942237E+04  0.90220289413E+03 0.  0.
         23    2    4    4    0    0  0.20767625914E+01  0.16330272872E+03  0.12100259607E+04  0.12244923830E+04  0.92448236761E+02 0.  0.
         23    2    4    4    0    0 -0.26465279676E+02 -0.27774796530E+03  0.52713271417E+01  0.29360184061E+03  0.91268344255E+02 0.  0.
          4    1    3    3  502    0  0.24034535293E+02  0.30191905641E+02  0.15150747417E+02  0.41457872597E+02  0.00000000000E+00 0. -1.
         -3    1    3    3    0  502  0.35398179121E+00  0.84253330931E+02 -0.75741720272E+02  0.11329411841E+03  0.00000000000E+00 0.  1.
         11    1    5    5    0    0  0.17100157922E+02  0.16324721290E+03  0.11745899418E+04  0.11860032038E+04  0.00000000000E+00 0.  1.
        -11    1    5    5    0    0 -0.15023395331E+02  0.55515821857E-01  0.35436018849E+02  0.38489179273E+02  0.00000000000E+00 0. -1.
          2    1    6    6  503    0  0.27171962970E+02 -0.10983663113E+03 -0.21906397399E+02  0.11524882367E+03  0.00000000000E+00 0. -1.
         -2    1    6    6    0  503 -0.53637242646E+02 -0.16791133416E+03  0.27177724541E+02  0.17835301694E+03  0.00000000000E+00 0.  1.
<mgrwt>
<rscale>  0 0.12103998E+04</rscale>
<asrwt>0</asrwt>
<pdfrwt beam="1">  1        2 0.21750404E+00 0.12103998E+04</pdfrwt>
<pdfrwt beam="2">  1       -1 0.39856916E-01 0.12103998E+04</pdfrwt>
<totfact> 0.97849550E+01</totfact>
</mgrwt>
</event>
<event>
12    6  0.9533401E-008  0.1795263E+04  0.7818608E-02  0.8708823E-01
         -1   -1    0    0    0  501 -0.00000000000E+00  0.00000000000E+00  0.50597378993E+03  0.50597378993E+03  0.00000000000E+00 0.  1.
          2   -1    0    0  501    0  0.00000000000E+00 -0.00000000000E+00 -0.15924577463E+04  0.15924577463E+04  0.00000000000E+00 0. -1.
         24    2    1    2    0    0  0.63426476967E+03 -0.19886009785E+03 -0.47876467548E+03  0.82311858469E+03  0.80445344308E+02 0.  0.
        254    2    1    2    0    0 -0.63426476967E+03  0.19886009785E+03 -0.60771928084E+03  0.12753129515E+04  0.90291930059E+03 0.  0.
         23    2    4    4    0    0 -0.54052711781E+02 -0.17544397773E+03  0.14390152653E+03  0.25066017480E+03  0.91763766915E+02 0.  0.
         23    2    4    4    0    0 -0.58021205789E+03  0.37430407558E+03 -0.75162080737E+03  0.10246527767E+04  0.90718805152E+02 0.  0.
          2    1    3    3  502    0  0.42099956929E+03 -0.15659377447E+03 -0.28557515433E+03  0.53227381705E+03  0.00000000000E+00 0. -1.
         -1    1    3    3    0  502  0.21326520038E+03 -0.42266323384E+02 -0.19318952115E+03  0.29084476765E+03  0.00000000000E+00 0.  1.
         11    1    5    5    0    0 -0.60341491579E+02 -0.58240722430E+02  0.84735475346E+02  0.11921903429E+03  0.00000000000E+00 0. -1.
        -11    1    5    5    0    0  0.62887797982E+01 -0.11720325530E+03  0.59166051181E+02  0.13144114051E+03  0.00000000000E+00 0.  1.
          2    1    6    6  503    0 -0.72543460664E+02  0.28210407934E+02 -0.12358254406E+03  0.14605144983E+03  0.00000000000E+00 0. -1.
         -2    1    6    6    0  503 -0.50766859722E+03  0.34609366765E+03 -0.62803826330E+03  0.87860132686E+03  0.00000000000E+00 0.  1.
<mgrwt>
<rscale>  0 0.17952625E+04</rscale>
<asrwt>0</asrwt>
<pdfrwt beam="1">  1        2 0.24499350E+00 0.17952625E+04</pdfrwt>
<pdfrwt beam="2">  1       -1 0.77842122E-01 0.17952625E+04</pdfrwt>
<totfact> 0.20030374E+01</totfact>
</mgrwt>
</event>
<event>
12    6  0.9533401E-008  0.2232105E+04  0.7818608E-02  0.8505183E-01
         -3   -1    0    0    0  501 -0.00000000000E+00  0.00000000000E+00  0.20200244994E+04  0.20200244994E+04  0.00000000000E+00 0.  1.
          2   -1    0    0  501    0  0.00000000000E+00 -0.00000000000E+00 -0.61661315801E+03  0.61661315801E+03  0.00000000000E+00 0. -1.
         24    2    1    2    0    0  0.17890864030E+03 -0.37143318471E+03  0.15752508173E+04  0.16302403801E+04  0.79357717517E+02 0.  0.
        254    2    1    2    0    0 -0.17890864030E+03  0.37143318471E+03 -0.17183947590E+03  0.10063972773E+04  0.90185129705E+03 0.  0.
         23    2    4    4    0    0 -0.37212605738E+03 -0.71303409271E+02  0.15293322866E+03  0.41898414184E+03  0.92720871056E+02 0.  0.
         23    2    4    4    0    0  0.19321741708E+03  0.44273659398E+03 -0.32477270455E+03  0.58741313546E+03  0.78919073537E+02 0.  0.
          4    1    3    3  502    0  0.38783021342E+01 -0.49859799571E+02  0.27101386173E+03  0.27558946658E+03  0.00000000000E+00 0. -1.
         -3    1    3    3    0  502  0.17503033817E+03 -0.32157338514E+03  0.13042369556E+04  0.13546509135E+04  0.00000000000E+00 0.  1.
         11    1    5    5    0    0 -0.91801494096E+02  0.85767173165E+01  0.55754955783E+01  0.92369694971E+02  0.00000000000E+00 0. -1.
        -11    1    5    5    0    0 -0.28032456329E+03 -0.79880126587E+02  0.14735773308E+03  0.32661444687E+03  0.00000000000E+00 0.  1.
          1    1    6    6  503    0  0.33401643000E+02  0.13088172789E+03 -0.12504222339E+03  0.18406861243E+03  0.00000000000E+00 0. -1.
         -1    1    6    6    0  503  0.15981577408E+03  0.31185486609E+03 -0.19973048116E+03  0.40334452303E+03  0.00000000000E+00 0.  1.
<mgrwt>
<rscale>  0 0.22321055E+04</rscale>
<asrwt>0</asrwt>
<pdfrwt beam="1">  1        2 0.94863564E-01 0.22321055E+04</pdfrwt>
<pdfrwt beam="2">  1       -3 0.31077300E+00 0.22321055E+04</pdfrwt>
<totfact> 0.90282491E-01</totfact>
</mgrwt>
</event>
<event>
12    6  0.9533401E-008  0.1558402E+04  0.7818608E-02  0.8846519E-01
         -1   -1    0    0    0  501 -0.00000000000E+00  0.00000000000E+00  0.42946863064E+03  0.42946863064E+03  0.00000000000E+00 0.  1.
          2   -1    0    0  501    0  0.00000000000E+00 -0.00000000000E+00 -0.14137339265E+04  0.14137339265E+04  0.00000000000E+00 0. -1.
         24    2    1    2    0    0 -0.18969642930E+03 -0.10126048550E+03  0.22492708781E+03  0.32137122405E+03  0.80304717182E+02 0.  0.
        254    2    1    2    0    0  0.18969642930E+03  0.10126048550E+03 -0.12091923836E+04  0.15218313331E+04  0.89865786840E+03 0.  0.
         23    2    4    4    0    0  0.21499721839E+03  0.76526220408E+02 -0.13377973368E+04  0.13602164410E+04  0.91689616574E+02 0.  0.
         23    2    4    4    0    0 -0.25300789092E+02  0.24734265096E+02  0.12860495313E+03  0.16161489206E+03  0.91259112238E+02 0.  0.
          2    1    3    3  502    0 -0.49883311603E+02 -0.48031242405E+02  0.12031623219E+03  0.13882125468E+03  0.00000000000E+00 0. -1.
         -1    1    3    3    0  502 -0.13981311770E+03 -0.53229243099E+02  0.10461085561E+03  0.18254996936E+03  0.00000000000E+00 0.  1.
         11    1    5    5    0    0  0.10664325819E+03  0.82401566250E+01 -0.81353728061E+03  0.82053859851E+03  0.00000000000E+00 0. -1.
        -11    1    5    5    0    0  0.10835396020E+03  0.68286063783E+02 -0.52426005615E+03  0.53967784249E+03  0.00000000000E+00 0.  1.
          1    1    6    6  503    0 -0.14635157161E+02  0.48343442935E+02  0.28049548951E+02  0.57775890268E+02  0.00000000000E+00 0. -1.
         -1    1    6    6    0  503 -0.10665631931E+02 -0.23609177838E+02  0.10055540418E+03  0.10383900179E+03  0.00000000000E+00 0.  1.
<mgrwt>
<rscale>  0 0.15584022E+04</rscale>
<asrwt>0</asrwt>
<pdfrwt beam="1">  1        2 0.21749753E+00 0.15584022E+04</pdfrwt>
<pdfrwt beam="2">  1       -1 0.66072096E-01 0.15584022E+04</pdfrwt>
<totfact> 0.36169369E+01</totfact>
</mgrwt>
</event>
<event>
12    6  0.9533401E-008  0.2609404E+04  0.7818608E-02  0.8365014E-01
          2   -1    0    0  501    0  0.00000000000E+00  0.00000000000E+00  0.26827879651E+04  0.26827879651E+04  0.00000000000E+00 0. -1.
         -1   -1    0    0    0  501 -0.00000000000E+00 -0.00000000000E+00 -0.63450688481E+03  0.63450688481E+03  0.00000000000E+00 0.  1.
         24    2    1    2    0    0  0.47166048429E+02  0.10906362037E+04  0.44274249484E+03  0.11808673004E+04  0.81943270392E+02 0.  0.
        254    2    1    2    0    0 -0.47166048429E+02 -0.10906362037E+04  0.16055385855E+04  0.21364275495E+04  0.89154728421E+03 0.  0.
         23    2    4    4    0    0  0.68046759556E+02 -0.11419603320E+04  0.16133039904E+04  0.19798046997E+04  0.90405321600E+02 0.  0.
         23    2    4    4    0    0 -0.11521280799E+03  0.51324128340E+02 -0.77654049278E+01  0.15662284980E+03  0.92532471554E+02 0.  0.
          4    1    3    3  502    0  0.37410250507E+02  0.17314111619E+03  0.75518247681E+02  0.19256266173E+03  0.00000000000E+00 0. -1.
         -3    1    3    3    0  502  0.97557979224E+01  0.91749508749E+03  0.36722424716E+03  0.98830463870E+03  0.00000000000E+00 0.  1.
         11    1    5    5    0    0 -0.36937775553E+01 -0.47340310084E+03  0.72065818845E+03  0.86224843547E+03  0.00000000000E+00 0.  1.
        -11    1    5    5    0    0  0.71740537112E+02 -0.66855723118E+03  0.89264580197E+03  0.11175562643E+04  0.00000000000E+00 0. -1.
          1    1    6    6  503    0 -0.11792500338E+03  0.32787067875E+02  0.19090664567E+02  0.12387797107E+03  0.00000000000E+00 0. -1.
         -1    1    6    6    0  503  0.27121953946E+01  0.18537060465E+02 -0.26856069495E+02  0.32744878733E+02  0.00000000000E+00 0.  1.
<mgrwt>
<rscale>  0 0.26094041E+04</rscale>
<asrwt>0</asrwt>
<pdfrwt beam="1">  1        2 0.41273660E+00 0.26094041E+04</pdfrwt>
<pdfrwt beam="2">  1       -1 0.97616445E-01 0.26094041E+04</pdfrwt>
<totfact> 0.27510625E+00</totfact>
</mgrwt>
</event>
<event>
12    6  0.9533401E-008  0.1285236E+04  0.7818608E-02  0.9041355E-01
         -1   -1    0    0    0  501 -0.00000000000E+00  0.00000000000E+00  0.21855776278E+03  0.21855776278E+03  0.00000000000E+00 0.  1.
          2   -1    0    0  501    0  0.00000000000E+00 -0.00000000000E+00 -0.18894691222E+04  0.18894691222E+04  0.00000000000E+00 0. -1.
         24    2    1    2    0    0 -0.21741328539E+02 -0.27197338867E+03 -0.14908258291E+03  0.32126153910E+03  0.80877379209E+02 0.  0.
        254    2    1    2    0    0  0.21741328539E+02  0.27197338867E+03 -0.15218287765E+04  0.17867653459E+04  0.89561451905E+03 0.  0.
         23    2    4    4    0    0  0.33658772292E+03  0.42331985853E+03 -0.11087624191E+04  0.12371274251E+04  0.92947113770E+02 0.  0.
         23    2    4    4    0    0 -0.31484639439E+03 -0.15134646986E+03 -0.41306635741E+03  0.54963792083E+03  0.97180360158E+02 0.  0.
          2    1    3    3  502    0 -0.17293015411E+02 -0.85807079051E+02 -0.85173175988E+01  0.87945709937E+02  0.00000000000E+00 0. -1.
         -1    1    3    3    0  502 -0.44483131277E+01 -0.18616630962E+03 -0.14056526531E+03  0.23331582916E+03  0.00000000000E+00 0.  1.
         11    1    5    5    0    0  0.13770662431E+03  0.24225857931E+03 -0.52438458666E+03  0.59382786088E+03  0.00000000000E+00 0. -1.
        -11    1    5    5    0    0  0.19888109861E+03  0.18106127921E+03 -0.58437783244E+03  0.64329956417E+03  0.00000000000E+00 0.  1.
          1    1    6    6  503    0 -0.14471314015E+03 -0.10464080249E+03 -0.26366548230E+03  0.31845105909E+03  0.00000000000E+00 0. -1.
         -1    1    6    6    0  503 -0.17013325423E+03 -0.46705667365E+02 -0.14940087511E+03  0.23118686174E+03  0.00000000000E+00 0.  1.
<mgrwt>
<rscale>  0 0.12852364E+04</rscale>
<asrwt>0</asrwt>
<pdfrwt beam="1">  1        2 0.29068756E+00 0.12852364E+04</pdfrwt>
<pdfrwt beam="2">  1       -1 0.33624271E-01 0.12852364E+04</pdfrwt>
<totfact> 0.71752681E+01</totfact>
</mgrwt>
</event>
<event>
12    6  0.9533401E-008  0.1068551E+04  0.7818608E-02  0.9236398E-01
         -1   -1    0    0    0  501 -0.00000000000E+00  0.00000000000E+00  0.15619038709E+03  0.15619038709E+03  0.00000000000E+00 0.  1.
          2   -1    0    0  501    0  0.00000000000E+00 -0.00000000000E+00 -0.18275805040E+04  0.18275805040E+04  0.00000000000E+00 0. -1.
         24    2    1    2    0    0  0.44237597682E+01 -0.12847182353E+03 -0.18740327200E+03  0.24056233796E+03  0.78902934023E+02 0.  0.
        254    2    1    2    0    0 -0.44237597682E+01  0.12847182353E+03 -0.14839868449E+04  0.17432085532E+04  0.90555757673E+03 0.  0.
         23    2    4    4    0    0 -0.27567461277E+03  0.11260567644E+03 -0.10053679469E+03  0.33030546844E+03  0.10157521793E+03 0.  0.
         23    2    4    4    0    0  0.27125085301E+03  0.15866147083E+02 -0.13834500503E+04  0.14129030847E+04  0.92370587319E+02 0.  0.
          4    1    3    3  502    0 -0.11119699686E+02 -0.10247388600E+03 -0.18289193577E+03  0.20993809851E+03  0.00000000000E+00 0. -1.
         -3    1    3    3    0  502  0.15543459454E+02 -0.25997937530E+02 -0.45113362245E+01  0.30624239454E+02  0.00000000000E+00 0.  1.
         11    1    5    5    0    0 -0.16321677808E+02 -0.16024350583E+02  0.25173472921E+01  0.23011171536E+02  0.00000000000E+00 0. -1.
        -11    1    5    5    0    0 -0.25935293497E+03  0.12863002703E+03 -0.10305414198E+03  0.30729429690E+03  0.00000000000E+00 0.  1.
          1    1    6    6  503    0  0.35031426957E+01  0.11080671747E+02 -0.17888092122E+02  0.21331599445E+02  0.00000000000E+00 0. -1.
         -1    1    6    6    0  503  0.26774771031E+03  0.47854753355E+01 -0.13655619581E+04  0.13915714853E+04  0.00000000000E+00 0.  1.
<mgrwt>
<rscale>  0 0.10685514E+04</rscale>
<asrwt>0</asrwt>
<pdfrwt beam="1">  1        2 0.28116626E+00 0.10685514E+04</pdfrwt>
<pdfrwt beam="2">  1       -1 0.24029288E-01 0.10685514E+04</pdfrwt>
<totfact> 0.14163671E+02</totfact>
</mgrwt>
</event>
<event>
12    6  0.9533401E-008  0.2026012E+04  0.7818608E-02  0.8594555E-01
          2   -1    0    0  501    0  0.00000000000E+00  0.00000000000E+00  0.12427119012E+04  0.12427119012E+04  0.00000000000E+00 0. -1.
         -1   -1    0    0    0  501 -0.00000000000E+00 -0.00000000000E+00 -0.82575970132E+03  0.82575970132E+03  0.00000000000E+00 0.  1.
         24    2    1    2    0    0 -0.15581002180E+03 -0.39764789299E+03  0.87403251047E+03  0.97615693206E+03  0.80925378905E+02 0.  0.
        254    2    1    2    0    0  0.15581002180E+03  0.39764789299E+03 -0.45708031054E+03  0.10923146705E+04  0.89544866934E+03 0.  0.
         23    2    4    4    0    0  0.17569833478E+03  0.52609128978E+03  0.47130152783E+02  0.56400493676E+03  0.90765452467E+02 0.  0.
         23    2    4    4    0    0 -0.19888312976E+02 -0.12844339679E+03 -0.50421046332E+03  0.52830973375E+03  0.89385302364E+02 0.  0.
          2    1    3    3  502    0 -0.12865521309E+03 -0.37769831448E+03  0.82783032305E+03  0.91897291819E+03  0.00000000000E+00 0. -1.
         -1    1    3    3    0  502 -0.27154808711E+02 -0.19949578505E+02  0.46202187425E+02  0.57184013863E+02  0.00000000000E+00 0.  1.
         11    1    5    5    0    0  0.13805923751E+02  0.11905592601E+03 -0.17805467664E+02  0.12116910384E+03  0.00000000000E+00 0.  1.
        -11    1    5    5    0    0  0.16189241103E+03  0.40703536377E+03  0.64935620447E+02  0.44283583291E+03  0.00000000000E+00 0. -1.
          3    1    6    6  503    0 -0.31348825591E+02 -0.38228946598E+01 -0.79434122798E+02  0.85481829966E+02  0.00000000000E+00 0. -1.
         -3    1    6    6    0  503  0.11460512616E+02 -0.12462050213E+03 -0.42477634052E+03  0.44282790378E+03  0.00000000000E+00 0.  1.
<mgrwt>
<rscale>  0 0.20260122E+04</rscale>
<asrwt>0</asrwt>
<pdfrwt beam="1">  1        2 0.19118645E+00 0.20260122E+04</pdfrwt>
<pdfrwt beam="2">  1       -1 0.12703995E+00 0.20260122E+04</pdfrwt>
<totfact> 0.10148073E+01</totfact>
</mgrwt>
</event>
<event>
12    6  0.9533401E-008  0.2683560E+04  0.7818608E-02  0.8340359E-01
         -1   -1    0    0    0  501 -0.00000000000E+00  0.00000000000E+00  0.15011240860E+04  0.15011240860E+04  0.00000000000E+00 0.  1.
          2   -1    0    0  501    0  0.00000000000E+00 -0.00000000000E+00 -0.11993505888E+04  0.11993505888E+04  0.00000000000E+00 0. -1.
         24    2    1    2    0    0 -0.50334898069E+03 -0.71561766793E+03 -0.66447679240E+03  0.11013878171E+04  0.77825914126E+02 0.  0.
        254    2    1    2    0    0  0.50334898069E+03  0.71561766793E+03  0.96625028951E+03  0.15990868577E+04  0.92626686952E+03 0.  0.
         23    2    4    4    0    0  0.61996225312E+03  0.11131868929E+03  0.61390346774E+03  0.88423875363E+03  0.90860661592E+02 0.  0.
         23    2    4    4    0    0 -0.11661327243E+03  0.60429897864E+03  0.35234682177E+03  0.71484810410E+03  0.89908944120E+02 0.  0.
          4    1    3    3  502    0 -0.45562915798E+03 -0.63179209608E+03 -0.56107671437E+03  0.95998242779E+03  0.00000000000E+00 0. -1.
         -3    1    3    3    0  502 -0.47719822718E+02 -0.83825571853E+02 -0.10340007804E+03  0.14140538927E+03  0.00000000000E+00 0.  1.
         11    1    5    5    0    0  0.39756298523E+03  0.46455309349E+02  0.33729847624E+03  0.52343546409E+03  0.00000000000E+00 0. -1.
        -11    1    5    5    0    0  0.22239926789E+03  0.64863379939E+02  0.27660499150E+03  0.36080328953E+03  0.00000000000E+00 0.  1.
          1    1    6    6  503    0 -0.87646894363E+02  0.56564058635E+03  0.31195522320E+03  0.65187982965E+03  0.00000000000E+00 0. -1.
         -1    1    6    6    0  503 -0.28966378069E+02  0.38658392293E+02  0.40391598570E+02  0.62968274457E+02  0.00000000000E+00 0.  1.
<mgrwt>
<rscale>  0 0.26835604E+04</rscale>
<asrwt>0</asrwt>
<pdfrwt beam="1">  1        2 0.18451547E+00 0.26835604E+04</pdfrwt>
<pdfrwt beam="2">  1       -1 0.23094217E+00 0.26835604E+04</pdfrwt>
<totfact> 0.17656841E+00</totfact>
</mgrwt>
</event>
<event>
12    6  0.9533401E-008  0.2993324E+04  0.7818608E-02  0.8245640E-01
          2   -1    0    0  501    0  0.00000000000E+00  0.00000000000E+00  0.20707178875E+04  0.20707178875E+04  0.00000000000E+00 0. -1.
         -1   -1    0    0    0  501 -0.00000000000E+00 -0.00000000000E+00 -0.10817488188E+04  0.10817488188E+04  0.00000000000E+00 0.  1.
         24    2    1    2    0    0  0.12584031787E+04  0.68407871259E+02  0.10147913629E+04  0.16200008382E+04  0.79643006900E+02 0.  0.
        254    2    1    2    0    0 -0.12584031787E+04 -0.68407871259E+02 -0.25822294139E+02  0.15324658682E+04  0.87150826122E+03 0.  0.
         23    2    4    4    0    0 -0.13347727460E+04 -0.17903319180E+03  0.55713286648E+02  0.13509258917E+04  0.90695244148E+02 0.  0.
         23    2    4    4    0    0  0.76369567315E+02  0.11062532054E+03 -0.81535580787E+02  0.18153997652E+03  0.90765851418E+02 0.  0.
          4    1    3    3  502    0  0.10050371248E+04  0.23585117216E+02  0.81834036348E+03  0.12962780684E+04  0.00000000000E+00 0. -1.
         -3    1    3    3    0  502  0.25336605382E+03  0.44822754043E+02  0.19645099938E+03  0.32372276977E+03  0.00000000000E+00 0.  1.
         11    1    5    5    0    0 -0.86662861518E+03 -0.10539972072E+03 -0.59251545167E+01  0.87303457276E+03  0.00000000000E+00 0. -1.
        -11    1    5    5    0    0 -0.46814413080E+03 -0.73633471079E+02  0.61638441164E+02  0.47789131891E+03  0.00000000000E+00 0.  1.
          1    1    6    6  503    0  0.58282408728E+02  0.11407424278E+03 -0.36982953892E+02  0.13333233258E+03  0.00000000000E+00 0. -1.
         -1    1    6    6    0  503  0.18087158588E+02 -0.34489222439E+01 -0.44552626895E+02  0.48207643934E+02  0.00000000000E+00 0.  1.
<mgrwt>
<rscale>  0 0.29933237E+04</rscale>
<asrwt>0</asrwt>
<pdfrwt beam="1">  1        2 0.31857198E+00 0.29933237E+04</pdfrwt>
<pdfrwt beam="2">  1       -1 0.16642290E+00 0.29933237E+04</pdfrwt>
<totfact> 0.15543907E+00</totfact>
</mgrwt>
</event>
<event>
12    6  0.9533401E-008  0.1449217E+04  0.7818608E-02  0.8918944E-01
         -1   -1    0    0    0  501 -0.00000000000E+00  0.00000000000E+00  0.16834570912E+04  0.16834570912E+04  0.00000000000E+00 0.  1.
          2   -1    0    0  501    0  0.00000000000E+00 -0.00000000000E+00 -0.31189222425E+03  0.31189222425E+03  0.00000000000E+00 0. -1.
         24    2    1    2    0    0 -0.32890555459E+03 -0.28186061359E+03  0.31950990960E+03  0.54500742624E+03  0.85570105680E+02 0.  0.
        254    2    1    2    0    0  0.32890555459E+03  0.28186061359E+03  0.10520549574E+04  0.14503418892E+04  0.89947078496E+03 0.  0.
         23    2    4    4    0    0  0.47718762409E+03 -0.11038881864E+03  0.29117277732E+03  0.57681444627E+03  0.89663812687E+02 0.  0.
         23    2    4    4    0    0 -0.14828206951E+03  0.39224943223E+03  0.76088218004E+03  0.87352744295E+03  0.90891762346E+02 0.  0.
          2    1    3    3  502    0 -0.70626388266E+02 -0.26510199797E+02  0.79938828890E+02  0.10991402903E+03  0.00000000000E+00 0. -1.
         -1    1    3    3    0  502 -0.25827916632E+03 -0.25535041380E+03  0.23957108071E+03  0.43509339721E+03  0.00000000000E+00 0.  1.
         11    1    5    5    0    0  0.11612886083E+03 -0.56596830257E+02  0.10803992752E+03  0.16840943991E+03  0.00000000000E+00 0. -1.
        -11    1    5    5    0    0  0.36105876326E+03 -0.53791988385E+02  0.18313284981E+03  0.40840500636E+03  0.00000000000E+00 0.  1.
          1    1    6    6  503    0  0.41478060857E+01  0.33717227991E+02  0.30121433065E+02  0.45402163920E+02  0.00000000000E+00 0. -1.
         -1    1    6    6    0  503 -0.15242987559E+03  0.35853220424E+03  0.73076074697E+03  0.82812527903E+03  0.00000000000E+00 0.  1.
<mgrwt>
<rscale>  0 0.14492166E+04</rscale>
<asrwt>0</asrwt>
<pdfrwt beam="1">  1        2 0.47983420E-01 0.14492166E+04</pdfrwt>
<pdfrwt beam="2">  1       -1 0.25899339E+00 0.14492166E+04</pdfrwt>
<totfact> 0.71193829E+00</totfact>
</mgrwt>
</event>
<event>
12    6  0.9533401E-008  0.3925947E+04  0.7818608E-02  0.8019654E-01
         -1   -1    0    0    0  501 -0.00000000000E+00  0.00000000000E+00  0.18590050115E+04  0.18590050115E+04  0.00000000000E+00 0.  1.
          2   -1    0    0  501    0  0.00000000000E+00 -0.00000000000E+00 -0.20727562624E+04  0.20727562624E+04  0.00000000000E+00 0. -1.
         24    2    1    2    0    0 -0.59272013274E+03  0.50778620981E+03  0.15869543448E+04  0.17708221629E+04  0.90681032384E+02 0.  0.
        254    2    1    2    0    0  0.59272013274E+03 -0.50778620981E+03 -0.18007055956E+04  0.21609391110E+04  0.90440765643E+03 0.  0.
         23    2    4    4    0    0  0.52676284086E+03 -0.66433487861E+01 -0.39593764835E+03  0.66522007001E+03  0.90707748120E+02 0.  0.
         23    2    4    4    0    0  0.65957291882E+02 -0.50114286102E+03 -0.14047679472E+04  0.14957190410E+04  0.91147861274E+02 0.  0.
          2    1    3    3  502    0 -0.29518152877E+02  0.57520290100E+02  0.12699039319E+03  0.14250075468E+03  0.00000000000E+00 0. -1.
         -1    1    3    3    0  502 -0.56320197986E+03  0.45026591971E+03  0.14599639516E+04  0.16283214082E+04  0.00000000000E+00 0.  1.
         11    1    5    5    0    0  0.46592275477E+03 -0.20509366449E+02 -0.31400519183E+03  0.56223118734E+03  0.00000000000E+00 0.  1.
        -11    1    5    5    0    0  0.60840086083E+02  0.13866017663E+02 -0.81932456521E+02  0.10298888266E+03  0.00000000000E+00 0. -1.
          3    1    6    6  503    0  0.46576437518E+02 -0.11568933088E+03 -0.27814122375E+03  0.30482113798E+03  0.00000000000E+00 0. -1.
         -3    1    6    6    0  503  0.19380854365E+02 -0.38545353015E+03 -0.11266267235E+04  0.11908979030E+04  0.00000000000E+00 0.  1.
<mgrwt>
<rscale>  0 0.39259467E+04</rscale>
<asrwt>0</asrwt>
<pdfrwt beam="1">  1        2 0.31888558E+00 0.39259467E+04</pdfrwt>
<pdfrwt beam="2">  1       -1 0.28600077E+00 0.39259467E+04</pdfrwt>
<totfact> 0.22357907E-01</totfact>
</mgrwt>
</event>
<event>
12    6  0.9533401E-008  0.1850173E+04  0.7818608E-02  0.8680064E-01
         -1   -1    0    0    0  501 -0.00000000000E+00  0.00000000000E+00  0.76033998096E+03  0.76033998096E+03  0.00000000000E+00 0.  1.
          2   -1    0    0  501    0  0.00000000000E+00 -0.00000000000E+00 -0.11255298245E+04  0.11255298245E+04  0.00000000000E+00 0. -1.
         24    2    1    2    0    0 -0.55052028812E+03  0.34462779035E+03 -0.41536765850E+03  0.77497491209E+03  0.78834771002E+02 0.  0.
        254    2    1    2    0    0  0.55052028812E+03 -0.34462779035E+03  0.50177814927E+02  0.11108948934E+04  0.89984929269E+03 0.  0.
         23    2    4    4    0    0  0.75797469397E+02 -0.43246997775E+03 -0.27087342858E+03  0.52389331381E+03  0.91193486199E+02 0.  0.
         23    2    4    4    0    0  0.47472281873E+03  0.87842187396E+02  0.32105124351E+03  0.58700157959E+03  0.91754830812E+02 0.  0.
          4    1    3    3  502    0 -0.54072796965E+03  0.33815463628E+03 -0.41852073669E+03  0.76282036040E+03  0.00000000000E+00 0. -1.
         -3    1    3    3    0  502 -0.97923184730E+01  0.64731540704E+01  0.31530781880E+01  0.12154551689E+02  0.00000000000E+00 0.  1.
         11    1    5    5    0    0  0.59060415639E+02 -0.41636617839E+03 -0.23669426911E+03  0.48256927403E+03  0.00000000000E+00 0. -1.
        -11    1    5    5    0    0  0.16737053758E+02 -0.16103799356E+02 -0.34179159466E+02  0.41324039784E+02  0.00000000000E+00 0.  1.
          4    1    6    6  503    0  0.31241749338E+03  0.10035802313E+03  0.20207799394E+03  0.38537246738E+03  0.00000000000E+00 0. -1.
         -4    1    6    6    0  503  0.16230532534E+03 -0.12515835732E+02  0.11897324957E+03  0.20162911221E+03  0.00000000000E+00 0.  1.
<mgrwt>
<rscale>  0 0.18501733E+04</rscale>
<asrwt>0</asrwt>
<pdfrwt beam="1">  1        2 0.17315843E+00 0.18501733E+04</pdfrwt>
<pdfrwt beam="2">  1       -1 0.11697538E+00 0.18501733E+04</pdfrwt>
<totfact> 0.14846353E+01</totfact>
</mgrwt>
</event>
<event>
12    6  0.2332864E-007  0.2163392E+04  0.7818608E-02  0.8533822E-01
          2   -1    0    0  501    0  0.00000000000E+00  0.00000000000E+00  0.15228914510E+04  0.15228914510E+04  0.00000000000E+00 0. -1.
         -1   -1    0    0    0  501 -0.00000000000E+00 -0.00000000000E+00 -0.76831852660E+03  0.76831852660E+03  0.00000000000E+00 0.  1.
         24    2    1    2    0    0  0.44889044193E+03 -0.80152712975E+02 -0.49911532835E+03  0.68076788905E+03  0.80010758717E+02 0.  0.
        254    2    1    2    0    0 -0.44889044193E+03  0.80152712975E+02  0.12536882528E+04  0.16104420886E+04  0.90214322547E+03 0.  0.
         23    2    4    4    0    0  0.18426728382E+03  0.22628374859E+03  0.18644582639E+03  0.35771020200E+03  0.89642488105E+02 0.  0.
         23    2    4    4    0    0 -0.63315772575E+03 -0.14613103561E+03  0.10672424264E+04  0.12527318866E+04  0.89932184139E+02 0.  0.
          2    1    3    3  502    0  0.12145121029E+02 -0.67616335218E+01 -0.42271208341E+02  0.44498075322E+02  0.00000000000E+00 0. -1.
         -1    1    3    3    0  502  0.43674532090E+03 -0.73391079453E+02 -0.45684412001E+03  0.63626981373E+03  0.00000000000E+00 0.  1.
         11    1    5    5    0    0  0.40654639129E+02  0.48112220856E+01  0.19112585666E+02  0.45180067192E+02  0.00000000000E+00 0. -1.
        -11    1    5    5    0    0  0.14361264469E+03  0.22147252650E+03  0.16733324073E+03  0.31253013481E+03  0.00000000000E+00 0.  1.
          2    1    6    6  503    0 -0.55437049093E+02  0.11761264475E+02  0.80252927722E+02  0.98245234806E+02  0.00000000000E+00 0. -1.
         -2    1    6    6    0  503 -0.57772067665E+03 -0.15789230009E+03  0.98698949864E+03  0.11544866518E+04  0.00000000000E+00 0.  1.
<mgrwt>
<rscale>  0 0.21633915E+04</rscale>
<asrwt>0</asrwt>
<pdfrwt beam="1">  1        2 0.23429099E+00 0.21633915E+04</pdfrwt>
<pdfrwt beam="2">  1       -1 0.11820285E+00 0.21633915E+04</pdfrwt>
<totfact> 0.82665877E+00</totfact>
</mgrwt>
</event>
<event>
12    6  0.9533401E-008  0.2554397E+04  0.7818608E-02  0.8383858E-01
         -1   -1    0    0    0  501 -0.00000000000E+00  0.00000000000E+00  0.11722190256E+04  0.11722190256E+04  0.00000000000E+00 0.  1.
          2   -1    0    0  501    0  0.00000000000E+00 -0.00000000000E+00 -0.13915800797E+04  0.13915800797E+04  0.00000000000E+00 0. -1.
         24    2    1    2    0    0 -0.36719592806E+03  0.99324040952E+03  0.27171475656E+03  0.10960519267E+04  0.78368082393E+02 0.  0.
        254    2    1    2    0    0  0.36719592806E+03 -0.99324040952E+03 -0.49107581066E+03  0.14677471787E+04  0.88981288368E+03 0.  0.
         23    2    4    4    0    0  0.45966577221E+03 -0.83370702339E+03 -0.69140335442E+03  0.11801698477E+04  0.91663776380E+02 0.  0.
         23    2    4    4    0    0 -0.92469844151E+02 -0.15953338613E+03  0.20032754376E+03  0.28757733097E+03  0.92563616682E+02 0.  0.
          2    1    3    3  502    0 -0.43660923454E+02  0.60740792991E+02  0.19785822742E+02  0.77376992392E+02  0.00000000000E+00 0. -1.
         -1    1    3    3    0  502 -0.32353500460E+03  0.93249961653E+03  0.25192893382E+03  0.10186749343E+04  0.00000000000E+00 0.  1.
         11    1    5    5    0    0  0.44108116331E+03 -0.75769919111E+03 -0.65176852154E+03  0.10924572589E+04  0.00000000000E+00 0.  1.
        -11    1    5    5    0    0  0.18584608896E+02 -0.76007832281E+02 -0.39634832879E+02  0.87712588795E+02  0.00000000000E+00 0. -1.
          1    1    6    6  503    0 -0.10674933592E+02 -0.36885961226E+02 -0.55733359237E+00  0.38403632165E+02  0.00000000000E+00 0. -1.
         -1    1    6    6    0  503 -0.81794910559E+02 -0.12264742490E+03  0.20088487735E+03  0.24917369880E+03  0.00000000000E+00 0.  1.
<mgrwt>
<rscale>  0 0.25543975E+04</rscale>
<asrwt>0</asrwt>
<pdfrwt beam="1">  1        2 0.21408924E+00 0.25543975E+04</pdfrwt>
<pdfrwt beam="2">  1       -1 0.18034139E+00 0.25543975E+04</pdfrwt>
<totfact> 0.30629330E+00</totfact>
</mgrwt>
</event>
<event>
12    6  0.9533401E-008  0.1821524E+04  0.7818608E-02  0.8694936E-01
          2   -1    0    0  501    0  0.00000000000E+00  0.00000000000E+00  0.49029369379E+03  0.49029369379E+03  0.00000000000E+00 0. -1.
         -1   -1    0    0    0  501 -0.00000000000E+00 -0.00000000000E+00 -0.16918182782E+04  0.16918182782E+04  0.00000000000E+00 0.  1.
         24    2    1    2    0    0  0.53669569930E+02 -0.21673165802E+03  0.31662598201E+03  0.39578009942E+03  0.80850728462E+02 0.  0.
        254    2    1    2    0    0 -0.53669569930E+02  0.21673165802E+03 -0.15181505664E+04  0.17863318725E+04  0.91452030173E+03 0.  0.
         23    2    4    4    0    0  0.26279147789E+03  0.45381917848E+03 -0.92901100592E+03  0.10706864224E+04  0.91086543157E+02 0.  0.
         23    2    4    4    0    0 -0.31646104782E+03 -0.23708752046E+03 -0.58913956048E+03  0.71564545016E+03  0.93300061428E+02 0.  0.
          4    1    3    3  502    0  0.55920709600E+02 -0.21310157614E+03  0.32121514321E+03  0.38951068759E+03  0.00000000000E+00 0. -1.
         -3    1    3    3    0  502 -0.22511396704E+01 -0.36300818799E+01 -0.45891612017E+01  0.62694118389E+01  0.00000000000E+00 0.  1.
         11    1    5    5    0    0  0.22306257858E+03  0.43061499914E+03 -0.86777330291E+03  0.99409088955E+03  0.00000000000E+00 0. -1.
        -11    1    5    5    0    0  0.39728899317E+02  0.23204179341E+02 -0.61237703008E+02  0.76595532830E+02  0.00000000000E+00 0.  1.
          1    1    6    6  503    0 -0.17747666022E+03 -0.18033361106E+03 -0.32567036393E+03  0.41240679207E+03  0.00000000000E+00 0. -1.
         -1    1    6    6    0  503 -0.13898438761E+03 -0.56753909397E+02 -0.26346919655E+03  0.30323865809E+03  0.00000000000E+00 0.  1.
<mgrwt>
<rscale>  0 0.18215245E+04</rscale>
<asrwt>0</asrwt>
<pdfrwt beam="1">  1        2 0.75429799E-01 0.18215245E+04</pdfrwt>
<pdfrwt beam="2">  1       -1 0.26027973E+00 0.18215245E+04</pdfrwt>
<totfact> 0.40551546E+00</totfact>
</mgrwt>
</event>
<event>
12    6  0.9533401E-008  0.1879748E+04  0.7818608E-02  0.8665003E-01
         -1   -1    0    0    0  501 -0.00000000000E+00  0.00000000000E+00  0.49501332928E+03  0.49501332928E+03  0.00000000000E+00 0.  1.
          2   -1    0    0  501    0  0.00000000000E+00 -0.00000000000E+00 -0.17845237375E+04  0.17845237375E+04  0.00000000000E+00 0. -1.
         24    2    1    2    0    0  0.36259214960E+03  0.62116050775E+03 -0.39381732839E+03  0.82387541234E+03  0.79781975317E+02 0.  0.
        254    2    1    2    0    0 -0.36259214960E+03 -0.62116050775E+03 -0.89569307981E+03  0.14556616544E+04  0.89407567666E+03 0.  0.
         23    2    4    4    0    0 -0.15130817436E+03 -0.15593730874E+03  0.15682236029E+03  0.28213394128E+03  0.88293262760E+02 0.  0.
         23    2    4    4    0    0 -0.21128397524E+03 -0.46522319901E+03 -0.10525154401E+04  0.11735277131E+04  0.91131766081E+02 0.  0.
          2    1    3    3  502    0  0.36833038548E+00  0.12409339869E+02 -0.18342397734E+02  0.22148836039E+02  0.00000000000E+00 0. -1.
         -1    1    3    3    0  502  0.36222381921E+03  0.60875116788E+03 -0.37547493066E+03  0.80172657630E+03  0.00000000000E+00 0.  1.
         11    1    5    5    0    0 -0.21054865436E+02 -0.51366990490E+02  0.38701376197E+01  0.55649375879E+02  0.00000000000E+00 0. -1.
        -11    1    5    5    0    0 -0.13025330893E+03 -0.10457031825E+03  0.15295222267E+03  0.22648456540E+03  0.00000000000E+00 0.  1.
          4    1    6    6  503    0 -0.80639288499E+02 -0.86315293879E+02 -0.23024051121E+03  0.25877348745E+03  0.00000000000E+00 0. -1.
         -4    1    6    6    0  503 -0.13064468674E+03 -0.37890790513E+03 -0.82227492889E+03  0.91475422569E+03  0.00000000000E+00 0.  1.
<mgrwt>
<rscale>  0 0.18797479E+04</rscale>
<asrwt>0</asrwt>
<pdfrwt beam="1">  1        2 0.27454212E+00 0.18797479E+04</pdfrwt>
<pdfrwt beam="2">  1       -1 0.76155896E-01 0.18797479E+04</pdfrwt>
<totfact> 0.16279961E+01</totfact>
</mgrwt>
</event>
<event>
12    6  0.9533401E-008  0.1656393E+04  0.7818608E-02  0.8786634E-01
          2   -1    0    0  501    0  0.00000000000E+00  0.00000000000E+00  0.30599544916E+04  0.30599544916E+04  0.00000000000E+00 0. -1.
         -1   -1    0    0    0  501 -0.00000000000E+00 -0.00000000000E+00 -0.22415668711E+03  0.22415668711E+03  0.00000000000E+00 0.  1.
         24    2    1    2    0    0 -0.31156584807E+03  0.61455545041E+02  0.19737638018E+04  0.20006302359E+04  0.76991777538E+02 0.  0.
        254    2    1    2    0    0  0.31156584807E+03 -0.61455545041E+02  0.86203400268E+03  0.12834809428E+04  0.89630945941E+03 0.  0.
         23    2    4    4    0    0  0.90907387307E+02  0.97431629528E+02  0.96519179064E+03  0.97843594041E+03  0.89356708076E+02 0.  0.
         23    2    4    4    0    0  0.22065846076E+03 -0.15888717457E+03 -0.10315778796E+03  0.30504500237E+03  0.92063204953E+02 0.  0.
          2    1    3    3  502    0 -0.12506019517E+03  0.20818177044E+02  0.56873747876E+03  0.58269697842E+03  0.00000000000E+00 0. -1.
         -1    1    3    3    0  502 -0.18650565290E+03  0.40637367997E+02  0.14050263231E+04  0.14179332575E+04  0.00000000000E+00 0.  1.
         11    1    5    5    0    0 -0.53244878223E+01  0.30605199177E+02  0.40136004754E+03  0.40256045030E+03  0.00000000000E+00 0.  1.
        -11    1    5    5    0    0  0.96231875130E+02  0.66826430351E+02  0.56383174310E+03  0.57587549011E+03  0.00000000000E+00 0. -1.
          2    1    6    6  503    0  0.76662756904E+02 -0.11031761600E+03 -0.59541269895E+02  0.14694324591E+03  0.00000000000E+00 0. -1.
         -2    1    6    6    0  503  0.14399570386E+03 -0.48569558565E+02 -0.43616518067E+02  0.15810175647E+03  0.00000000000E+00 0.  1.
<mgrwt>
<rscale>  0 0.16563928E+04</rscale>
<asrwt>0</asrwt>
<pdfrwt beam="1">  1        2 0.47076220E+00 0.16563928E+04</pdfrwt>
<pdfrwt beam="2">  1       -1 0.34485646E-01 0.16563928E+04</pdfrwt>
<totfact> 0.13906605E+01</totfact>
</mgrwt>
</event>
<event>
12    6  0.9533401E-008  0.2234331E+04  0.7818608E-02  0.8504273E-01
          2   -1    0    0  501    0  0.00000000000E+00  0.00000000000E+00  0.27780342098E+04  0.27780342098E+04  0.00000000000E+00 0. -1.
         -3   -1    0    0    0  501 -0.00000000000E+00 -0.00000000000E+00 -0.44925977364E+03  0.44925977364E+03  0.00000000000E+00 0.  1.
         24    2    1    2    0    0  0.20110841399E+02  0.18167498711E+03 -0.34452202609E+03  0.39798906980E+03  0.79307164489E+02 0.  0.
        254    2    1    2    0    0 -0.20110841399E+02 -0.18167498711E+03  0.26732964623E+04  0.28293049137E+04  0.90831826604E+03 0.  0.
         23    2    4    4    0    0  0.26825089730E+03 -0.24517485062E+03  0.23589993659E+04  0.23886921045E+04  0.94354175550E+02 0.  0.
         23    2    4    4    0    0 -0.28836173870E+03  0.63499863510E+02  0.31429709639E+03  0.44061280920E+03  0.90400541033E+02 0.  0.
          2    1    3    3  502    0  0.87991663489E+01  0.48954840843E+01 -0.73662677505E+02  0.74347704404E+02  0.00000000000E+00 0. -1.
         -1    1    3    3    0  502  0.11311675050E+02  0.17677950303E+03 -0.27085934858E+03  0.32364136540E+03  0.00000000000E+00 0.  1.
         11    1    5    5    0    0  0.25923469305E+03 -0.25296332106E+03  0.23123126614E+04  0.23405091138E+04  0.00000000000E+00 0. -1.
        -11    1    5    5    0    0  0.90162042498E+01  0.77884704413E+01  0.46686704483E+02  0.48182990633E+02  0.00000000000E+00 0.  1.
          3    1    6    6  503    0 -0.28732330361E+03  0.55340133965E+02  0.31751624402E+03  0.43177977771E+03  0.00000000000E+00 0. -1.
         -3    1    6    6    0  503 -0.10384350856E+01  0.81597295451E+01 -0.32191476329E+01  0.88330314818E+01  0.00000000000E+00 0.  1.
<mgrwt>
<rscale>  0 0.22343312E+04</rscale>
<asrwt>0</asrwt>
<pdfrwt beam="1">  1        2 0.42738987E+00 0.22343312E+04</pdfrwt>
<pdfrwt beam="2">  1       -3 0.69116890E-01 0.22343312E+04</pdfrwt>
<totfact> 0.28016252E+00</totfact>
</mgrwt>
</event>
<event>
12    6  0.9533401E-008  0.2008210E+04  0.7818608E-02  0.8602792E-01
          2   -1    0    0  501    0  0.00000000000E+00  0.00000000000E+00  0.22298059189E+04  0.22298059189E+04  0.00000000000E+00 0. -1.
         -1   -1    0    0    0  501 -0.00000000000E+00 -0.00000000000E+00 -0.45215920329E+03  0.45215920329E+03  0.00000000000E+00 0.  1.
         24    2    1    2    0    0  0.45044672355E+02 -0.13799282522E+03 -0.33462063628E+03  0.37356632580E+03  0.80683252478E+02 0.  0.
        254    2    1    2    0    0 -0.45044672355E+02  0.13799282522E+03  0.21122673519E+04  0.23083987964E+04  0.91976116194E+03 0.  0.
         23    2    4    4    0    0 -0.23334377925E+03 -0.32516486137E+03  0.11033366241E+04  0.11782106170E+04  0.10318452101E+03 0.  0.
         23    2    4    4    0    0  0.18829910689E+03  0.46315768658E+03  0.10089307278E+04  0.11301881795E+04  0.97018097472E+02 0.  0.
          4    1    3    3  502    0  0.45417442033E+02 -0.35522211364E+02 -0.17146956049E+03  0.18090434410E+03  0.00000000000E+00 0. -1.
         -3    1    3    3    0  502 -0.37276967821E+00 -0.10247061385E+03 -0.16315107579E+03  0.19266198170E+03  0.00000000000E+00 0.  1.
         11    1    5    5    0    0 -0.19696160600E+03 -0.28668341904E+03  0.10341916797E+04  0.10911157992E+04  0.00000000000E+00 0.  1.
        -11    1    5    5    0    0 -0.36382173247E+02 -0.38481442325E+02  0.69144944476E+02  0.87094817757E+02  0.00000000000E+00 0. -1.
          1    1    6    6  503    0  0.80321298107E+01  0.87265532283E+01  0.76048868502E+02  0.76968163815E+02  0.00000000000E+00 0. -1.
         -1    1    6    6    0  503  0.18026697708E+03  0.45443113335E+03  0.93288185928E+03  0.10532200156E+04  0.00000000000E+00 0.  1.
<mgrwt>
<rscale>  0 0.20082104E+04</rscale>
<asrwt>0</asrwt>
<pdfrwt beam="1">  1        2 0.34304706E+00 0.20082104E+04</pdfrwt>
<pdfrwt beam="2">  1       -1 0.69562956E-01 0.20082104E+04</pdfrwt>
<totfact> 0.10974797E+01</totfact>
</mgrwt>
</event>
<event>
12    6  0.9533401E-008  0.1512085E+04  0.7818608E-02  0.8876456E-01
         -1   -1    0    0    0  501 -0.00000000000E+00  0.00000000000E+00  0.21784408791E+03  0.21784408791E+03  0.00000000000E+00 0.  1.
          2   -1    0    0  501    0  0.00000000000E+00 -0.00000000000E+00 -0.26238952306E+04  0.26238952306E+04  0.00000000000E+00 0. -1.
         24    2    1    2    0    0  0.20774652227E+03 -0.44048194230E+02 -0.15937835214E+04  0.16109712107E+04  0.99917304154E+02 0.  0.
        254    2    1    2    0    0 -0.20774652227E+03  0.44048194230E+02 -0.81226762123E+03  0.12307681078E+04  0.89995143515E+03 0.  0.
         23    2    4    4    0    0 -0.55414626066E+03  0.78925560260E+01 -0.44431053448E+03  0.71608967753E+03  0.90731497108E+02 0.  0.
         23    2    4    4    0    0  0.34639973839E+03  0.36155638204E+02 -0.36795708675E+03  0.51467843022E+03  0.90561912048E+02 0.  0.
          4    1    3    3  502    0  0.15837946407E+03 -0.35045215913E+01 -0.13373611682E+04  0.13467112647E+04  0.00000000000E+00 0. -1.
         -3    1    3    3    0  502  0.49367058200E+02 -0.40543672639E+02 -0.25642235320E+03  0.26425994597E+03  0.00000000000E+00 0.  1.
         11    1    5    5    0    0 -0.21924010594E+03  0.37211509662E+02 -0.21367376324E+03  0.30839487285E+03  0.00000000000E+00 0. -1.
        -11    1    5    5    0    0 -0.33490615472E+03 -0.29318953636E+02 -0.23063677124E+03  0.40769480468E+03  0.00000000000E+00 0.  1.
          4    1    6    6  503    0  0.72841687290E+02  0.52663742225E+01 -0.30428975541E+02  0.79117435860E+02  0.00000000000E+00 0. -1.
         -4    1    6    6    0  503  0.27355805110E+03  0.30889263982E+02 -0.33752811121E+03  0.43556099436E+03  0.00000000000E+00 0.  1.
<mgrwt>
<rscale>  0 0.15120847E+04</rscale>
<asrwt>0</asrwt>
<pdfrwt beam="1">  1        2 0.40367621E+00 0.15120847E+04</pdfrwt>
<pdfrwt beam="2">  1       -1 0.33514473E-01 0.15120847E+04</pdfrwt>
<totfact> 0.27259654E+01</totfact>
</mgrwt>
</event>
<event>
12    6  0.9533401E-008  0.1251777E+04  0.7818608E-02  0.9068706E-01
          2   -1    0    0  501    0  0.00000000000E+00  0.00000000000E+00  0.19428366653E+04  0.19428366653E+04  0.00000000000E+00 0. -1.
         -1   -1    0    0    0  501 -0.00000000000E+00 -0.00000000000E+00 -0.20163114346E+03  0.20163114346E+03  0.00000000000E+00 0.  1.
         24    2    1    2    0    0  0.62569867423E+02  0.26408557911E+03  0.21927370791E+03  0.35782929523E+03  0.79401915227E+02 0.  0.
        254    2    1    2    0    0 -0.62569867423E+02 -0.26408557911E+03  0.15219318140E+04  0.17866385136E+04  0.89562522878E+03 0.  0.
         23    2    4    4    0    0  0.81365068087E+01  0.29186509103E+03  0.87255881967E+03  0.92442828992E+03  0.89203897345E+02 0.  0.
         23    2    4    4    0    0 -0.70706374232E+02 -0.55595067014E+03  0.64937299428E+03  0.86221022364E+03  0.87410783502E+02 0.  0.
          4    1    3    3  502    0  0.27105837775E+02  0.22027083104E+03  0.19850810654E+03  0.29775734048E+03  0.00000000000E+00 0. -1.
         -1    1    3    3    0  502  0.35464029648E+02  0.43814748071E+02  0.20765601375E+02  0.60071954753E+02  0.00000000000E+00 0.  1.
         11    1    5    5    0    0 -0.29280713264E+02  0.20004387209E+03  0.65155332254E+03  0.68219985564E+03  0.00000000000E+00 0.  1.
        -11    1    5    5    0    0  0.37417220072E+02  0.91821218947E+02  0.22100549714E+03  0.24222843428E+03  0.00000000000E+00 0. -1.
          1    1    6    6  503    0 -0.50704589790E+02 -0.29652263265E+03  0.41099341532E+03  0.50932525417E+03  0.00000000000E+00 0. -1.
         -1    1    6    6    0  503 -0.20001784442E+02 -0.25942803749E+03  0.23837957896E+03  0.35288496947E+03  0.00000000000E+00 0.  1.
<mgrwt>
<rscale>  0 0.12517769E+04</rscale>
<asrwt>0</asrwt>
<pdfrwt beam="1">  1        2 0.29889794E+00 0.12517769E+04</pdfrwt>
<pdfrwt beam="2">  1       -1 0.31020177E-01 0.12517769E+04</pdfrwt>
<totfact> 0.77528967E+01</totfact>
</mgrwt>
</event>
<event>
12    6  0.9533401E-008  0.1569662E+04  0.7818608E-02  0.8839406E-01
         -1   -1    0    0    0  501 -0.00000000000E+00  0.00000000000E+00  0.35017459461E+03  0.35017459461E+03  0.00000000000E+00 0.  1.
          2   -1    0    0  501    0  0.00000000000E+00 -0.00000000000E+00 -0.17590064567E+04  0.17590064567E+04  0.00000000000E+00 0. -1.
         24    2    1    2    0    0 -0.39368740032E+03  0.51916946761E+02 -0.26907699157E+02  0.40322392755E+03  0.64655803682E+02 0.  0.
        254    2    1    2    0    0  0.39368740032E+03 -0.51916946761E+02 -0.13819241630E+04  0.17059571238E+04  0.91809050614E+03 0.  0.
         23    2    4    4    0    0 -0.16952361860E+03 -0.30351288600E+03 -0.36404931793E+03  0.51218766372E+03  0.94583126154E+02 0.  0.
         23    2    4    4    0    0  0.56321101891E+03  0.25159593924E+03 -0.10178748450E+04  0.11937694601E+04  0.92245082004E+02 0.  0.
          4    1    3    3  502    0 -0.25421995023E+02 -0.68262985482E+01  0.10693908868E+02  0.28411896622E+02  0.00000000000E+00 0. -1.
         -3    1    3    3    0  502 -0.36826540529E+03  0.58743245309E+02 -0.37601608024E+02  0.37481203093E+03  0.00000000000E+00 0.  1.
         11    1    5    5    0    0 -0.68613724334E+02 -0.19181524448E+03 -0.16227612883E+03  0.26045051962E+03  0.00000000000E+00 0. -1.
        -11    1    5    5    0    0 -0.10090989426E+03 -0.11169764152E+03 -0.20177318910E+03  0.25173714410E+03  0.00000000000E+00 0.  1.
          1    1    6    6  503    0  0.26408960085E+03  0.13657785975E+03 -0.57222808879E+03  0.64485798022E+03  0.00000000000E+00 0. -1.
         -1    1    6    6    0  503  0.29912141806E+03  0.11501807949E+03 -0.44564675626E+03  0.54891147985E+03  0.00000000000E+00 0.  1.
<mgrwt>
<rscale>  0 0.15696616E+04</rscale>
<asrwt>0</asrwt>
<pdfrwt beam="1">  1        2 0.27061638E+00 0.15696616E+04</pdfrwt>
<pdfrwt beam="2">  1       -1 0.53873015E-01 0.15696616E+04</pdfrwt>
<totfact> 0.34627035E+01</totfact>
</mgrwt>
</event>
<event>
12    6  0.9533401E-008  0.2941838E+04  0.7818608E-02  0.8260537E-01
         -1   -1    0    0    0  501 -0.00000000000E+00  0.00000000000E+00  0.96046473009E+03  0.96046473009E+03  0.00000000000E+00 0.  1.
          2   -1    0    0  501    0  0.00000000000E+00 -0.00000000000E+00 -0.22526619444E+04  0.22526619444E+04  0.00000000000E+00 0. -1.
         24    2    1    2    0    0 -0.55967959125E+03 -0.89949231146E+03 -0.14694770227E+04  0.18132484523E+04  0.78610216945E+02 0.  0.
        254    2    1    2    0    0  0.55967959125E+03  0.89949231146E+03  0.17727980840E+03  0.13998782222E+04  0.89772113893E+03 0.  0.
         23    2    4    4    0    0  0.17474383532E+03  0.95968019234E+03  0.19955449211E+03  0.10001196793E+04  0.94318068598E+02 0.  0.
         23    2    4    4    0    0  0.38493575593E+03 -0.60187880878E+02 -0.22274683711E+02  0.39975854289E+03  0.86675336063E+02 0.  0.
          2    1    3    3  502    0 -0.37190004686E+03 -0.58393564665E+03 -0.89635021544E+03  0.11325785593E+04  0.00000000000E+00 0. -1.
         -1    1    3    3    0  502 -0.18777954439E+03 -0.31555666481E+03 -0.57312680726E+03  0.68066989298E+03  0.00000000000E+00 0.  1.
         11    1    5    5    0    0  0.30853996751E+01  0.11480550565E+03  0.49328189451E+02  0.12499237614E+03  0.00000000000E+00 0. -1.
        -11    1    5    5    0    0  0.17165843564E+03  0.84487468669E+03  0.15022630266E+03  0.87512730316E+03  0.00000000000E+00 0.  1.
          1    1    6    6  503    0  0.36737430329E+03 -0.75489343519E+02 -0.26891736342E+02  0.37601287902E+03  0.00000000000E+00 0. -1.
         -1    1    6    6    0  503  0.17561452635E+02  0.15301462641E+02  0.46170526308E+01  0.23745663869E+02  0.00000000000E+00 0.  1.
<mgrwt>
<rscale>  0 0.29418378E+04</rscale>
<asrwt>0</asrwt>
<pdfrwt beam="1">  1        2 0.34656337E+00 0.29418378E+04</pdfrwt>
<pdfrwt beam="2">  1       -1 0.14776381E+00 0.29418378E+04</pdfrwt>
<totfact> 0.17131965E+00</totfact>
</mgrwt>
</event>
<event>
12    6  0.9533401E-008  0.2961354E+04  0.7818608E-02  0.8254853E-01
         -1   -1    0    0    0  501 -0.00000000000E+00  0.00000000000E+00  0.54391730423E+03  0.54391730423E+03  0.00000000000E+00 0.  1.
          2   -1    0    0  501    0  0.00000000000E+00 -0.00000000000E+00 -0.40307672957E+04  0.40307672957E+04  0.00000000000E+00 0. -1.
         24    2    1    2    0    0 -0.10824676518E+04  0.69704423965E+03 -0.11569613367E+04  0.17328266106E+04  0.80756662358E+02 0.  0.
        254    2    1    2    0    0  0.10824676518E+04 -0.69704423965E+03 -0.23298886547E+04  0.28418579893E+04  0.99507225812E+03 0.  0.
         23    2    4    4    0    0  0.61934757788E+03  0.18550130436E+02 -0.15922543954E+04  0.17110772008E+04  0.92604523295E+02 0.  0.
         23    2    4    4    0    0  0.46312007390E+03 -0.71559437009E+03 -0.73763425934E+03  0.11307807886E+04  0.89472822152E+02 0.  0.
          4    1    3    3  502    0 -0.12807583059E+03  0.77147204718E+02 -0.10171730197E+03  0.18083561347E+03  0.00000000000E+00 0. -1.
         -3    1    3    3    0  502 -0.95439182118E+03  0.61989703494E+03 -0.10552440347E+04  0.15519909971E+04  0.00000000000E+00 0.  1.
         11    1    5    5    0    0  0.44861101144E+03  0.22702971685E+02 -0.12566186446E+04  0.13344877978E+04  0.00000000000E+00 0.  1.
        -11    1    5    5    0    0  0.17073656644E+03 -0.41528412484E+01 -0.33563575075E+03  0.37658940292E+03  0.00000000000E+00 0. -1.
          3    1    6    6  503    0  0.19261533733E+03 -0.37755380796E+03 -0.37905238854E+03  0.56861960865E+03  0.00000000000E+00 0. -1.
         -3    1    6    6    0  503  0.27050473656E+03 -0.33804056213E+03 -0.35858187080E+03  0.56216117992E+03  0.00000000000E+00 0.  1.
<mgrwt>
<rscale>  0 0.29613538E+04</rscale>
<asrwt>0</asrwt>
<pdfrwt beam="1">  1        2 0.62011803E+00 0.29613538E+04</pdfrwt>
<pdfrwt beam="2">  1       -1 0.83679588E-01 0.29613538E+04</pdfrwt>
<totfact> 0.44610421E-01</totfact>
</mgrwt>
</event>
<event>
12    6  0.9533401E-008  0.1176053E+04  0.7818608E-02  0.9134080E-01
         -1   -1    0    0    0  501 -0.00000000000E+00  0.00000000000E+00  0.18880426260E+03  0.18880426260E+03  0.00000000000E+00 0.  1.
          2   -1    0    0  501    0  0.00000000000E+00 -0.00000000000E+00 -0.18313935613E+04  0.18313935613E+04  0.00000000000E+00 0. -1.
         24    2    1    2    0    0 -0.94789269659E+02  0.19424052471E+03 -0.51434529941E+03  0.56363185440E+03  0.80096149621E+02 0.  0.
        254    2    1    2    0    0  0.94789269659E+02 -0.19424052471E+03 -0.11282439993E+04  0.14565659695E+04  0.89550852286E+03 0.  0.
         23    2    4    4    0    0  0.23970871419E+03 -0.45124358554E+03 -0.36993062093E+03  0.63777400533E+03  0.93946667946E+02 0.  0.
         23    2    4    4    0    0 -0.14491944453E+03  0.25700306083E+03 -0.75831337840E+03  0.81879196421E+03  0.91262709392E+02 0.  0.
          2    1    3    3  502    0 -0.10882996491E+03  0.16137686180E+03 -0.42787058767E+03  0.47006349845E+03  0.00000000000E+00 0. -1.
         -1    1    3    3    0  502  0.14040695254E+02  0.32863662911E+02 -0.86474711743E+02  0.93568355945E+02  0.00000000000E+00 0.  1.
         11    1    5    5    0    0  0.83887560936E+01 -0.35092851309E+02 -0.21442217959E+01  0.36145222767E+02  0.00000000000E+00 0. -1.
        -11    1    5    5    0    0  0.23131995810E+03 -0.41615073423E+03 -0.36778639914E+03  0.60162878256E+03  0.00000000000E+00 0.  1.
          3    1    6    6  503    0 -0.46865556630E+02  0.25941244014E+02 -0.87966871643E+02  0.10299271356E+03  0.00000000000E+00 0. -1.
         -3    1    6    6    0  503 -0.98053887902E+02  0.23106181681E+03 -0.67034650675E+03  0.71579925066E+03  0.00000000000E+00 0.  1.
<mgrwt>
<rscale>  0 0.11760526E+04</rscale>
<asrwt>0</asrwt>
<pdfrwt beam="1">  1        2 0.28175286E+00 0.11760526E+04</pdfrwt>
<pdfrwt beam="2">  1       -1 0.29046809E-01 0.11760526E+04</pdfrwt>
<totfact> 0.10082356E+02</totfact>
</mgrwt>
</event>
<event>
12    6  0.9533401E-008  0.1248807E+04  0.7818608E-02  0.9071177E-01
         -1   -1    0    0    0  501 -0.00000000000E+00  0.00000000000E+00  0.98532340180E+03  0.98532340180E+03  0.00000000000E+00 0.  1.
          2   -1    0    0  501    0  0.00000000000E+00 -0.00000000000E+00 -0.39568697124E+03  0.39568697124E+03  0.00000000000E+00 0. -1.
         24    2    1    2    0    0  0.22085308494E+03  0.16620549483E+03  0.23359917323E+03  0.36907097909E+03  0.72418659469E+02 0.  0.
        254    2    1    2    0    0 -0.22085308494E+03 -0.16620549483E+03  0.35603725734E+03  0.10119393939E+04  0.90601239327E+03 0.  0.
         23    2    4    4    0    0  0.69148702813E+02 -0.42173262733E+03 -0.54488454288E+02  0.44055035746E+03  0.92063422419E+02 0.  0.
         23    2    4    4    0    0 -0.29000178775E+03  0.25552713250E+03  0.41052571163E+03  0.57138903649E+03  0.92514424659E+02 0.  0.
          4    1    3    3  502    0  0.16387380827E+03  0.14380136849E+03  0.14674883228E+03  0.26280920530E+03  0.00000000000E+00 0. -1.
         -1    1    3    3    0  502  0.56979276664E+02  0.22404126341E+02  0.86850340948E+02  0.10626177379E+03  0.00000000000E+00 0.  1.
         11    1    5    5    0    0  0.10321569102E-01  0.41298361568E+01  0.32639116725E+01  0.52639122924E+01  0.00000000000E+00 0. -1.
        -11    1    5    5    0    0  0.69138381244E+02 -0.42586246349E+03 -0.57752365961E+02  0.43528644516E+03  0.00000000000E+00 0.  1.
          4    1    6    6  503    0 -0.14429314763E+03  0.18652078627E+03  0.25621887087E+03  0.34822209286E+03  0.00000000000E+00 0. -1.
         -4    1    6    6    0  503 -0.14570864012E+03  0.69006346231E+02  0.15430684076E+03  0.22316694363E+03  0.00000000000E+00 0.  1.
<mgrwt>
<rscale>  0 0.12488068E+04</rscale>
<asrwt>0</asrwt>
<pdfrwt beam="1">  1        2 0.60874919E-01 0.12488068E+04</pdfrwt>
<pdfrwt beam="2">  1       -1 0.15158822E+00 0.12488068E+04</pdfrwt>
<totfact> 0.30730786E+01</totfact>
</mgrwt>
</event>
<event>
12    6  0.9533401E-008  0.2318142E+04  0.7818608E-02  0.8470802E-01
          2   -1    0    0  501    0  0.00000000000E+00  0.00000000000E+00  0.11462233367E+04  0.11462233367E+04  0.00000000000E+00 0. -1.
         -1   -1    0    0    0  501 -0.00000000000E+00 -0.00000000000E+00 -0.11720629895E+04  0.11720629895E+04  0.00000000000E+00 0.  1.
         24    2    1    2    0    0 -0.69363536405E+03  0.25250167587E+03 -0.65471998802E+03  0.98986418958E+03  0.79282636972E+02 0.  0.
        254    2    1    2    0    0  0.69363536405E+03 -0.25250167587E+03  0.62888033520E+03  0.13284221366E+04  0.90792498724E+03 0.  0.
         23    2    4    4    0    0 -0.10239012926E+03 -0.23695606036E+03 -0.48964179376E+02  0.27856918888E+03  0.92581796368E+02 0.  0.
         23    2    4    4    0    0  0.79602549331E+03 -0.15545615508E+02  0.67784451457E+03  0.10498529477E+04  0.93913650512E+02 0.  0.
          4    1    3    3  502    0 -0.14283183971E+03  0.69639689211E+02 -0.17974801486E+03  0.23991658883E+03  0.00000000000E+00 0. -1.
         -3    1    3    3    0  502 -0.55080352433E+03  0.18286198666E+03 -0.47497197316E+03  0.74994760075E+03  0.00000000000E+00 0.  1.
         11    1    5    5    0    0 -0.45569568568E+02 -0.16440721444E+03 -0.69396226036E+02  0.18417967838E+03  0.00000000000E+00 0. -1.
        -11    1    5    5    0    0 -0.56820560691E+02 -0.72548845919E+02  0.20432046660E+02  0.94389510499E+02  0.00000000000E+00 0.  1.
          3    1    6    6  503    0  0.40688621898E+03  0.23996696920E+02  0.39091230634E+03  0.56475186401E+03  0.00000000000E+00 0. -1.
         -3    1    6    6    0  503  0.38913927433E+03 -0.39542312427E+02  0.28693220823E+03  0.48510108371E+03  0.00000000000E+00 0.  1.
<mgrwt>
<rscale>  0 0.23181423E+04</rscale>
<asrwt>0</asrwt>
<pdfrwt beam="1">  1        2 0.17634205E+00 0.23181423E+04</pdfrwt>
<pdfrwt beam="2">  1       -1 0.18031738E+00 0.23181423E+04</pdfrwt>
<totfact> 0.43606081E+00</totfact>
</mgrwt>
</event>
<event>
12    6  0.9643216E-008  0.1801412E+04  0.7818608E-02  0.8705549E-01
         -1   -1    0    0    0  501 -0.00000000000E+00  0.00000000000E+00  0.52587701052E+03  0.52587701052E+03  0.00000000000E+00 0.  1.
          2   -1    0    0  501    0  0.00000000000E+00 -0.00000000000E+00 -0.15427010781E+04  0.15427010781E+04  0.00000000000E+00 0. -1.
         24    2    1    2    0    0  0.87274627844E+01  0.10430874902E+03 -0.11460187002E+04  0.11535081426E+04  0.79156111334E+02 0.  0.
        254    2    1    2    0    0 -0.87274627844E+01 -0.10430874902E+03  0.12919463266E+03  0.91506994604E+03  0.89983624583E+03 0.  0.
         23    2    4    4    0    0 -0.29528091013E+03  0.16605880349E+03  0.31279496611E+03  0.47104255390E+03  0.96301893318E+02 0.  0.
         23    2    4    4    0    0  0.28655344734E+03 -0.27036755251E+03 -0.18360033345E+03  0.44402739214E+03  0.90773073616E+02 0.  0.
          4    1    3    3  502    0  0.30179726281E+02  0.10498500994E+03 -0.91607558225E+03  0.92256552103E+03  0.00000000000E+00 0. -1.
         -3    1    3    3    0  502 -0.21452263496E+02 -0.67626091796E+00 -0.22994311799E+03  0.23094262155E+03  0.00000000000E+00 0.  1.
         11    1    5    5    0    0 -0.28959569272E+03  0.16360600284E+03  0.31999172948E+03  0.46154880169E+03  0.00000000000E+00 0. -1.
        -11    1    5    5    0    0 -0.56852174056E+01  0.24528006511E+01 -0.71967633684E+01  0.94937522068E+01  0.00000000000E+00 0.  1.
          4    1    6    6  503    0  0.27198775162E+03 -0.22968695910E+03 -0.18416963396E+03  0.40081403454E+03  0.00000000000E+00 0. -1.
         -4    1    6    6    0  503  0.14565695729E+02 -0.40680593407E+02  0.56930051310E+00  0.43213357600E+02  0.00000000000E+00 0.  1.
<mgrwt>
<rscale>  0 0.18014117E+04</rscale>
<asrwt>0</asrwt>
<pdfrwt beam="1">  1        2 0.23733862E+00 0.18014117E+04</pdfrwt>
<pdfrwt beam="2">  1       -1 0.80904157E-01 0.18014117E+04</pdfrwt>
<totfact> 0.19669567E+01</totfact>
</mgrwt>
</event>
<event>
12    6  0.9533401E-008  0.1473811E+04  0.7818608E-02  0.8902057E-01
          2   -1    0    0  501    0  0.00000000000E+00  0.00000000000E+00  0.11308541567E+04  0.11308541567E+04  0.00000000000E+00 0. -1.
         -1   -1    0    0    0  501 -0.00000000000E+00 -0.00000000000E+00 -0.48019429530E+03  0.48019429530E+03  0.00000000000E+00 0.  1.
         24    2    1    2    0    0 -0.40217758763E+02  0.12640381166E+03 -0.27099007485E+03  0.31240069445E+03  0.81013464943E+02 0.  0.
        254    2    1    2    0    0  0.40217758763E+02 -0.12640381166E+03  0.92164993628E+03  0.12986477576E+04  0.90523588168E+03 0.  0.
         23    2    4    4    0    0 -0.63151489081E+02 -0.37755013473E+03  0.69937523828E+02  0.40007515864E+03  0.92933634975E+02 0.  0.
         23    2    4    4    0    0  0.10336924784E+03  0.25114632307E+03  0.85171241246E+03  0.89857259894E+03  0.90879068229E+02 0.  0.
          4    1    3    3  502    0  0.10091279429E+02  0.86659668659E+02 -0.19025182035E+03  0.20930238231E+03  0.00000000000E+00 0. -1.
         -3    1    3    3    0  502 -0.50309038192E+02  0.39744143004E+02 -0.80738254498E+02  0.10309831214E+03  0.00000000000E+00 0.  1.
         11    1    5    5    0    0 -0.73619169808E+02 -0.35928508681E+03  0.82009870515E+02  0.37580736372E+03  0.00000000000E+00 0. -1.
        -11    1    5    5    0    0  0.10467680727E+02 -0.18265047922E+02 -0.12072346687E+02  0.24267794913E+02  0.00000000000E+00 0.  1.
          1    1    6    6  503    0  0.12000804214E+03  0.20822110124E+03  0.71892351421E+03  0.75802966727E+03  0.00000000000E+00 0. -1.
         -1    1    6    6    0  503 -0.16638794292E+02  0.42925221825E+02  0.13278889825E+03  0.14054293167E+03  0.00000000000E+00 0.  1.
<mgrwt>
<rscale>  0 0.14738110E+04</rscale>
<asrwt>0</asrwt>
<pdfrwt beam="1">  1        2 0.17397756E+00 0.14738110E+04</pdfrwt>
<pdfrwt beam="2">  1       -1 0.73876046E-01 0.14738110E+04</pdfrwt>
<totfact> 0.42493011E+01</totfact>
</mgrwt>
</event>
<event>
12    6  0.9533401E-008  0.1121696E+04  0.7818608E-02  0.9184299E-01
          2   -1    0    0  501    0  0.00000000000E+00  0.00000000000E+00  0.11093203087E+04  0.11093203087E+04  0.00000000000E+00 0. -1.
         -1   -1    0    0    0  501 -0.00000000000E+00 -0.00000000000E+00 -0.28355260851E+03  0.28355260851E+03  0.00000000000E+00 0.  1.
         24    2    1    2    0    0 -0.12639863110E+03  0.83869475590E+02  0.23896665709E+02  0.17263833826E+03  0.78881191207E+02 0.  0.
        254    2    1    2    0    0  0.12639863110E+03 -0.83869475590E+02  0.80187103449E+03  0.12202345789E+04  0.90717394629E+03 0.  0.
         23    2    4    4    0    0  0.71629152630E+01 -0.11143784461E+02 -0.19272598338E+03  0.21173853114E+03  0.86685694398E+02 0.  0.
         23    2    4    4    0    0  0.11923571584E+03 -0.72725691129E+02  0.99459701787E+03  0.10084960478E+04  0.91295500449E+02 0.  0.
          4    1    3    3  502    0 -0.41557475989E+00 -0.12363461974E+02  0.42414946169E+00  0.12377713728E+02  0.00000000000E+00 0. -1.
         -3    1    3    3    0  502 -0.12598305634E+03  0.96232937564E+02  0.23472516247E+02  0.16026062454E+03  0.00000000000E+00 0.  1.
         11    1    5    5    0    0 -0.15432974639E+02 -0.62187600117E+01 -0.18723022232E+03  0.18796809791E+03  0.00000000000E+00 0.  1.
        -11    1    5    5    0    0  0.22595889902E+02 -0.49250244493E+01 -0.54957610572E+01  0.23770433228E+02  0.00000000000E+00 0. -1.
          2    1    6    6  503    0  0.24507088493E+01  0.64282410770E+01  0.41139902396E+01  0.80158076886E+01  0.00000000000E+00 0. -1.
         -2    1    6    6    0  503  0.11678500699E+03 -0.79153932206E+02  0.99048302763E+03  0.10004802401E+04  0.00000000000E+00 0.  1.
<mgrwt>
<rscale>  0 0.11216963E+04</rscale>
<asrwt>0</asrwt>
<pdfrwt beam="1">  1        2 0.17066466E+00 0.11216963E+04</pdfrwt>
<pdfrwt beam="2">  1       -1 0.43623479E-01 0.11216963E+04</pdfrwt>
<totfact> 0.12606278E+02</totfact>
</mgrwt>
</event>
<event>
12    6  0.9533401E-008  0.1875944E+04  0.7818608E-02  0.8666924E-01
          2   -1    0    0  501    0  0.00000000000E+00  0.00000000000E+00  0.14743583308E+04  0.14743583308E+04  0.00000000000E+00 0. -1.
         -1   -1    0    0    0  501 -0.00000000000E+00 -0.00000000000E+00 -0.59672847410E+03  0.59672847410E+03  0.00000000000E+00 0.  1.
         24    2    1    2    0    0 -0.51734839994E+03  0.50421770030E+03  0.30706191607E+03  0.78910739899E+03  0.80737913157E+02 0.  0.
        254    2    1    2    0    0  0.51734839994E+03 -0.50421770030E+03  0.57056794061E+03  0.12819794059E+04  0.89220993385E+03 0.  0.
         23    2    4    4    0    0 -0.14387801414E+03  0.12771719708E+03  0.28295747140E+02  0.21496768666E+03  0.91640011016E+02 0.  0.
         23    2    4    4    0    0  0.66122641409E+03 -0.63193489739E+03  0.54227219347E+03  0.10670117192E+04  0.88841386435E+02 0.  0.
          2    1    3    3  502    0 -0.15983920294E+03  0.18572122912E+03  0.70023969680E+02  0.25484171965E+03  0.00000000000E+00 0. -1.
         -1    1    3    3    0  502 -0.35750919700E+03  0.31849647118E+03  0.23703794639E+03  0.53426567935E+03  0.00000000000E+00 0.  1.
         11    1    5    5    0    0 -0.13487647885E+03  0.85149806157E+02  0.48890916682E+02  0.16683067994E+03  0.00000000000E+00 0.  1.
        -11    1    5    5    0    0 -0.90015352949E+01  0.42567390926E+02 -0.20595169542E+02  0.48137006724E+02  0.00000000000E+00 0. -1.
          2    1    6    6  503    0  0.33513868321E+02 -0.31790479307E+02  0.66360727802E+01  0.46667455537E+02  0.00000000000E+00 0. -1.
         -2    1    6    6    0  503  0.62771254577E+03 -0.60014441808E+03  0.53563612069E+03  0.10203442637E+04  0.00000000000E+00 0.  1.
<mgrwt>
<rscale>  0 0.18759441E+04</rscale>
<asrwt>0</asrwt>
<pdfrwt beam="1">  1        2 0.22682436E+00 0.18759441E+04</pdfrwt>
<pdfrwt beam="2">  1       -1 0.91804381E-01 0.18759441E+04</pdfrwt>
<totfact> 0.16222966E+01</totfact>
</mgrwt>
</event>
<event>
12    6  0.9533401E-008  0.2666495E+04  0.7818608E-02  0.8345959E-01
         -1   -1    0    0    0  501 -0.00000000000E+00  0.00000000000E+00  0.74735388051E+03  0.74735388051E+03  0.00000000000E+00 0.  1.
          2   -1    0    0  501    0  0.00000000000E+00 -0.00000000000E+00 -0.23784567122E+04  0.23784567122E+04  0.00000000000E+00 0. -1.
         24    2    1    2    0    0  0.10654851458E+04  0.38026196402E+03 -0.11073944151E+04  0.15853048832E+04  0.83734252020E+02 0.  0.
        254    2    1    2    0    0 -0.10654851458E+04 -0.38026196402E+03 -0.52370841664E+03  0.15405057096E+04  0.90500252947E+03 0.  0.
         23    2    4    4    0    0 -0.28308876281E+03 -0.48093518542E+03 -0.48495844654E+03  0.74508990944E+03  0.92392521737E+02 0.  0.
         23    2    4    4    0    0 -0.78239638298E+03  0.10067322140E+03 -0.38749970103E+02  0.79541580012E+03  0.94369154354E+02 0.  0.
          2    1    3    3  502    0  0.32590357803E+03  0.10425066365E+03 -0.28457674846E+03  0.44504524355E+03  0.00000000000E+00 0. -1.
         -1    1    3    3    0  502  0.73958156776E+03  0.27601130037E+03 -0.82281766663E+03  0.11402596397E+04  0.00000000000E+00 0.  1.
         11    1    5    5    0    0 -0.18679506165E+02 -0.77684901944E+02 -0.41785124881E+02  0.90165761805E+02  0.00000000000E+00 0.  1.
        -11    1    5    5    0    0 -0.26440925665E+03 -0.40325028347E+03 -0.44317332166E+03  0.65492414763E+03  0.00000000000E+00 0. -1.
          3    1    6    6  503    0 -0.56205395355E+03  0.61374624634E+02  0.13588587936E+02  0.56555825604E+03  0.00000000000E+00 0. -1.
         -3    1    6    6    0  503 -0.22034242943E+03  0.39298596768E+02 -0.52338558039E+02  0.22985754408E+03  0.00000000000E+00 0.  1.
<mgrwt>
<rscale>  0 0.26664950E+04</rscale>
<asrwt>0</asrwt>
<pdfrwt beam="1">  1        2 0.36591641E+00 0.26664950E+04</pdfrwt>
<pdfrwt beam="2">  1       -1 0.11497752E+00 0.26664950E+04</pdfrwt>
<totfact> 0.28092709E+00</totfact>
</mgrwt>
</event>
<event>
12    6  0.9533401E-008  0.1417441E+04  0.7818608E-02  0.8941289E-01
          2   -1    0    0  501    0  0.00000000000E+00  0.00000000000E+00  0.72729650542E+03  0.72729650542E+03  0.00000000000E+00 0. -1.
         -1   -1    0    0    0  501 -0.00000000000E+00 -0.00000000000E+00 -0.69061939046E+03  0.69061939046E+03  0.00000000000E+00 0.  1.
         24    2    1    2    0    0 -0.21321398929E+03 -0.69471214191E+02 -0.34256908995E+03  0.41727467445E+03  0.80486754935E+02 0.  0.
        254    2    1    2    0    0  0.21321398929E+03  0.69471214191E+02  0.37924620490E+03  0.10006412214E+04  0.89842568712E+03 0.  0.
         23    2    4    4    0    0 -0.62632364570E+02  0.28692387343E+03 -0.16272606291E+03  0.34812293768E+03  0.91987422787E+02 0.  0.
         23    2    4    4    0    0  0.27584635386E+03 -0.21745265924E+03  0.54197226781E+03  0.65251828375E+03  0.93109084464E+02 0.  0.
          4    1    3    3  502    0 -0.61204708679E+02 -0.33475166032E+02 -0.17394469737E+03  0.18741227507E+03  0.00000000000E+00 0. -1.
         -3    1    3    3    0  502 -0.15200928061E+03 -0.35996048159E+02 -0.16862439258E+03  0.22986239937E+03  0.00000000000E+00 0.  1.
         11    1    5    5    0    0 -0.44973846354E+02  0.23993625018E+03 -0.90888501310E+02  0.26048564390E+03  0.00000000000E+00 0.  1.
        -11    1    5    5    0    0 -0.17658518216E+02  0.46987623250E+02 -0.71837561601E+02  0.87637293780E+02  0.00000000000E+00 0. -1.
          1    1    6    6  503    0  0.52331977018E+01 -0.53400393299E+01  0.60036454156E+02  0.60500233106E+02  0.00000000000E+00 0. -1.
         -1    1    6    6    0  503  0.27061315616E+03 -0.21211261991E+03  0.48193581365E+03  0.59201805065E+03  0.00000000000E+00 0.  1.
<mgrwt>
<rscale>  0 0.14174415E+04</rscale>
<asrwt>0</asrwt>
<pdfrwt beam="1">  1        2 0.11189177E+00 0.14174415E+04</pdfrwt>
<pdfrwt beam="2">  1       -1 0.10624914E+00 0.14174415E+04</pdfrwt>
<totfact> 0.35889707E+01</totfact>
</mgrwt>
</event>
<event>
12    6  0.9533401E-008  0.1936869E+04  0.7818608E-02  0.8636719E-01
         -1   -1    0    0    0  501 -0.00000000000E+00  0.00000000000E+00  0.58417445347E+03  0.58417445347E+03  0.00000000000E+00 0.  1.
          2   -1    0    0  501    0  0.00000000000E+00 -0.00000000000E+00 -0.16054543062E+04  0.16054543062E+04  0.00000000000E+00 0. -1.
         24    2    1    2    0    0  0.40230216694E+03  0.13187341479E+03 -0.11026596944E+04  0.11844382312E+04  0.88305666963E+02 0.  0.
        254    2    1    2    0    0 -0.40230216694E+03 -0.13187341479E+03  0.81379841662E+02  0.10051905285E+04  0.90804608301E+03 0.  0.
         23    2    4    4    0    0  0.11250602993E+03  0.14756209352E+03  0.30737965051E+03  0.37060772366E+03  0.91845833205E+02 0.  0.
         23    2    4    4    0    0 -0.51480819687E+03 -0.27943550830E+03 -0.22599980885E+03  0.63458280481E+03  0.92237409446E+02 0.  0.
          4    1    3    3  502    0  0.39374070164E+03  0.11614565305E+03 -0.10810724412E+04  0.11563905811E+04  0.00000000000E+00 0. -1.
         -3    1    3    3    0  502  0.85614652974E+01  0.15727761731E+02 -0.21587253180E+02  0.28047650115E+02  0.00000000000E+00 0.  1.
         11    1    5    5    0    0  0.12314046074E+03  0.10570518067E+03  0.26006705701E+03  0.30654858087E+03  0.00000000000E+00 0. -1.
        -11    1    5    5    0    0 -0.10634430806E+02  0.41856912852E+02  0.47312593500E+02  0.64059142796E+02  0.00000000000E+00 0.  1.
          4    1    6    6  503    0 -0.15769821902E+03 -0.13195347861E+03 -0.61183587704E+02  0.21453176968E+03  0.00000000000E+00 0.  1.
         -4    1    6    6    0  503 -0.35710997785E+03 -0.14748202970E+03 -0.16481622114E+03  0.42005103513E+03  0.00000000000E+00 0. -1.
<mgrwt>
<rscale>  0 0.19368690E+04</rscale>
<asrwt>0</asrwt>
<pdfrwt beam="1">  1        2 0.24699297E+00 0.19368690E+04</pdfrwt>
<pdfrwt beam="2">  1       -1 0.89872992E-01 0.19368690E+04</pdfrwt>
<totfact> 0.14273647E+01</totfact>
</mgrwt>
</event>
<event>
12    6  0.9533401E-008  0.3125006E+04  0.7818608E-02  0.8208909E-01
          2   -1    0    0  501    0  0.00000000000E+00  0.00000000000E+00  0.20148462996E+04  0.20148462996E+04  0.00000000000E+00 0. -1.
         -1   -1    0    0    0  501 -0.00000000000E+00 -0.00000000000E+00 -0.12117127191E+04  0.12117127191E+04  0.00000000000E+00 0.  1.
         24    2    1    2    0    0 -0.38563682809E+03 -0.10778964098E+04  0.12557989516E+04  0.17014853528E+04  0.86284214522E+02 0.  0.
        254    2    1    2    0    0  0.38563682809E+03  0.10778964098E+04 -0.45266537107E+03  0.15250736659E+04  0.90020404060E+03 0.  0.
         23    2    4    4    0    0  0.28124581559E+03  0.12211284738E+04 -0.38193684204E+03  0.13129268863E+04  0.87448836866E+02 0.  0.
         23    2    4    4    0    0  0.10439101250E+03 -0.14323206398E+03 -0.70728529029E+02  0.21214677960E+03  0.92686696100E+02 0.  0.
          2    1    3    3  502    0 -0.11100156338E+03 -0.25216285279E+03  0.25695744366E+03  0.37674205931E+03  0.00000000000E+00 0. -1.
         -3    1    3    3    0  502 -0.27463526471E+03 -0.82573355704E+03  0.99884150790E+03  0.13247432935E+04  0.00000000000E+00 0.  1.
         11    1    5    5    0    0  0.80273797614E+02  0.44594729908E+03 -0.10070382064E+03  0.46417037350E+03  0.00000000000E+00 0. -1.
        -11    1    5    5    0    0  0.20097201797E+03  0.77518117473E+03 -0.28123302140E+03  0.84875651278E+03  0.00000000000E+00 0.  1.
          2    1    6    6  503    0  0.80302263574E+02 -0.33985874502E+02 -0.41220472819E+02  0.96450093729E+02  0.00000000000E+00 0. -1.
         -2    1    6    6    0  503  0.24088748924E+02 -0.10924618948E+03 -0.29508056210E+02  0.11569668588E+03  0.00000000000E+00 0.  1.
<mgrwt>
<rscale>  0 0.31250055E+04</rscale>
<asrwt>0</asrwt>
<pdfrwt beam="1">  1        2 0.30997635E+00 0.31250055E+04</pdfrwt>
<pdfrwt beam="2">  1       -1 0.18641734E+00 0.31250055E+04</pdfrwt>
<totfact> 0.11831884E+00</totfact>
</mgrwt>
</event>
<event>
12    6  0.9533401E-008  0.1486463E+04  0.7818608E-02  0.8893505E-01
         -1   -1    0    0    0  501 -0.00000000000E+00  0.00000000000E+00  0.15073205438E+03  0.15073205438E+03  0.00000000000E+00 0.  1.
          2   -1    0    0  501    0  0.00000000000E+00 -0.00000000000E+00 -0.36647362061E+04  0.36647362061E+04  0.00000000000E+00 0. -1.
         24    2    1    2    0    0 -0.13046996142E+03 -0.27884938893E+03 -0.20033227727E+04  0.20283164186E+04  0.77369048028E+02 0.  0.
        254    2    1    2    0    0  0.13046996142E+03  0.27884938893E+03 -0.15106813790E+04  0.17871518419E+04  0.90386618736E+03 0.  0.
         23    2    4    4    0    0  0.27832015267E+03 -0.21153261837E+02 -0.13892893913E+04  0.14199946640E+04  0.91379785318E+02 0.  0.
         23    2    4    4    0    0 -0.14785019125E+03  0.30000265077E+03 -0.12139198773E+03  0.36715717793E+03  0.90593096309E+02 0.  0.
          2    1    3    3  502    0 -0.81428797910E+02 -0.15399814742E+03 -0.13635798073E+04  0.13746621291E+04  0.00000000000E+00 0. -1.
         -1    1    3    3    0  502 -0.49041163511E+02 -0.12485124151E+03 -0.63974296548E+03  0.65365428944E+03  0.00000000000E+00 0.  1.
         11    1    5    5    0    0  0.20994538544E+03 -0.10444158106E+02 -0.12037922172E+04  0.12220073025E+04  0.00000000000E+00 0.  1.
        -11    1    5    5    0    0  0.68374767231E+02 -0.10709103730E+02 -0.18549717411E+03  0.19798736147E+03  0.00000000000E+00 0. -1.
          1    1    6    6  503    0 -0.10691956462E+02  0.11517950200E+03 -0.51513773123E+02  0.12662663399E+03  0.00000000000E+00 0. -1.
         -1    1    6    6    0  503 -0.13715823479E+03  0.18482314877E+03 -0.69878214607E+02  0.24053054394E+03  0.00000000000E+00 0.  1.
<mgrwt>
<rscale>  0 0.14864632E+04</rscale>
<asrwt>0</asrwt>
<pdfrwt beam="1">  1        2 0.56380559E+00 0.14864632E+04</pdfrwt>
<pdfrwt beam="2">  1       -1 0.23189546E-01 0.14864632E+04</pdfrwt>
<totfact> 0.11062346E+01</totfact>
</mgrwt>
</event>
<event>
12    6  0.9533401E-008  0.2142071E+04  0.7818608E-02  0.8542934E-01
          2   -1    0    0  501    0  0.00000000000E+00  0.00000000000E+00  0.10649049151E+04  0.10649049151E+04  0.00000000000E+00 0. -1.
         -1   -1    0    0    0  501 -0.00000000000E+00 -0.00000000000E+00 -0.10772014112E+04  0.10772014112E+04  0.00000000000E+00 0.  1.
         24    2    1    2    0    0 -0.17181200497E+03 -0.43797097897E+03  0.73929537021E+03  0.88006081742E+03  0.81310850834E+02 0.  0.
        254    2    1    2    0    0  0.17181200497E+03  0.43797097897E+03 -0.75159186635E+03  0.12620455089E+04  0.89807048142E+03 0.  0.
         23    2    4    4    0    0  0.33394190787E+03  0.41653514870E+03 -0.59465901427E+02  0.54509706478E+03  0.92606094101E+02 0.  0.
         23    2    4    4    0    0 -0.16212990290E+03  0.21435830276E+02 -0.69212596492E+03  0.71694844416E+03  0.90725520292E+02 0.  0.
          4    1    3    3  502    0 -0.16371063488E+03 -0.43349989266E+03  0.73692859584E+03  0.87050966926E+03  0.00000000000E+00 0. -1.
         -3    1    3    3    0  502 -0.81013700898E+01 -0.44710863156E+01  0.23667743674E+01  0.95511481551E+01  0.00000000000E+00 0.  1.
         11    1    5    5    0    0  0.17149175873E+03  0.23438971485E+03 -0.76826600018E+02  0.30041685741E+03  0.00000000000E+00 0.  1.
        -11    1    5    5    0    0  0.16245014913E+03  0.18214543384E+03  0.17360698591E+02  0.24468020737E+03  0.00000000000E+00 0. -1.
          4    1    6    6  503    0 -0.16644998722E+03  0.30332032039E+01 -0.64583976436E+03  0.66695112249E+03  0.00000000000E+00 0. -1.
         -4    1    6    6    0  503  0.43200843130E+01  0.18402627072E+02 -0.46286200558E+02  0.49997321666E+02  0.00000000000E+00 0.  1.
<mgrwt>
<rscale>  0 0.21420710E+04</rscale>
<asrwt>0</asrwt>
<pdfrwt beam="1">  1        2 0.16383153E+00 0.21420710E+04</pdfrwt>
<pdfrwt beam="2">  1       -1 0.16572329E+00 0.21420710E+04</pdfrwt>
<totfact> 0.63506383E+00</totfact>
</mgrwt>
</event>
<event>
12    6  0.9533401E-008  0.1478675E+04  0.7818608E-02  0.8898759E-01
         -1   -1    0    0    0  501 -0.00000000000E+00  0.00000000000E+00  0.53252467583E+03  0.53252467583E+03  0.00000000000E+00 0.  1.
          2   -1    0    0  501    0  0.00000000000E+00 -0.00000000000E+00 -0.10264682316E+04  0.10264682316E+04  0.00000000000E+00 0. -1.
         24    2    1    2    0    0 -0.34701166506E+03 -0.27383899723E+03 -0.29486886300E+03  0.53745136028E+03  0.80631421990E+02 0.  0.
        254    2    1    2    0    0  0.34701166506E+03  0.27383899723E+03 -0.19907469273E+03  0.10215415471E+04  0.89917267925E+03 0.  0.
         23    2    4    4    0    0 -0.21464900476E+03 -0.10373498523E+03  0.10153319285E+03  0.27523735748E+03  0.92798013424E+02 0.  0.
         23    2    4    4    0    0  0.56166066982E+03  0.37757398246E+03 -0.30060788557E+03  0.74630418964E+03  0.92628410042E+02 0.  0.
          4    1    3    3  502    0 -0.17796873878E+03 -0.16223175206E+03 -0.11634811466E+03  0.26744886828E+03  0.00000000000E+00 0. -1.
         -3    1    3    3    0  502 -0.16904292628E+03 -0.11160724517E+03 -0.17852074835E+03  0.27000249200E+03  0.00000000000E+00 0.  1.
         11    1    5    5    0    0 -0.37530214295E+02 -0.20880934194E+02  0.62509132941E+02  0.75841427326E+02  0.00000000000E+00 0.  1.
        -11    1    5    5    0    0 -0.17711879046E+03 -0.82854051037E+02  0.39024059908E+02  0.19939593015E+03  0.00000000000E+00 0. -1.
          4    1    6    6  503    0  0.61283378175E+02  0.12656914724E+02 -0.15205063765E+02  0.64397545722E+02  0.00000000000E+00 0.  1.
         -4    1    6    6    0  503  0.50037729164E+03  0.36491706774E+03 -0.28540282181E+03  0.68190664391E+03  0.00000000000E+00 0. -1.
<mgrwt>
<rscale>  0 0.14786746E+04</rscale>
<asrwt>0</asrwt>
<pdfrwt beam="1">  1        2 0.15791819E+00 0.14786746E+04</pdfrwt>
<pdfrwt beam="2">  1       -1 0.81926873E-01 0.14786746E+04</pdfrwt>
<totfact> 0.39655743E+01</totfact>
</mgrwt>
</event>
<event>
12    6  0.9533401E-008  0.1155120E+04  0.7818608E-02  0.9153073E-01
         -1   -1    0    0    0  501 -0.00000000000E+00  0.00000000000E+00  0.59750222124E+03  0.59750222124E+03  0.00000000000E+00 0.  1.
          2   -1    0    0  501    0  0.00000000000E+00 -0.00000000000E+00 -0.55828360975E+03  0.55828360975E+03  0.00000000000E+00 0. -1.
         24    2    1    2    0    0 -0.10414041758E+03  0.10687245755E+03 -0.12810463097E+03  0.21297108535E+03  0.81724769583E+02 0.  0.
        254    2    1    2    0    0  0.10414041758E+03 -0.10687245755E+03  0.16732324246E+03  0.94281474564E+03  0.91577051076E+03 0.  0.
         23    2    4    4    0    0 -0.85531639774E+02 -0.44231445570E+03  0.27317020420E+03  0.53471686812E+03  0.91336900874E+02 0.  0.
         23    2    4    4    0    0  0.18967205735E+03  0.33544199816E+03 -0.10584696174E+03  0.40809787753E+03  0.82725297620E+02 0.  0.
          2    1    3    3  502    0 -0.11663049380E+03  0.10599806883E+03 -0.11934698229E+03  0.19769159026E+03  0.00000000000E+00 0. -1.
         -1    1    3    3    0  502  0.12490076220E+02  0.87438871233E+00 -0.87576486794E+01  0.15279495083E+02  0.00000000000E+00 0.  1.
         11    1    5    5    0    0  0.66107648767E+01 -0.42857443387E+01 -0.33677079075E+01  0.85680378934E+01  0.00000000000E+00 0. -1.
        -11    1    5    5    0    0 -0.92142404651E+02 -0.43802871136E+03  0.27653791211E+03  0.52614883022E+03  0.00000000000E+00 0.  1.
          3    1    6    6  503    0  0.51172267548E+02  0.14934581336E+03 -0.72550135654E+02  0.17374203613E+03  0.00000000000E+00 0. -1.
         -3    1    6    6    0  503  0.13849978980E+03  0.18609618480E+03 -0.33296826085E+02  0.23435584140E+03  0.00000000000E+00 0.  1.
<mgrwt>
<rscale>  0 0.11551202E+04</rscale>
<asrwt>0</asrwt>
<pdfrwt beam="1">  1        2 0.85889786E-01 0.11551202E+04</pdfrwt>
<pdfrwt beam="2">  1       -1 0.91923419E-01 0.11551202E+04</pdfrwt>
<totfact> 0.70554001E+01</totfact>
</mgrwt>
</event>
<event>
12    6  0.9533401E-008  0.1892349E+04  0.7818608E-02  0.8658674E-01
          2   -1    0    0  501    0  0.00000000000E+00  0.00000000000E+00  0.68759219729E+03  0.68759219729E+03  0.00000000000E+00 0. -1.
         -1   -1    0    0    0  501 -0.00000000000E+00 -0.00000000000E+00 -0.13020014228E+04  0.13020014228E+04  0.00000000000E+00 0.  1.
         24    2    1    2    0    0  0.17720178299E+03 -0.40698336905E+03  0.36930349763E+03  0.58259932537E+03  0.77465902008E+02 0.  0.
        254    2    1    2    0    0 -0.17720178299E+03  0.40698336905E+03 -0.98371272318E+03  0.14069942948E+04  0.90272160114E+03 0.  0.
         23    2    4    4    0    0 -0.99199976130E+02  0.26768370903E+03  0.93719332218E+02  0.31413159899E+03  0.91652304441E+02 0.  0.
         23    2    4    4    0    0 -0.78001806858E+02  0.13929966002E+03 -0.10774320554E+04  0.10928626958E+04  0.89444735172E+02 0.  0.
          2    1    3    3  502    0  0.15496147784E+03 -0.29180138499E+03  0.24238318472E+03  0.40976910099E+03  0.00000000000E+00 0. -1.
         -1    1    3    3    0  502  0.22240305148E+02 -0.11518198407E+03  0.12692031292E+03  0.17283022438E+03  0.00000000000E+00 0.  1.
         11    1    5    5    0    0 -0.94152624356E+02  0.25625551935E+03  0.10937731454E+03  0.29410033119E+03  0.00000000000E+00 0.  1.
        -11    1    5    5    0    0 -0.50473517739E+01  0.11428189682E+02 -0.15657982323E+02  0.20031267802E+02  0.00000000000E+00 0. -1.
          1    1    6    6  503    0 -0.61645104561E+02  0.24025347318E+02 -0.42620677928E+03  0.43131143613E+03  0.00000000000E+00 0. -1.
         -1    1    6    6    0  503 -0.16356702298E+02  0.11527431270E+03 -0.65122527612E+03  0.66155125964E+03  0.00000000000E+00 0.  1.
<mgrwt>
<rscale>  0 0.18923488E+04</rscale>
<asrwt>0</asrwt>
<pdfrwt beam="1">  1        2 0.10578342E+00 0.18923488E+04</pdfrwt>
<pdfrwt beam="2">  1       -1 0.20030791E+00 0.18923488E+04</pdfrwt>
<totfact> 0.67152820E+00</totfact>
</mgrwt>
</event>
<event>
12    6  0.1378710E-007  0.2020874E+04  0.7818608E-02  0.8596923E-01
         -1   -1    0    0    0  501 -0.00000000000E+00  0.00000000000E+00  0.46015702265E+03  0.46015702265E+03  0.00000000000E+00 0.  1.
          2   -1    0    0  501    0  0.00000000000E+00 -0.00000000000E+00 -0.22187707738E+04  0.22187707738E+04  0.00000000000E+00 0. -1.
         24    2    1    2    0    0  0.66855756572E+03 -0.16945169012E+03 -0.16288606714E+03  0.71333034728E+03  0.81395451463E+02 0.  0.
        254    2    1    2    0    0 -0.66855756572E+03  0.16945169012E+03 -0.15957276840E+04  0.19655974491E+04  0.91735674450E+03 0.  0.
         23    2    4    4    0    0 -0.54159606431E+02  0.45076876958E+03 -0.71224905246E+03  0.84959673827E+03  0.91597807562E+02 0.  0.
         23    2    4    4    0    0 -0.61439795929E+03 -0.28131707946E+03 -0.88347863151E+03  0.11160007109E+04  0.91098533117E+02 0.  0.
          2    1    3    3  502    0  0.12864079210E+03 -0.54105469369E+02 -0.73945809254E+01  0.13975169063E+03  0.00000000000E+00 0. -1.
         -1    1    3    3    0  502  0.53991677362E+03 -0.11534622075E+03 -0.15549148621E+03  0.57357865665E+03  0.00000000000E+00 0.  1.
         11    1    5    5    0    0 -0.45448606192E+01 -0.20302050908E+01 -0.11409379807E+01  0.51067827675E+01  0.00000000000E+00 0. -1.
        -11    1    5    5    0    0 -0.49614745812E+02  0.45279897467E+03 -0.71110811448E+03  0.84448995550E+03  0.00000000000E+00 0.  1.
          3    1    6    6  503    0 -0.98109751392E+02 -0.11329126667E+02 -0.14308467137E+03  0.17385941335E+03  0.00000000000E+00 0. -1.
         -3    1    6    6    0  503 -0.51628820790E+03 -0.26998795279E+03 -0.74039396013E+03  0.94214129751E+03  0.00000000000E+00 0.  1.
<mgrwt>
<rscale>  0 0.20208740E+04</rscale>
<asrwt>0</asrwt>
<pdfrwt beam="1">  1        2 0.34134934E+00 0.20208740E+04</pdfrwt>
<pdfrwt beam="2">  1       -1 0.70793389E-01 0.20208740E+04</pdfrwt>
<totfact> 0.10727108E+01</totfact>
</mgrwt>
</event>
<event>
12    6  0.9533401E-008  0.1972212E+04  0.7818608E-02  0.8619724E-01
          2   -1    0    0  501    0  0.00000000000E+00  0.00000000000E+00  0.14621063116E+04  0.14621063116E+04  0.00000000000E+00 0. -1.
         -1   -1    0    0    0  501 -0.00000000000E+00 -0.00000000000E+00 -0.66507161157E+03  0.66507161157E+03  0.00000000000E+00 0.  1.
         24    2    1    2    0    0  0.46211730711E+03  0.27712139286E+03 -0.28735503937E+03  0.61598423280E+03  0.80715453901E+02 0.  0.
        254    2    1    2    0    0 -0.46211730711E+03 -0.27712139286E+03  0.10843897394E+04  0.15111936903E+04  0.90413306040E+03 0.  0.
         23    2    4    4    0    0  0.21167614253E+03  0.34133979592E+02  0.50885601211E+02  0.23566635551E+03  0.83530646050E+02 0.  0.
         23    2    4    4    0    0 -0.67379344964E+03 -0.31125537245E+03  0.10335041381E+04  0.12755273348E+04  0.89228126720E+02 0.  0.
          4    1    3    3  502    0  0.94002864749E+01  0.23471832574E+02 -0.19947507417E+02  0.32205517576E+02  0.00000000000E+00 0. -1.
         -3    1    3    3    0  502  0.45271702063E+03  0.25364956028E+03 -0.26740753196E+03  0.58377871522E+03  0.00000000000E+00 0.  1.
         11    1    5    5    0    0  0.39546408780E+02  0.45625591635E+00  0.45367987830E+02  0.60186218826E+02  0.00000000000E+00 0.  1.
        -11    1    5    5    0    0  0.17212973376E+03  0.33677723676E+02  0.55176133805E+01  0.17548013669E+03  0.00000000000E+00 0. -1.
          4    1    6    6  503    0 -0.67124358173E+03 -0.31611693418E+03  0.10276436386E+04  0.12674972623E+04  0.00000000000E+00 0. -1.
         -4    1    6    6    0  503 -0.25498679091E+01  0.48615617245E+01  0.58604995467E+01  0.80300724587E+01  0.00000000000E+00 0.  1.
<mgrwt>
<rscale>  0 0.19722124E+04</rscale>
<asrwt>0</asrwt>
<pdfrwt beam="1">  1        2 0.22493943E+00 0.19722124E+04</pdfrwt>
<pdfrwt beam="2">  1       -1 0.10231871E+00 0.19722124E+04</pdfrwt>
<totfact> 0.12794105E+01</totfact>
</mgrwt>
</event>
<event>
12    6  0.9533401E-008  0.1728035E+04  0.7818608E-02  0.8745535E-01
         -3   -1    0    0    0  501 -0.00000000000E+00  0.00000000000E+00  0.33594707498E+03  0.33594707498E+03  0.00000000000E+00 0.  1.
          2   -1    0    0  501    0  0.00000000000E+00 -0.00000000000E+00 -0.22221540426E+04  0.22221540426E+04  0.00000000000E+00 0. -1.
         24    2    1    2    0    0 -0.56604388142E+03  0.22184017402E+03 -0.49790986631E+03  0.78893553508E+03  0.69902110486E+02 0.  0.
        254    2    1    2    0    0  0.56604388142E+03 -0.22184017402E+03 -0.13882971013E+04  0.17691655825E+04  0.91266602776E+03 0.  0.
         23    2    4    4    0    0  0.78886193084E+03 -0.10661207927E+03 -0.11987936270E+04  0.14420342801E+04  0.93206348441E+02 0.  0.
         23    2    4    4    0    0 -0.22281804942E+03 -0.11522809474E+03 -0.18950347424E+03  0.32713130235E+03  0.90431881894E+02 0.  0.
          2    1    3    3  502    0 -0.11314957761E+03  0.66270994235E+02 -0.13397866580E+03  0.18746987619E+03  0.00000000000E+00 0. -1.
         -3    1    3    3    0  502 -0.45289430381E+03  0.15556917978E+03 -0.36393120051E+03  0.60146565889E+03  0.00000000000E+00 0.  1.
         11    1    5    5    0    0  0.11758263142E+03 -0.47814549602E+02 -0.16886874519E+03  0.21125472650E+03  0.00000000000E+00 0.  1.
        -11    1    5    5    0    0  0.67127929942E+03 -0.58797529671E+02 -0.10299248818E+04  0.12307795536E+04  0.00000000000E+00 0. -1.
          4    1    6    6  503    0 -0.22981282134E+03 -0.11600947346E+03 -0.19017595290E+03  0.32006096895E+03  0.00000000000E+00 0. -1.
         -4    1    6    6    0  503  0.69947719194E+01  0.78137871165E+00  0.67247865590E+00  0.70703334036E+01  0.00000000000E+00 0.  1.
<mgrwt>
<rscale>  0 0.17280349E+04</rscale>
<asrwt>0</asrwt>
<pdfrwt beam="1">  1        2 0.34186987E+00 0.17280349E+04</pdfrwt>
<pdfrwt beam="2">  1       -3 0.51684163E-01 0.17280349E+04</pdfrwt>
<totfact> 0.11360468E+01</totfact>
</mgrwt>
</event>
<event>
12    6  0.9533401E-008  0.2142276E+04  0.7818608E-02  0.8542846E-01
         -1   -1    0    0    0  501 -0.00000000000E+00  0.00000000000E+00  0.17814629945E+04  0.17814629945E+04  0.00000000000E+00 0.  1.
          2   -1    0    0  501    0  0.00000000000E+00 -0.00000000000E+00 -0.64404194689E+03  0.64404194689E+03  0.00000000000E+00 0. -1.
         24    2    1    2    0    0  0.83419805367E+03  0.21439135648E+03  0.68068220406E+03  0.11004594409E+04  0.76371930000E+02 0.  0.
        254    2    1    2    0    0 -0.83419805367E+03 -0.21439135648E+03  0.45673884359E+03  0.13250455005E+04  0.89737682202E+03 0.  0.
         23    2    4    4    0    0 -0.37637631454E+03  0.58517726452E+02 -0.22723935964E+03  0.45311026185E+03  0.92669997144E+02 0.  0.
         23    2    4    4    0    0 -0.45782173914E+03 -0.27290908293E+03  0.68397820323E+03  0.87193523867E+03  0.91459092305E+02 0.  0.
          4    1    3    3  502    0  0.80738879251E+01  0.61904395525E+01  0.32774510602E+00  0.10179225164E+02  0.00000000000E+00 0. -1.
         -3    1    3    3    0  502  0.82612416575E+03  0.20820091693E+03  0.68035445895E+03  0.10902802157E+04  0.00000000000E+00 0.  1.
         11    1    5    5    0    0 -0.11839909652E+03 -0.14231530640E+02 -0.38588963597E+02  0.12533950148E+03  0.00000000000E+00 0. -1.
        -11    1    5    5    0    0 -0.25797721802E+03  0.72749257092E+02 -0.18865039604E+03  0.32777076037E+03  0.00000000000E+00 0.  1.
          2    1    6    6  503    0 -0.54274983687E+02 -0.54375985922E+02  0.14460630388E+03  0.16374829715E+03  0.00000000000E+00 0. -1.
         -2    1    6    6    0  503 -0.40354675545E+03 -0.21853309701E+03  0.53937189935E+03  0.70818694151E+03  0.00000000000E+00 0.  1.
<mgrwt>
<rscale>  0 0.21422763E+04</rscale>
<asrwt>0</asrwt>
<pdfrwt beam="1">  1        2 0.99083377E-01 0.21422763E+04</pdfrwt>
<pdfrwt beam="2">  1       -1 0.27407123E+00 0.21422763E+04</pdfrwt>
<totfact> 0.23184767E+00</totfact>
</mgrwt>
</event>
<event>
12    6  0.9533401E-008  0.1556364E+04  0.7818608E-02  0.8847813E-01
          2   -1    0    0  501    0  0.00000000000E+00  0.00000000000E+00  0.86688398148E+03  0.86688398148E+03  0.00000000000E+00 0. -1.
         -1   -1    0    0    0  501 -0.00000000000E+00 -0.00000000000E+00 -0.69855616397E+03  0.69855616397E+03  0.00000000000E+00 0.  1.
         24    2    1    2    0    0 -0.21615167285E+03  0.33442113683E+03 -0.26616657270E+03  0.48788671521E+03  0.92896501655E+02 0.  0.
        254    2    1    2    0    0  0.21615167285E+03 -0.33442113683E+03  0.43449439021E+03  0.10775534302E+04  0.90209588043E+03 0.  0.
         23    2    4    4    0    0 -0.38454145062E+02 -0.45082797632E+03  0.58470239882E+03  0.74506260015E+03  0.92286496552E+02 0.  0.
         23    2    4    4    0    0  0.25460581791E+03  0.11640683950E+03 -0.15020800861E+03  0.33249083010E+03  0.98046068031E+02 0.  0.
          2    1    3    3  502    0  0.74977092228E+01  0.28978297853E+02 -0.14181320634E+02  0.33122005449E+02  0.00000000000E+00 0. -1.
         -1    1    3    3    0  502 -0.22364938207E+03  0.30544283897E+03 -0.25198525207E+03  0.45476470976E+03  0.00000000000E+00 0.  1.
         11    1    5    5    0    0  0.86837535461E+01 -0.35208392646E+03  0.43736046807E+03  0.56153599873E+03  0.00000000000E+00 0. -1.
        -11    1    5    5    0    0 -0.47137898608E+02 -0.98744049866E+02  0.14734193075E+03  0.18352660141E+03  0.00000000000E+00 0.  1.
          1    1    6    6  503    0  0.10107017180E+03  0.96356011218E+02 -0.91221847490E+02  0.16679654069E+03  0.00000000000E+00 0. -1.
         -1    1    6    6    0  503  0.15353564611E+03  0.20050828279E+02 -0.58986161117E+02  0.16569428942E+03  0.00000000000E+00 0.  1.
<mgrwt>
<rscale>  0 0.15563639E+04</rscale>
<asrwt>0</asrwt>
<pdfrwt beam="1">  1        2 0.13336677E+00 0.15563639E+04</pdfrwt>
<pdfrwt beam="2">  1       -1 0.10747018E+00 0.15563639E+04</pdfrwt>
<totfact> 0.27360127E+01</totfact>
</mgrwt>
</event>
<event>
12    6  0.9533401E-008  0.1605959E+04  0.7818608E-02  0.8816896E-01
         -1   -1    0    0    0  501 -0.00000000000E+00  0.00000000000E+00  0.50341891996E+03  0.50341891996E+03  0.00000000000E+00 0.  1.
          2   -1    0    0  501    0  0.00000000000E+00 -0.00000000000E+00 -0.12807938440E+04  0.12807938440E+04  0.00000000000E+00 0. -1.
         24    2    1    2    0    0  0.37998476599E+03 -0.97364874888E+02  0.15850989936E+03  0.43056691706E+03  0.79963370520E+02 0.  0.
        254    2    1    2    0    0 -0.37998476599E+03  0.97364874888E+02 -0.93588482342E+03  0.13536458469E+04  0.89588410799E+03 0.  0.
         23    2    4    4    0    0 -0.25077254612E+03  0.52112669186E+02  0.11107973108E+03  0.29386706558E+03  0.91741732022E+02 0.  0.
         23    2    4    4    0    0 -0.12921221987E+03  0.45252205701E+02 -0.10469645545E+04  0.10597787813E+04  0.90844521704E+02 0.  0.
          2    1    3    3  502    0  0.14886523004E+02 -0.21405195874E+02  0.20335909964E+01  0.26151987876E+02  0.00000000000E+00 0. -1.
         -1    1    3    3    0  502  0.36509824299E+03 -0.75959679014E+02  0.15647630836E+03  0.40441492918E+03  0.00000000000E+00 0.  1.
         11    1    5    5    0    0 -0.20879638954E+03  0.27995485076E+02  0.51074130013E+02  0.21676772414E+03  0.00000000000E+00 0.  1.
        -11    1    5    5    0    0 -0.41976156580E+02  0.24117184110E+02  0.60005601071E+02  0.77099341440E+02  0.00000000000E+00 0. -1.
          4    1    6    6  503    0 -0.16486521137E+02  0.32647752256E+02 -0.10881801610E+03  0.11480000756E+03  0.00000000000E+00 0. -1.
         -4    1    6    6    0  503 -0.11272569873E+03  0.12604453445E+02 -0.93814653840E+03  0.94497877379E+03  0.00000000000E+00 0.  1.
<mgrwt>
<rscale>  0 0.16059587E+04</rscale>
<asrwt>0</asrwt>
<pdfrwt beam="1">  1        2 0.19704521E+00 0.16059587E+04</pdfrwt>
<pdfrwt beam="2">  1       -1 0.77449064E-01 0.16059587E+04</pdfrwt>
<totfact> 0.30979050E+01</totfact>
</mgrwt>
</event>
<event>
12    6  0.9533401E-008  0.2646467E+04  0.7818608E-02  0.8352587E-01
          2   -1    0    0  501    0  0.00000000000E+00  0.00000000000E+00  0.20263663538E+04  0.20263663538E+04  0.00000000000E+00 0. -1.
         -1   -1    0    0    0  501 -0.00000000000E+00 -0.00000000000E+00 -0.86408211180E+03  0.86408211180E+03  0.00000000000E+00 0.  1.
         24    2    1    2    0    0  0.73850172028E+03  0.38611244662E+03  0.14132226797E+04  0.16425010373E+04  0.78381775432E+02 0.  0.
        254    2    1    2    0    0 -0.73850172028E+03 -0.38611244662E+03 -0.25093843772E+03  0.12479474283E+04  0.89439089442E+03 0.  0.
         23    2    4    4    0    0 -0.26733895409E+03 -0.60267254156E+03 -0.27506706652E+03  0.72085485669E+03  0.96361426958E+02 0.  0.
         23    2    4    4    0    0 -0.47116276619E+03  0.21656009493E+03  0.24128628801E+02  0.52709257163E+03  0.91387971722E+02 0.  0.
          2    1    3    3  502    0  0.68241494736E+03  0.34659237849E+03  0.13313640132E+04  0.15356909106E+04  0.00000000000E+00 0. -1.
         -1    1    3    3    0  502  0.56086772914E+02  0.39520068130E+02  0.81858666513E+02  0.10681012669E+03  0.00000000000E+00 0.  1.
         11    1    5    5    0    0 -0.26801964023E+03 -0.56267060901E+03 -0.27404819606E+03  0.68083416157E+03  0.00000000000E+00 0.  1.
        -11    1    5    5    0    0  0.68068613664E+00 -0.40001932542E+02 -0.10188704598E+01  0.40020695118E+02  0.00000000000E+00 0. -1.
          2    1    6    6  503    0 -0.20614071553E+03  0.51041969156E+02  0.30622630099E+02  0.21456239813E+03  0.00000000000E+00 0. -1.
         -2    1    6    6    0  503 -0.26502205066E+03  0.16551812578E+03 -0.64940012972E+01  0.31253017350E+03  0.00000000000E+00 0.  1.
<mgrwt>
<rscale>  0 0.26464670E+04</rscale>
<asrwt>0</asrwt>
<pdfrwt beam="1">  1        2 0.31174867E+00 0.26464670E+04</pdfrwt>
<pdfrwt beam="2">  1       -1 0.13293571E+00 0.26464670E+04</pdfrwt>
<totfact> 0.31026287E+00</totfact>
</mgrwt>
</event>
<event>
12    6  0.9533401E-008  0.1386221E+04  0.7818608E-02  0.8963854E-01
         -1   -1    0    0    0  501 -0.00000000000E+00  0.00000000000E+00  0.21635984000E+03  0.21635984000E+03  0.00000000000E+00 0.  1.
          2   -1    0    0  501    0  0.00000000000E+00 -0.00000000000E+00 -0.22203840857E+04  0.22203840857E+04  0.00000000000E+00 0. -1.
         24    2    1    2    0    0 -0.17506925866E+03 -0.28223343807E+03 -0.96811023022E+03  0.10266866953E+04  0.80890008929E+02 0.  0.
        254    2    1    2    0    0  0.17506925866E+03  0.28223343807E+03 -0.10359140155E+04  0.14100572304E+04  0.89712796559E+03 0.  0.
         23    2    4    4    0    0  0.31080663295E+03 -0.23787423084E+03 -0.34231536444E+03  0.52809857928E+03  0.92322196275E+02 0.  0.
         23    2    4    4    0    0 -0.13573737429E+03  0.52010766892E+03 -0.69359865104E+03  0.88195865112E+03  0.88517520942E+02 0.  0.
          4    1    3    3  502    0 -0.18128099514E+03 -0.27797596804E+03 -0.92073581889E+03  0.97871747005E+03  0.00000000000E+00 0. -1.
         -3    1    3    3    0  502  0.62117364792E+01 -0.42574700374E+01 -0.47374411337E+02  0.47969225246E+02  0.00000000000E+00 0.  1.
         11    1    5    5    0    0  0.12291009510E+03 -0.15173354264E+03 -0.17373187056E+03  0.26136702601E+03  0.00000000000E+00 0. -1.
        -11    1    5    5    0    0  0.18789653785E+03 -0.86140688202E+02 -0.16858349389E+03  0.26673155327E+03  0.00000000000E+00 0.  1.
          4    1    6    6  503    0 -0.32760382863E+02  0.13474587482E+03 -0.24617845122E+03  0.28254826722E+03  0.00000000000E+00 0. -1.
         -4    1    6    6    0  503 -0.10297699142E+03  0.38536179410E+03 -0.44742019982E+03  0.59941038390E+03  0.00000000000E+00 0.  1.
<mgrwt>
<rscale>  0 0.13862207E+04</rscale>
<asrwt>0</asrwt>
<pdfrwt beam="1">  1        2 0.34159754E+00 0.13862207E+04</pdfrwt>
<pdfrwt beam="2">  1       -1 0.33286130E-01 0.13862207E+04</pdfrwt>
<totfact> 0.47457432E+01</totfact>
</mgrwt>
</event>
<event>
12    6  0.9533401E-008  0.1332010E+04  0.7818608E-02  0.9004559E-01
          2   -1    0    0  501    0  0.00000000000E+00  0.00000000000E+00  0.92090893100E+03  0.92090893100E+03  0.00000000000E+00 0. -1.
         -1   -1    0    0    0  501 -0.00000000000E+00 -0.00000000000E+00 -0.48165767691E+03  0.48165767691E+03  0.00000000000E+00 0.  1.
         24    2    1    2    0    0  0.33289526148E+03  0.10418709529E+03  0.17586426909E+03  0.39881595828E+03  0.80322608887E+02 0.  0.
        254    2    1    2    0    0 -0.33289526148E+03 -0.10418709529E+03  0.26338698500E+03  0.10037506496E+04  0.90358644125E+03 0.  0.
         23    2    4    4    0    0 -0.18896432730E+03 -0.49458701804E+03  0.20423223236E+03  0.57330218580E+03  0.81490834466E+02 0.  0.
         23    2    4    4    0    0 -0.14393093418E+03  0.39039992275E+03  0.59154752640E+02  0.43044846382E+03  0.93050425806E+02 0.  0.
          4    1    3    3  502    0  0.21353274631E+03  0.68979024376E+02  0.68955579356E+02  0.23475351217E+03  0.00000000000E+00 0. -1.
         -3    1    3    3    0  502  0.11936251517E+03  0.35208070912E+02  0.10690868973E+03  0.16406244612E+03  0.00000000000E+00 0.  1.
         11    1    5    5    0    0 -0.10513638049E+03 -0.16653803521E+03  0.81719248320E+02  0.21322901120E+03  0.00000000000E+00 0. -1.
        -11    1    5    5    0    0 -0.83827946810E+02 -0.32804898284E+03  0.12251298404E+03  0.36007317460E+03  0.00000000000E+00 0.  1.
          3    1    6    6  503    0 -0.33941604476E+02  0.21563966156E+03  0.11899096416E+02  0.21861858258E+03  0.00000000000E+00 0. -1.
         -3    1    6    6    0  503 -0.10998932970E+03  0.17476026119E+03  0.47255656225E+02  0.21182988124E+03  0.00000000000E+00 0.  1.
<mgrwt>
<rscale>  0 0.13320103E+04</rscale>
<asrwt>0</asrwt>
<pdfrwt beam="1">  1        2 0.14167830E+00 0.13320103E+04</pdfrwt>
<pdfrwt beam="2">  1       -1 0.74101182E-01 0.13320103E+04</pdfrwt>
<totfact> 0.58103807E+01</totfact>
</mgrwt>
</event>
<event>
12    6  0.9533401E-008  0.4162164E+04  0.7818608E-02  0.7972609E-01
         -1   -1    0    0    0  501 -0.00000000000E+00  0.00000000000E+00  0.13176598221E+04  0.13176598221E+04  0.00000000000E+00 0.  1.
          2   -1    0    0  501    0  0.00000000000E+00 -0.00000000000E+00 -0.32868135489E+04  0.32868135489E+04  0.00000000000E+00 0. -1.
         24    2    1    2    0    0  0.78072694183E+03 -0.18218942472E+04 -0.87914261761E+03  0.21698363194E+04  0.80403390265E+02 0.  0.
        254    2    1    2    0    0 -0.78072694183E+03  0.18218942472E+04 -0.10900111092E+04  0.24346370516E+04  0.90027781786E+03 0.  0.
         23    2    4    4    0    0 -0.57508311694E+03  0.35662124582E+03 -0.22913434440E+03  0.72038166819E+03  0.92454830728E+02 0.  0.
         23    2    4    4    0    0 -0.20564382489E+03  0.14652730014E+04 -0.86087676483E+03  0.17142553835E+04  0.90820505314E+02 0.  0.
          2    1    3    3  502    0  0.34047275330E+02 -0.12811315445E+03 -0.52413831636E+02  0.14254615760E+03  0.00000000000E+00 0. -1.
         -1    1    3    3    0  502  0.74667966650E+03 -0.16937810928E+04 -0.82672878597E+03  0.20272901618E+04  0.00000000000E+00 0.  1.
         11    1    5    5    0    0 -0.39757543364E+02  0.18010965560E+02 -0.40298470471E+02  0.59405587760E+02  0.00000000000E+00 0.  1.
        -11    1    5    5    0    0 -0.53532557358E+03  0.33861028026E+03 -0.18883587393E+03  0.66097608044E+03  0.00000000000E+00 0. -1.
          3    1    6    6  503    0 -0.19322499134E+03  0.14180474882E+04 -0.84889287390E+03  0.16639752664E+04  0.00000000000E+00 0. -1.
         -3    1    6    6    0  503 -0.12418833543E+02  0.47225513218E+02 -0.11983890936E+02  0.50280117017E+02  0.00000000000E+00 0.  1.
<mgrwt>
<rscale>  0 0.41621639E+04</rscale>
<asrwt>0</asrwt>
<pdfrwt beam="1">  1        2 0.50566362E+00 0.41621639E+04</pdfrwt>
<pdfrwt beam="2">  1       -1 0.20271690E+00 0.41621639E+04</pdfrwt>
<totfact> 0.14466257E-01</totfact>
</mgrwt>
</event>
<event>
12    6  0.9533401E-008  0.1773404E+04  0.7818608E-02  0.8720572E-01
         -1   -1    0    0    0  501 -0.00000000000E+00  0.00000000000E+00  0.31125500514E+03  0.31125500514E+03  0.00000000000E+00 0.  1.
          2   -1    0    0  501    0  0.00000000000E+00 -0.00000000000E+00 -0.25260318964E+04  0.25260318964E+04  0.00000000000E+00 0. -1.
         24    2    1    2    0    0  0.48702357312E+02  0.61315128033E+03 -0.13171208462E+04  0.14558747258E+04  0.80233918078E+02 0.  0.
        254    2    1    2    0    0 -0.48702357312E+02 -0.61315128033E+03 -0.89765604510E+03  0.13814121758E+04  0.85099166381E+03 0.  0.
         23    2    4    4    0    0 -0.33188522444E+03 -0.66299910756E+03 -0.60083717498E+03  0.95830511836E+03  0.87337106670E+02 0.  0.
         23    2    4    4    0    0  0.28318286713E+03  0.49847827235E+02 -0.29681887012E+03  0.42310705741E+03  0.90778842550E+02 0.  0.
          2    1    3    3  502    0  0.50073912262E+02  0.45277463966E+03 -0.10456253677E+04  0.11405457819E+04  0.00000000000E+00 0. -1.
         -1    1    3    3    0  502 -0.13715549496E+01  0.16037664066E+03 -0.27149547850E+03  0.31532894393E+03  0.00000000000E+00 0.  1.
         11    1    5    5    0    0 -0.80858381335E+01  0.63194263227E+00 -0.56336670820E+01  0.98751371941E+01  0.00000000000E+00 0. -1.
        -11    1    5    5    0    0 -0.32379938631E+03 -0.66363105019E+03 -0.59520350790E+03  0.94842998116E+03  0.00000000000E+00 0.  1.
          2    1    6    6  503    0  0.17979329759E+03  0.63060668697E+02 -0.14723841871E+03  0.24079333408E+03  0.00000000000E+00 0. -1.
         -2    1    6    6    0  503  0.10338956954E+03 -0.13212841463E+02 -0.14958045141E+03  0.18231372333E+03  0.00000000000E+00 0.  1.
<mgrwt>
<rscale>  0 0.17734036E+04</rscale>
<asrwt>0</asrwt>
<pdfrwt beam="1">  1        2 0.38862030E+00 0.17734036E+04</pdfrwt>
<pdfrwt beam="2">  1       -1 0.47885384E-01 0.17734036E+04</pdfrwt>
<totfact> 0.15801873E+01</totfact>
</mgrwt>
</event>
<event>
12    6  0.9533401E-008  0.9789034E+03  0.7818608E-02  0.9331991E-01
         -1   -1    0    0    0  501 -0.00000000000E+00  0.00000000000E+00  0.37106005383E+03  0.37106005383E+03  0.00000000000E+00 0.  1.
          2   -1    0    0  501    0  0.00000000000E+00 -0.00000000000E+00 -0.64561782245E+03  0.64561782245E+03  0.00000000000E+00 0. -1.
         24    2    1    2    0    0 -0.29563828209E+02  0.46917865463E+02  0.16132583875E+02  0.98057149055E+02  0.79244168116E+02 0.  0.
        254    2    1    2    0    0  0.29563828209E+02 -0.46917865463E+02 -0.29069035249E+03  0.91862072723E+03  0.86964812046E+03 0.  0.
         23    2    4    4    0    0 -0.36509792904E+03 -0.11921246863E+03 -0.31540131010E+03  0.50530737027E+03  0.91375278756E+02 0.  0.
         23    2    4    4    0    0  0.39466175725E+03  0.72294603163E+02  0.24710957608E+02  0.41331335696E+03  0.96087914643E+02 0.  0.
          4    1    3    3  502    0 -0.19261191640E+02  0.40839419017E+02 -0.27463493118E+02  0.52849740806E+02  0.00000000000E+00 0. -1.
         -3    1    3    3    0  502 -0.10302636569E+02  0.60784464457E+01  0.43596076993E+02  0.45207408249E+02  0.00000000000E+00 0.  1.
         11    1    5    5    0    0 -0.10296722664E+03 -0.19143093114E+02 -0.13840055800E+03  0.17356100435E+03  0.00000000000E+00 0.  1.
        -11    1    5    5    0    0 -0.26213070240E+03 -0.10006937551E+03 -0.17700075210E+03  0.33174636592E+03  0.00000000000E+00 0. -1.
          3    1    6    6  503    0  0.34184530431E+03  0.78611159693E+02 -0.80158619904E+01  0.35085920332E+03  0.00000000000E+00 0. -1.
         -3    1    6    6    0  503  0.52816452935E+02 -0.63165565296E+01  0.32726819598E+02  0.62454153649E+02  0.00000000000E+00 0.  1.
<mgrwt>
<rscale>  0 0.97890344E+03</rscale>
<asrwt>0</asrwt>
<pdfrwt beam="1">  1        2 0.99325819E-01 0.97890344E+03</pdfrwt>
<pdfrwt beam="2">  1       -1 0.57086162E-01 0.97890344E+03</pdfrwt>
<totfact> 0.16082542E+02</totfact>
</mgrwt>
</event>
<event>
12    6  0.9533401E-008  0.1829923E+04  0.7818608E-02  0.8690546E-01
         -3   -1    0    0    0  501 -0.00000000000E+00  0.00000000000E+00  0.58599669067E+03  0.58599669067E+03  0.00000000000E+00 0.  1.
          2   -1    0    0  501    0  0.00000000000E+00 -0.00000000000E+00 -0.14286001936E+04  0.14286001936E+04  0.00000000000E+00 0. -1.
         24    2    1    2    0    0 -0.41697597809E+03 -0.53744694554E+03 -0.40621184069E+03  0.79643261793E+03  0.81108999552E+02 0.  0.
        254    2    1    2    0    0  0.41697597809E+03  0.53744694554E+03 -0.43639166223E+03  0.12181642663E+04  0.91146492599E+03 0.  0.
         23    2    4    4    0    0 -0.23584042815E+03  0.15271028356E+02 -0.25277981910E+03  0.35736323620E+03  0.89201646778E+02 0.  0.
         23    2    4    4    0    0  0.65281640624E+03  0.52217591718E+03 -0.18361184312E+03  0.86080103012E+03  0.91804987806E+02 0.  0.
          2    1    3    3  502    0 -0.36539817238E+03 -0.42032920924E+03 -0.33634162147E+03  0.65062904550E+03  0.00000000000E+00 0. -1.
         -1    1    3    3    0  502 -0.51577805710E+02 -0.11711773630E+03 -0.69870219221E+02  0.14580357243E+03  0.00000000000E+00 0.  1.
         11    1    5    5    0    0  0.20198454735E+01 -0.95976348768E+01 -0.25966500117E+02  0.27757044138E+02  0.00000000000E+00 0. -1.
        -11    1    5    5    0    0 -0.23786027362E+03  0.24868663233E+02 -0.22681331899E+03  0.32960619206E+03  0.00000000000E+00 0.  1.
          1    1    6    6  503    0  0.44884836089E+02  0.20452701365E+02 -0.30031454935E+02  0.57748158320E+02  0.00000000000E+00 0. -1.
         -1    1    6    6    0  503  0.60793157015E+03  0.50172321582E+03 -0.15358038819E+03  0.80305287180E+03  0.00000000000E+00 0.  1.
<mgrwt>
<rscale>  0 0.18299235E+04</rscale>
<asrwt>0</asrwt>
<pdfrwt beam="1">  1        2 0.21978465E+00 0.18299235E+04</pdfrwt>
<pdfrwt beam="2">  1       -3 0.90153337E-01 0.18299235E+04</pdfrwt>
<totfact> 0.92778980E+00</totfact>
</mgrwt>
</event>
<event>
12    6  0.9533401E-008  0.1999299E+04  0.7818608E-02  0.8606949E-01
          2   -1    0    0  501    0  0.00000000000E+00  0.00000000000E+00  0.63438583901E+03  0.63438583901E+03  0.00000000000E+00 0. -1.
         -1   -1    0    0    0  501 -0.00000000000E+00 -0.00000000000E+00 -0.15752226296E+04  0.15752226296E+04  0.00000000000E+00 0.  1.
         24    2    1    2    0    0 -0.50510358051E+03 -0.32660634096E+02  0.31480095555E+03  0.60131542954E+03  0.79273325441E+02 0.  0.
        254    2    1    2    0    0  0.50510358051E+03  0.32660634096E+02 -0.12556377462E+04  0.16082930391E+04  0.86820735193E+03 0.  0.
         23    2    4    4    0    0  0.59002040126E+03 -0.19715766435E+03 -0.48486735819E+03  0.79438018432E+03  0.94595473875E+02 0.  0.
         23    2    4    4    0    0 -0.84916820760E+02  0.22981829845E+03 -0.77077038797E+03  0.81391285477E+03  0.91322655707E+02 0.  0.
          4    1    3    3  502    0 -0.50771132971E+03 -0.31457112685E+02  0.31518743694E+03  0.59841746688E+03  0.00000000000E+00 0. -1.
         -3    1    3    3    0  502  0.26077492070E+01 -0.12035214106E+01 -0.38648139442E+00  0.28979626603E+01  0.00000000000E+00 0.  1.
         11    1    5    5    0    0  0.44481439936E+03 -0.10435178458E+03 -0.34928046876E+03  0.57510519966E+03  0.00000000000E+00 0. -1.
        -11    1    5    5    0    0  0.14520600190E+03 -0.92805879776E+02 -0.13558688943E+03  0.21927498466E+03  0.00000000000E+00 0.  1.
          3    1    6    6  503    0 -0.48336362237E+01  0.55292629750E+01 -0.16599228485E+00  0.73460425829E+01  0.00000000000E+00 0. -1.
         -3    1    6    6    0  503 -0.80083184536E+02  0.22428903547E+03 -0.77060439568E+03  0.80656681219E+03  0.00000000000E+00 0.  1.
<mgrwt>
<rscale>  0 0.19992988E+04</rscale>
<asrwt>0</asrwt>
<pdfrwt beam="1">  1        2 0.97597822E-01 0.19992988E+04</pdfrwt>
<pdfrwt beam="2">  1       -1 0.24234194E+00 0.19992988E+04</pdfrwt>
<totfact> 0.38461953E+00</totfact>
</mgrwt>
</event>
<event>
12    6  0.9533401E-008  0.1996750E+04  0.7818608E-02  0.8608142E-01
          2   -1    0    0  501    0  0.00000000000E+00  0.00000000000E+00  0.17819077869E+04  0.17819077869E+04  0.00000000000E+00 0. -1.
         -1   -1    0    0    0  501 -0.00000000000E+00 -0.00000000000E+00 -0.55937403683E+03  0.55937403683E+03  0.00000000000E+00 0.  1.
         24    2    1    2    0    0  0.34582868638E+03 -0.24868441844E+03  0.12730488267E+04  0.13468655098E+04  0.10932504750E+03 0.  0.
        254    2    1    2    0    0 -0.34582868638E+03  0.24868441844E+03 -0.50515076654E+02  0.99441631391E+03  0.89714581429E+03 0.  0.
         23    2    4    4    0    0  0.12217173022E+03  0.32445246448E+03 -0.28481561322E+03  0.45793796139E+03  0.91607366393E+02 0.  0.
         23    2    4    4    0    0 -0.46800041660E+03 -0.75768046044E+02  0.23430053656E+03  0.53647835252E+03  0.90261257164E+02 0.  0.
          2    1    3    3  502    0  0.15025860049E+03 -0.11436618529E+03  0.73427135947E+03  0.75816337335E+03  0.00000000000E+00 0. -1.
         -1    1    3    3    0  502  0.19557008589E+03 -0.13431823315E+03  0.53877746721E+03  0.58870213642E+03  0.00000000000E+00 0.  1.
         11    1    5    5    0    0  0.11811512409E+03  0.22690645674E+03 -0.23903149672E+03  0.35010538281E+03  0.00000000000E+00 0. -1.
        -11    1    5    5    0    0  0.40566061277E+01  0.97546007745E+02 -0.45784116500E+02  0.10783257858E+03  0.00000000000E+00 0.  1.
          2    1    6    6  503    0 -0.45475769007E+03 -0.58113652082E+02  0.23325909873E+03  0.51438464244E+03  0.00000000000E+00 0. -1.
         -2    1    6    6    0  503 -0.13242726528E+02 -0.17654393962E+02  0.10414378298E+01  0.22093710073E+02  0.00000000000E+00 0.  1.
<mgrwt>
<rscale>  0 0.19967503E+04</rscale>
<asrwt>0</asrwt>
<pdfrwt beam="1">  1        2 0.27413966E+00 0.19967503E+04</pdfrwt>
<pdfrwt beam="2">  1       -1 0.86057545E-01 0.19967503E+04</pdfrwt>
<totfact> 0.12454771E+01</totfact>
</mgrwt>
</event>
<event>
12    6  0.9533401E-008  0.2232882E+04  0.7818608E-02  0.8504865E-01
          2   -1    0    0  501    0  0.00000000000E+00  0.00000000000E+00  0.16749424818E+04  0.16749424818E+04  0.00000000000E+00 0. -1.
         -1   -1    0    0    0  501 -0.00000000000E+00 -0.00000000000E+00 -0.74416943221E+03  0.74416943221E+03  0.00000000000E+00 0.  1.
         24    2    1    2    0    0 -0.11435105748E+03  0.58174841236E+03  0.11669136215E+04  0.13113071519E+04  0.79571772141E+02 0.  0.
        254    2    1    2    0    0  0.11435105748E+03 -0.58174841236E+03 -0.23614057196E+03  0.11078047621E+04  0.90551733365E+03 0.  0.
         23    2    4    4    0    0 -0.61705810761E+02 -0.52703315904E+03  0.23964900123E+03  0.58949132747E+03  0.92178216354E+02 0.  0.
         23    2    4    4    0    0  0.17605686824E+03 -0.54715253321E+02 -0.47578957319E+03  0.51831343460E+03  0.91012739440E+02 0.  0.
          2    1    3    3  502    0 -0.12034166350E+03  0.51826844164E+03  0.10020584574E+04  0.11345507682E+04  0.00000000000E+00 0. -1.
         -1    1    3    3    0  502  0.59906060204E+01  0.63479970718E+02  0.16485516419E+03  0.17675638377E+03  0.00000000000E+00 0.  1.
         11    1    5    5    0    0 -0.61069753481E+02 -0.53024043877E+03  0.23362326610E+03  0.58263562211E+03  0.00000000000E+00 0.  1.
        -11    1    5    5    0    0 -0.63605728045E+00  0.32072797294E+01  0.60257351290E+01  0.68557053592E+01  0.00000000000E+00 0. -1.
          4    1    6    6  503    0  0.11553342673E+02  0.21412543637E+02 -0.54749644363E+02  0.59912438690E+02  0.00000000000E+00 0. -1.
         -4    1    6    6    0  503  0.16450352557E+03 -0.76127796958E+02 -0.42103992882E+03  0.45840099591E+03  0.00000000000E+00 0.  1.
<mgrwt>
<rscale>  0 0.22328824E+04</rscale>
<asrwt>0</asrwt>
<pdfrwt beam="1">  1        2 0.25768346E+00 0.22328824E+04</pdfrwt>
<pdfrwt beam="2">  1       -1 0.11448761E+00 0.22328824E+04</pdfrwt>
<totfact> 0.72939047E+00</totfact>
</mgrwt>
</event>
<event>
12    6  0.9533401E-008  0.2557167E+04  0.7818608E-02  0.8382898E-01
          2   -1    0    0  501    0  0.00000000000E+00  0.00000000000E+00  0.23616112498E+04  0.23616112498E+04  0.00000000000E+00 0. -1.
         -1   -1    0    0    0  501 -0.00000000000E+00 -0.00000000000E+00 -0.69222905236E+03  0.69222905236E+03  0.00000000000E+00 0.  1.
         24    2    1    2    0    0  0.51593844405E+03 -0.76047049307E+03 -0.26413732799E+02  0.92322169993E+03  0.84455746117E+02 0.  0.
        254    2    1    2    0    0 -0.51593844405E+03  0.76047049307E+03  0.16957959302E+04  0.21306186022E+04  0.90515409860E+03 0.  0.
         23    2    4    4    0    0 -0.16474765714E+03 -0.65061136625E+02 -0.11702112114E+02  0.19962822047E+03  0.91322204013E+02 0.  0.
         23    2    4    4    0    0 -0.35119078691E+03  0.82553162970E+03  0.17074980423E+04  0.19309903817E+04  0.91306348837E+02 0.  0.
          2    1    3    3  502    0  0.22653108868E+03 -0.40569120465E+03 -0.25894918426E+02  0.46537322062E+03  0.00000000000E+00 0. -1.
         -1    1    3    3    0  502  0.28940735537E+03 -0.35477928843E+03 -0.51881437351E+00  0.45784847931E+03  0.00000000000E+00 0.  1.
         11    1    5    5    0    0 -0.30562574398E+02 -0.18491922434E+02 -0.41233043922E+02  0.54554432086E+02  0.00000000000E+00 0.  1.
        -11    1    5    5    0    0 -0.13418508275E+03 -0.46569214191E+02  0.29530931808E+02  0.14507378838E+03  0.00000000000E+00 0. -1.
          2    1    6    6  503    0 -0.20326572015E+02  0.10490254117E+03  0.16436978308E+03  0.19604881602E+03  0.00000000000E+00 0. -1.
         -2    1    6    6    0  503 -0.33086421489E+03  0.72062908853E+03  0.15431282593E+04  0.17349415657E+04  0.00000000000E+00 0.  1.
<mgrwt>
<rscale>  0 0.25571671E+04</rscale>
<asrwt>0</asrwt>
<pdfrwt beam="1">  1        2 0.36332480E+00 0.25571671E+04</pdfrwt>
<pdfrwt beam="2">  1       -1 0.10649678E+00 0.25571671E+04</pdfrwt>
<totfact> 0.34767868E+00</totfact>
</mgrwt>
</event>
<event>
12    6  0.9533401E-008  0.2466744E+04  0.7818608E-02  0.8414930E-01
         -1   -1    0    0    0  501 -0.00000000000E+00  0.00000000000E+00  0.12579828105E+04  0.12579828105E+04  0.00000000000E+00 0.  1.
          2   -1    0    0  501    0  0.00000000000E+00 -0.00000000000E+00 -0.12092423267E+04  0.12092423267E+04  0.00000000000E+00 0. -1.
         24    2    1    2    0    0  0.80753848603E+03  0.64584625800E+03  0.29048246371E+03  0.10770699968E+04  0.80398512806E+02 0.  0.
        254    2    1    2    0    0 -0.80753848603E+03 -0.64584625800E+03 -0.24174197993E+03  0.13901551405E+04  0.89713785691E+03 0.  0.
         23    2    4    4    0    0 -0.39294704974E+03  0.12031347600E+03  0.12848730985E+03  0.43938516969E+03  0.87564959520E+02 0.  0.
         23    2    4    4    0    0 -0.41459143628E+03 -0.76615973400E+03 -0.37022928979E+03  0.95076997077E+03  0.89481915869E+02 0.  0.
          4    1    3    3  502    0  0.15160618543E+03  0.10649274834E+03  0.82250593412E+02  0.20270742716E+03  0.00000000000E+00 0. -1.
         -3    1    3    3    0  502  0.65593230060E+03  0.53935350966E+03  0.20823187029E+03  0.87436256962E+03  0.00000000000E+00 0.  1.
         11    1    5    5    0    0 -0.26514851946E+03  0.12300153959E+03  0.92877957803E+02  0.30669110055E+03  0.00000000000E+00 0. -1.
        -11    1    5    5    0    0 -0.12779853029E+03 -0.26880635924E+01  0.35609352051E+02  0.13269406913E+03  0.00000000000E+00 0.  1.
          3    1    6    6  503    0 -0.40116718454E+02 -0.66556004559E+02 -0.68777058082E+01  0.78015099048E+02  0.00000000000E+00 0. -1.
         -3    1    6    6    0  503 -0.37447471783E+03 -0.69960372944E+03 -0.36335158398E+03  0.87275487172E+03  0.00000000000E+00 0.  1.
<mgrwt>
<rscale>  0 0.24667437E+04</rscale>
<asrwt>0</asrwt>
<pdfrwt beam="1">  1        2 0.18603728E+00 0.24667437E+04</pdfrwt>
<pdfrwt beam="2">  1       -1 0.19353582E+00 0.24667437E+04</pdfrwt>
<totfact> 0.31814176E+00</totfact>
</mgrwt>
</event>
<event>
12    6  0.9533401E-008  0.2012511E+04  0.7818608E-02  0.8600794E-01
          2   -1    0    0  501    0  0.00000000000E+00  0.00000000000E+00  0.29635854550E+04  0.29635854550E+04  0.00000000000E+00 0. -1.
         -1   -1    0    0    0  501 -0.00000000000E+00 -0.00000000000E+00 -0.34166386622E+03  0.34166386622E+03  0.00000000000E+00 0.  1.
         24    2    1    2    0    0 -0.45432214657E+03 -0.58459229310E+03  0.15642080849E+04  0.17324898934E+04  0.81348238149E+02 0.  0.
        254    2    1    2    0    0  0.45432214657E+03  0.58459229310E+03  0.10577135039E+04  0.15727594278E+04  0.89814119129E+03 0.  0.
         23    2    4    4    0    0  0.64683051840E+03  0.18588667705E+03  0.44368528057E+03  0.81117195274E+03  0.90552374220E+02 0.  0.
         23    2    4    4    0    0 -0.19250837183E+03  0.39870561605E+03  0.61402822333E+03  0.76158747509E+03  0.83421709885E+02 0.  0.
          4    1    3    3  502    0 -0.28492708743E+03 -0.36488373439E+03  0.88415279076E+03  0.99802291666E+03  0.00000000000E+00 0. -1.
         -3    1    3    3    0  502 -0.16939505914E+03 -0.21970855871E+03  0.68005529410E+03  0.73446697670E+03  0.00000000000E+00 0.  1.
         11    1    5    5    0    0  0.33878583615E+03  0.85801354240E+02  0.17774061768E+03  0.39208346348E+03  0.00000000000E+00 0. -1.
        -11    1    5    5    0    0  0.30804468225E+03  0.10008532281E+03  0.26594466289E+03  0.41908848925E+03  0.00000000000E+00 0.  1.
          3    1    6    6  503    0 -0.15651937045E+03  0.30813906393E+03  0.53095204022E+03  0.63352826698E+03  0.00000000000E+00 0. -1.
         -3    1    6    6    0  503 -0.35989001378E+02  0.90566552122E+02  0.83076183110E+02  0.12805920812E+03  0.00000000000E+00 0.  1.
<mgrwt>
<rscale>  0 0.20125109E+04</rscale>
<asrwt>0</asrwt>
<pdfrwt beam="1">  1        2 0.45593621E+00 0.20125109E+04</pdfrwt>
<pdfrwt beam="2">  1       -1 0.52563674E-01 0.20125109E+04</pdfrwt>
<totfact> 0.70845263E+00</totfact>
</mgrwt>
</event>
<event>
12    6  0.9533401E-008  0.1721203E+04  0.7818608E-02  0.8749363E-01
         -1   -1    0    0    0  501 -0.00000000000E+00  0.00000000000E+00  0.62437577376E+03  0.62437577376E+03  0.00000000000E+00 0.  1.
          2   -1    0    0  501    0  0.00000000000E+00 -0.00000000000E+00 -0.11862002445E+04  0.11862002445E+04  0.00000000000E+00 0. -1.
         24    2    1    2    0    0  0.46447928669E+03 -0.37071473599E+03 -0.33635951459E+03  0.68740516954E+03  0.78852525745E+02 0.  0.
        254    2    1    2    0    0 -0.46447928669E+03  0.37071473599E+03 -0.22546495610E+03  0.11231708487E+04  0.92601721670E+03 0.  0.
         23    2    4    4    0    0 -0.46634176292E+03 -0.16499076981E+03 -0.28240606201E+03  0.57679076026E+03  0.90762345201E+02 0.  0.
         23    2    4    4    0    0  0.18624762298E+01  0.53570550580E+03  0.56941105907E+02  0.54638008841E+03  0.91132067390E+02 0.  0.
          4    1    3    3  502    0  0.29044722478E+03 -0.18348691033E+03 -0.18173444916E+03  0.38865723544E+03  0.00000000000E+00 0. -1.
         -3    1    3    3    0  502  0.17403206190E+03 -0.18722782566E+03 -0.15462506543E+03  0.29874793410E+03  0.00000000000E+00 0.  1.
         11    1    5    5    0    0 -0.27220415635E+03 -0.14021453162E+03 -0.15425963697E+03  0.34285748236E+03  0.00000000000E+00 0. -1.
        -11    1    5    5    0    0 -0.19413760656E+03 -0.24776238190E+02 -0.12814642503E+03  0.23393327790E+03  0.00000000000E+00 0.  1.
          4    1    6    6  503    0  0.10294530402E+02  0.35084202855E+03  0.79706191310E+02  0.35992941432E+03  0.00000000000E+00 0.  1.
         -4    1    6    6    0  503 -0.84320541724E+01  0.18486347724E+03 -0.22765085403E+02  0.18645067409E+03  0.00000000000E+00 0. -1.
<mgrwt>
<rscale>  0 0.17212027E+04</rscale>
<asrwt>0</asrwt>
<pdfrwt beam="1">  1        2 0.18249234E+00 0.17212027E+04</pdfrwt>
<pdfrwt beam="2">  1       -1 0.96057812E-01 0.17212027E+04</pdfrwt>
<totfact> 0.21843340E+01</totfact>
</mgrwt>
</event>
<event>
12    6  0.9533401E-008  0.1248589E+04  0.7818608E-02  0.9071359E-01
          2   -1    0    0  501    0  0.00000000000E+00  0.00000000000E+00  0.24589682330E+04  0.24589682330E+04  0.00000000000E+00 0. -1.
         -1   -1    0    0    0  501 -0.00000000000E+00 -0.00000000000E+00 -0.15849879394E+03  0.15849879394E+03  0.00000000000E+00 0.  1.
         24    2    1    2    0    0  0.12157313944E+03  0.71948807032E+02  0.10207652601E+04  0.10335070340E+04  0.78856920738E+02 0.  0.
        254    2    1    2    0    0 -0.12157313944E+03 -0.71948807032E+02  0.12797041789E+04  0.15839599929E+04  0.92267535710E+03 0.  0.
         23    2    4    4    0    0 -0.48360624064E+03 -0.19198742626E+03  0.59178954816E+03  0.79268278981E+03  0.86005628409E+02 0.  0.
         23    2    4    4    0    0  0.36203310120E+03  0.12003861922E+03  0.68791463076E+03  0.79127720313E+03  0.86115251287E+02 0.  0.
          2    1    3    3  502    0  0.90745407033E+02  0.24012273256E+02  0.80061401221E+03  0.80609808008E+03  0.00000000000E+00 0. -1.
         -1    1    3    3    0  502  0.30827732403E+02  0.47936533776E+02  0.22015124789E+03  0.22740895387E+03  0.00000000000E+00 0.  1.
         11    1    5    5    0    0 -0.10841933210E+03 -0.18272843836E+02  0.87141237364E+02  0.14029341982E+03  0.00000000000E+00 0.  1.
        -11    1    5    5    0    0 -0.37518690854E+03 -0.17371458242E+03  0.50464831080E+03  0.65238936999E+03  0.00000000000E+00 0. -1.
          3    1    6    6  503    0  0.29853470123E+03  0.13181052917E+03  0.58067961241E+03  0.66609743709E+03  0.00000000000E+00 0. -1.
         -3    1    6    6    0  503  0.63498399975E+02 -0.11771909947E+02  0.10723501836E+03  0.12517976604E+03  0.00000000000E+00 0.  1.
<mgrwt>
<rscale>  0 0.12485888E+04</rscale>
<asrwt>0</asrwt>
<pdfrwt beam="1">  1        2 0.37830278E+00 0.12485888E+04</pdfrwt>
<pdfrwt beam="2">  1       -1 0.24384432E-01 0.12485888E+04</pdfrwt>
<totfact> 0.60522927E+01</totfact>
</mgrwt>
</event>
<event>
12    6  0.9533401E-008  0.1559954E+04  0.7818608E-02  0.8845535E-01
          2   -1    0    0  501    0  0.00000000000E+00  0.00000000000E+00  0.12779718790E+04  0.12779718790E+04  0.00000000000E+00 0. -1.
         -1   -1    0    0    0  501 -0.00000000000E+00 -0.00000000000E+00 -0.47603861203E+03  0.47603861203E+03  0.00000000000E+00 0.  1.
         24    2    1    2    0    0 -0.24353151414E+03  0.34965544665E+03 -0.54262374545E+02  0.43334342825E+03  0.57232785765E+02 0.  0.
        254    2    1    2    0    0  0.24353151414E+03 -0.34965544665E+03  0.85619564155E+03  0.13206670628E+04  0.91078207296E+03 0.  0.
         23    2    4    4    0    0  0.37577465146E+03 -0.65055849234E+02 -0.13271778264E+02  0.39179079261E+03  0.88797707622E+02 0.  0.
         23    2    4    4    0    0 -0.13224313732E+03 -0.28459959741E+03  0.86946741981E+03  0.92887627019E+03  0.91391208513E+02 0.  0.
          4    1    3    3  502    0 -0.29113983798E+02  0.31635137993E+02  0.10760677568E+02  0.44319275605E+02  0.00000000000E+00 0. -1.
         -3    1    3    3    0  502 -0.21441753034E+03  0.31802030866E+03 -0.65023052114E+02  0.38902415264E+03  0.00000000000E+00 0.  1.
         11    1    5    5    0    0  0.14634081173E+03 -0.23220912359E+02 -0.48545711665E+02  0.15592155101E+03  0.00000000000E+00 0. -1.
        -11    1    5    5    0    0  0.22943383973E+03 -0.41834936875E+02  0.35273933401E+02  0.23586924160E+03  0.00000000000E+00 0.  1.
          4    1    6    6  503    0  0.11526108122E+02 -0.48439304177E+02  0.15383803355E+03  0.16169526253E+03  0.00000000000E+00 0. -1.
         -4    1    6    6    0  503 -0.14376924544E+03 -0.23616029324E+03  0.71562938626E+03  0.76718100766E+03  0.00000000000E+00 0.  1.
<mgrwt>
<rscale>  0 0.15599538E+04</rscale>
<asrwt>0</asrwt>
<pdfrwt beam="1">  1        2 0.19661106E+00 0.15599538E+04</pdfrwt>
<pdfrwt beam="2">  1       -1 0.73236710E-01 0.15599538E+04</pdfrwt>
<totfact> 0.35089675E+01</totfact>
</mgrwt>
</event>
<event>
12    6  0.9533401E-008  0.1241614E+04  0.7818608E-02  0.9077192E-01
          2   -1    0    0  501    0  0.00000000000E+00  0.00000000000E+00  0.37950418283E+03  0.37950418283E+03  0.00000000000E+00 0. -1.
         -1   -1    0    0    0  501 -0.00000000000E+00 -0.00000000000E+00 -0.10155393134E+04  0.10155393134E+04  0.00000000000E+00 0.  1.
         24    2    1    2    0    0 -0.18758433255E+03 -0.22097969629E+02 -0.41750890378E+03  0.46522527966E+03  0.80278727043E+02 0.  0.
        254    2    1    2    0    0  0.18758433255E+03  0.22097969629E+02 -0.21852622679E+03  0.92981821657E+03  0.88381672420E+03 0.  0.
         23    2    4    4    0    0  0.40766609657E+03 -0.26323183902E+03 -0.26070603595E+03  0.55829758068E+03  0.90806960315E+02 0.  0.
         23    2    4    4    0    0 -0.22008176403E+03  0.28532980865E+03  0.42179809160E+02  0.37152063589E+03  0.79996025090E+02 0.  0.
          2    1    3    3  502    0 -0.46532254563E+02 -0.42034126881E+02 -0.13338856825E+03  0.14739277010E+03  0.00000000000E+00 0. -1.
         -1    1    3    3    0  502 -0.14105207798E+03  0.19936157252E+02 -0.28412033554E+03  0.31783250956E+03  0.00000000000E+00 0.  1.
         11    1    5    5    0    0  0.21339615193E+03 -0.12177419241E+03 -0.82716308788E+02  0.25924671519E+03  0.00000000000E+00 0. -1.
        -11    1    5    5    0    0  0.19426994464E+03 -0.14145764661E+03 -0.17798972716E+03  0.29905086549E+03  0.00000000000E+00 0.  1.
          3    1    6    6  503    0 -0.14307848315E+03  0.16976279947E+03 -0.12274702300E+02  0.22235451140E+03  0.00000000000E+00 0. -1.
         -3    1    6    6    0  503 -0.77003280882E+02  0.11556700918E+03  0.54454511460E+02  0.14916612449E+03  0.00000000000E+00 0.  1.
<mgrwt>
<rscale>  0 0.12416141E+04</rscale>
<asrwt>0</asrwt>
<pdfrwt beam="1">  1        2 0.58385259E-01 0.12416141E+04</pdfrwt>
<pdfrwt beam="2">  1       -1 0.15623682E+00 0.12416141E+04</pdfrwt>
<totfact> 0.29676108E+01</totfact>
</mgrwt>
</event>
<event>
12    6  0.9533401E-008  0.1382551E+04  0.7818608E-02  0.8966547E-01
          2   -1    0    0  501    0  0.00000000000E+00  0.00000000000E+00  0.25307374939E+04  0.25307374939E+04  0.00000000000E+00 0. -1.
         -1   -1    0    0    0  501 -0.00000000000E+00 -0.00000000000E+00 -0.18882312862E+03  0.18882312862E+03  0.00000000000E+00 0.  1.
         24    2    1    2    0    0  0.35122821941E+02  0.38539112079E+03  0.71471529379E+03  0.81674194135E+03  0.80557550712E+02 0.  0.
        254    2    1    2    0    0 -0.35122821941E+02 -0.38539112079E+03  0.16271990715E+04  0.19028186812E+04  0.90729388102E+03 0.  0.
         23    2    4    4    0    0  0.38599066453E+03 -0.37997741472E+03  0.10200439764E+04  0.11585567732E+04  0.91610337969E+02 0.  0.
         23    2    4    4    0    0 -0.42111348647E+03 -0.54137060758E+01  0.60715509507E+03  0.74426190800E+03  0.89008996939E+02 0.  0.
          4    1    3    3  502    0  0.28063747244E+02  0.29945526341E+03  0.61712792226E+03  0.68651868229E+03  0.00000000000E+00 0. -1.
         -3    1    3    3    0  502  0.70590746974E+01  0.85935857379E+02  0.97587371528E+02  0.13022325906E+03  0.00000000000E+00 0.  1.
         11    1    5    5    0    0  0.20381577402E+03 -0.13932356264E+03  0.48633271072E+03  0.54540941536E+03  0.00000000000E+00 0.  1.
        -11    1    5    5    0    0  0.18217489051E+03 -0.24065385208E+03  0.53371126569E+03  0.61314735780E+03  0.00000000000E+00 0. -1.
          1    1    6    6  503    0 -0.15566039443E+03  0.23032762490E+02  0.28785192757E+03  0.32805395707E+03  0.00000000000E+00 0. -1.
         -1    1    6    6    0  503 -0.26545309204E+03 -0.28446468566E+02  0.31930316750E+03  0.41620795094E+03  0.00000000000E+00 0.  1.
<mgrwt>
<rscale>  0 0.13825509E+04</rscale>
<asrwt>0</asrwt>
<pdfrwt beam="1">  1        2 0.38934421E+00 0.13825509E+04</pdfrwt>
<pdfrwt beam="2">  1       -1 0.29049714E-01 0.13825509E+04</pdfrwt>
<totfact> 0.40199237E+01</totfact>
</mgrwt>
</event>
<event>
12    6  0.9533401E-008  0.1671581E+04  0.7818608E-02  0.8777741E-01
         -3   -1    0    0    0  501 -0.00000000000E+00  0.00000000000E+00  0.88583508075E+03  0.88583508075E+03  0.00000000000E+00 0.  1.
          4   -1    0    0  501    0  0.00000000000E+00 -0.00000000000E+00 -0.78857336590E+03  0.78857336590E+03  0.00000000000E+00 0. -1.
         24    2    1    2    0    0  0.74139261801E+02 -0.23391913726E+01 -0.54737255764E+03  0.55808608238E+03  0.79632006988E+02 0.  0.
        254    2    1    2    0    0 -0.74139261801E+02  0.23391913726E+01  0.64463427249E+03  0.11163223643E+04  0.90836125728E+03 0.  0.
         23    2    4    4    0    0  0.23351517024E+02  0.29943894058E+02  0.85794841267E+03  0.86318770711E+03  0.87037973149E+02 0.  0.
         23    2    4    4    0    0 -0.97490778824E+02 -0.27604702686E+02 -0.21331414018E+03  0.25313465715E+03  0.91146918129E+02 0.  0.
          4    1    3    3  502    0  0.81998696047E+02 -0.18778009921E+02 -0.35403099791E+03  0.36388782240E+03  0.00000000000E+00 0. -1.
         -3    1    3    3    0  502 -0.78594342466E+01  0.16438818548E+02 -0.19334155973E+03  0.19419825999E+03  0.00000000000E+00 0.  1.
         11    1    5    5    0    0  0.14118824093E+02 -0.19695831383E+02  0.59158022335E+03  0.59207636976E+03  0.00000000000E+00 0. -1.
        -11    1    5    5    0    0  0.92326929306E+01  0.49639725442E+02  0.26636818932E+03  0.27111133735E+03  0.00000000000E+00 0.  1.
          3    1    6    6  503    0 -0.65297719936E+02  0.19623640314E+02 -0.16413122152E+03  0.17772995629E+03  0.00000000000E+00 0. -1.
         -3    1    6    6    0  503 -0.32193058888E+02 -0.47228343000E+02 -0.49182918664E+02  0.75404700858E+02  0.00000000000E+00 0.  1.
<mgrwt>
<rscale>  0 0.16715812E+04</rscale>
<asrwt>0</asrwt>
<pdfrwt beam="1">  1        4 0.12131898E+00 0.16715812E+04</pdfrwt>
<pdfrwt beam="2">  1       -3 0.13628232E+00 0.16715812E+04</pdfrwt>
<totfact> 0.46344813E-01</totfact>
</mgrwt>
</event>
<event>
12    6  0.9533401E-008  0.1994610E+04  0.7818608E-02  0.8609145E-01
         -1   -1    0    0    0  501 -0.00000000000E+00  0.00000000000E+00  0.66911059310E+03  0.66911059310E+03  0.00000000000E+00 0.  1.
          2   -1    0    0  501    0  0.00000000000E+00 -0.00000000000E+00 -0.14864764160E+04  0.14864764160E+04  0.00000000000E+00 0. -1.
         24    2    1    2    0    0 -0.30234557031E+03 -0.95049448895E+02 -0.11127053191E+04  0.11597367485E+04  0.80180777917E+02 0.  0.
        254    2    1    2    0    0  0.30234557031E+03  0.95049448895E+02  0.29533949622E+03  0.99585026053E+03  0.89668560920E+03 0.  0.
         23    2    4    4    0    0  0.33639834103E+03 -0.15350094598E+03  0.52092812601E+03  0.64583888004E+03  0.94949261384E+02 0.  0.
         23    2    4    4    0    0 -0.34052770720E+02  0.24855039488E+03 -0.22558862979E+03  0.35001138049E+03  0.93171060926E+02 0.  0.
          2    1    3    3  502    0 -0.27583878693E+03 -0.10825148602E+03 -0.10349031035E+04  0.10764895979E+04  0.00000000000E+00 0. -1.
         -1    1    3    3    0  502 -0.26506783376E+02  0.13202037130E+02 -0.77802215553E+02  0.83247150667E+02  0.00000000000E+00 0.  1.
         11    1    5    5    0    0  0.16869548659E+03 -0.12488957297E+03  0.25683430591E+03  0.33169177458E+03  0.00000000000E+00 0. -1.
        -11    1    5    5    0    0  0.16770285444E+03 -0.28611373013E+02  0.26409382010E+03  0.31414710546E+03  0.00000000000E+00 0.  1.
          2    1    6    6  503    0 -0.51611594051E+01  0.11629959384E+03 -0.46127541307E+02  0.12521973950E+03  0.00000000000E+00 0. -1.
         -2    1    6    6    0  503 -0.28891611315E+02  0.13225080104E+03 -0.17946108848E+03  0.22479164099E+03  0.00000000000E+00 0.  1.
<mgrwt>
<rscale>  0 0.19946099E+04</rscale>
<asrwt>0</asrwt>
<pdfrwt beam="1">  1        2 0.22868868E+00 0.19946099E+04</pdfrwt>
<pdfrwt beam="2">  1       -1 0.10294009E+00 0.19946099E+04</pdfrwt>
<totfact> 0.12197957E+01</totfact>
</mgrwt>
</event>
<event>
12    6  0.9533401E-008  0.2483517E+04  0.7818608E-02  0.8408881E-01
          2   -1    0    0  501    0  0.00000000000E+00  0.00000000000E+00  0.21034140698E+04  0.21034140698E+04  0.00000000000E+00 0. -1.
         -1   -1    0    0    0  501 -0.00000000000E+00 -0.00000000000E+00 -0.73307704960E+03  0.73307704960E+03  0.00000000000E+00 0.  1.
         24    2    1    2    0    0  0.48163744964E+03 -0.91905491186E+03  0.94241863084E+03  0.14037988981E+04  0.76563088837E+02 0.  0.
        254    2    1    2    0    0 -0.48163744964E+03  0.91905491186E+03  0.42791838935E+03  0.14326922213E+04  0.89042478017E+03 0.  0.
         23    2    4    4    0    0 -0.63960226927E+03  0.69699417079E+03  0.42585783659E+02  0.95151642172E+03  0.93155863285E+02 0.  0.
         23    2    4    4    0    0  0.15796481963E+03  0.22206074107E+03  0.38533260569E+03  0.48117579959E+03  0.93728736970E+02 0.  0.
          4    1    3    3  502    0  0.24387397873E+03 -0.52002902716E+03  0.48261586307E+03  0.75021515439E+03  0.00000000000E+00 0. -1.
         -3    1    3    3    0  502  0.23776347091E+03 -0.39902588471E+03  0.45980276777E+03  0.65358374369E+03  0.00000000000E+00 0.  1.
         11    1    5    5    0    0 -0.20087108818E+03  0.22619106875E+03 -0.29549285834E+02  0.30394860411E+03  0.00000000000E+00 0.  1.
        -11    1    5    5    0    0 -0.43873118108E+03  0.47080310204E+03  0.72135069493E+02  0.64756781761E+03  0.00000000000E+00 0. -1.
          1    1    6    6  503    0  0.13340527831E+03  0.14076134207E+03  0.20700749132E+03  0.28365969958E+03  0.00000000000E+00 0. -1.
         -1    1    6    6    0  503  0.24559541324E+02  0.81299398994E+02  0.17832511437E+03  0.19751610001E+03  0.00000000000E+00 0.  1.
<mgrwt>
<rscale>  0 0.24835173E+04</rscale>
<asrwt>0</asrwt>
<pdfrwt beam="1">  1        2 0.32360216E+00 0.24835173E+04</pdfrwt>
<pdfrwt beam="2">  1       -1 0.11278109E+00 0.24835173E+04</pdfrwt>
<totfact> 0.42746799E+00</totfact>
</mgrwt>
</event>
<event>
12    6  0.9533401E-008  0.1269142E+04  0.7818608E-02  0.9054400E-01
          2   -1    0    0  501    0  0.00000000000E+00  0.00000000000E+00  0.10465281214E+04  0.10465281214E+04  0.00000000000E+00 0. -1.
         -1   -1    0    0    0  501 -0.00000000000E+00 -0.00000000000E+00 -0.38477729871E+03  0.38477729871E+03  0.00000000000E+00 0.  1.
         24    2    1    2    0    0 -0.24039912887E+02  0.19826360742E+03  0.44908347425E+03  0.49749783829E+03  0.77082791988E+02 0.  0.
        254    2    1    2    0    0  0.24039912887E+02 -0.19826360742E+03  0.21266734846E+03  0.93380758184E+03  0.88706415966E+03 0.  0.
         23    2    4    4    0    0  0.26507499332E+03 -0.43457364811E+03  0.26199798415E+03  0.57938568112E+03  0.89027052472E+02 0.  0.
         23    2    4    4    0    0 -0.24103508044E+03  0.23631004068E+03 -0.49330635687E+02  0.35442190072E+03  0.96130259363E+02 0.  0.
          4    1    3    3  502    0 -0.22902482532E+02  0.69144607302E+02  0.24842747566E+03  0.25888551734E+03  0.00000000000E+00 0. -1.
         -3    1    3    3    0  502 -0.11374303556E+01  0.12911900012E+03  0.20065599858E+03  0.23861232095E+03  0.00000000000E+00 0.  1.
         11    1    5    5    0    0  0.52133110765E+02 -0.16045659375E+03  0.69450773961E+02  0.18244886878E+03  0.00000000000E+00 0.  1.
        -11    1    5    5    0    0  0.21294188256E+03 -0.27411705436E+03  0.19254721019E+03  0.39693681234E+03  0.00000000000E+00 0. -1.
          2    1    6    6  503    0 -0.18019473499E+03  0.11713729221E+03 -0.10856360140E+02  0.21519560474E+03  0.00000000000E+00 0. -1.
         -2    1    6    6    0  503 -0.60840345441E+02  0.11917274848E+03 -0.38474275548E+02  0.13922629598E+03  0.00000000000E+00 0.  1.
<mgrwt>
<rscale>  0 0.12691419E+04</rscale>
<asrwt>0</asrwt>
<pdfrwt beam="1">  1        2 0.16100433E+00 0.12691419E+04</pdfrwt>
<pdfrwt beam="2">  1       -1 0.59196508E-01 0.12691419E+04</pdfrwt>
<totfact> 0.76243664E+01</totfact>
</mgrwt>
</event>
<event>
12    6  0.9533401E-008  0.2495067E+04  0.7818608E-02  0.8404745E-01
          2   -1    0    0  501    0  0.00000000000E+00  0.00000000000E+00  0.28002649467E+04  0.28002649467E+04  0.00000000000E+00 0. -1.
         -1   -1    0    0    0  501 -0.00000000000E+00 -0.00000000000E+00 -0.55578290400E+03  0.55578290400E+03  0.00000000000E+00 0.  1.
         24    2    1    2    0    0  0.23875753816E+02  0.68342358507E+03 -0.15250841052E+03  0.70525693910E+03  0.80564797615E+02 0.  0.
        254    2    1    2    0    0 -0.23875753816E+02 -0.68342358507E+03  0.23969904533E+04  0.26507909116E+04  0.90193756767E+03 0.  0.
         23    2    4    4    0    0 -0.35371401543E+03 -0.31156870978E+03  0.52320368841E+03  0.71004158908E+03  0.90709938999E+02 0.  0.
         23    2    4    4    0    0  0.32983826162E+03 -0.37185487530E+03  0.18737867648E+04  0.19407493226E+04  0.91442691332E+02 0.  0.
          4    1    3    3  502    0 -0.22091181559E+01  0.14684075342E+01 -0.69690734840E+01  0.74568363894E+01  0.00000000000E+00 0. -1.
         -3    1    3    3    0  502  0.26084871972E+02  0.68195517754E+03 -0.14553933704E+03  0.69780010271E+03  0.00000000000E+00 0.  1.
         11    1    5    5    0    0 -0.25079822147E+03 -0.23522555416E+03  0.43496168337E+03  0.55445691917E+03  0.00000000000E+00 0. -1.
        -11    1    5    5    0    0 -0.10291579396E+03 -0.76343155623E+02  0.88242005048E+02  0.15558466991E+03  0.00000000000E+00 0.  1.
          4    1    6    6  503    0  0.57749429277E+02 -0.37793559377E+02  0.37351369196E+03  0.37983658038E+03  0.00000000000E+00 0. -1.
         -4    1    6    6    0  503  0.27208883234E+03 -0.33406131592E+03  0.15002730729E+04  0.15609127422E+04  0.00000000000E+00 0.  1.
<mgrwt>
<rscale>  0 0.24950666E+04</rscale>
<asrwt>0</asrwt>
<pdfrwt beam="1">  1        2 0.43080998E+00 0.24950666E+04</pdfrwt>
<pdfrwt beam="2">  1       -1 0.85505064E-01 0.24950666E+04</pdfrwt>
<totfact> 0.31701085E+00</totfact>
</mgrwt>
</event>
<event>
12    6  0.9533401E-008  0.1701725E+04  0.7818608E-02  0.8760381E-01
          2   -1    0    0  501    0  0.00000000000E+00  0.00000000000E+00  0.32168600240E+04  0.32168600240E+04  0.00000000000E+00 0. -1.
         -3   -1    0    0    0  501 -0.00000000000E+00 -0.00000000000E+00 -0.22505387222E+03  0.22505387222E+03  0.00000000000E+00 0.  1.
         24    2    1    2    0    0  0.40951938301E+02 -0.41125684011E+03  0.17628248548E+03  0.45638036698E+03  0.79989217337E+02 0.  0.
        254    2    1    2    0    0 -0.40951938301E+02  0.41125684011E+03  0.28155236663E+04  0.29855335292E+04  0.90301034818E+03 0.  0.
         23    2    4    4    0    0 -0.43642667972E+03  0.28980340634E+03  0.19550996164E+04  0.20262625448E+04  0.94186674192E+02 0.  0.
         23    2    4    4    0    0  0.39547474142E+03  0.12145343377E+03  0.86042404993E+03  0.95927098440E+03  0.93381305095E+02 0.  0.
          4    1    3    3  502    0  0.10862099002E+02 -0.19156641297E+03  0.12432962767E+03  0.22863405716E+03  0.00000000000E+00 0. -1.
         -3    1    3    3    0  502  0.30089839299E+02 -0.21969042714E+03  0.51952857810E+02  0.22774630983E+03  0.00000000000E+00 0.  1.
         11    1    5    5    0    0 -0.20905674153E+03  0.13830537212E+03  0.11158861180E+04  0.11436935453E+04  0.00000000000E+00 0. -1.
        -11    1    5    5    0    0 -0.22736993818E+03  0.15149803422E+03  0.83921349835E+03  0.88256899955E+03  0.00000000000E+00 0.  1.
          1    1    6    6  503    0  0.37007416626E+03  0.87673043772E+02  0.74730901370E+03  0.83851786689E+03  0.00000000000E+00 0. -1.
         -1    1    6    6    0  503  0.25400575151E+02  0.33780389998E+02  0.11311503623E+03  0.12075311751E+03  0.00000000000E+00 0.  1.
<mgrwt>
<rscale>  0 0.17017248E+04</rscale>
<asrwt>0</asrwt>
<pdfrwt beam="1">  1        2 0.49490151E+00 0.17017248E+04</pdfrwt>
<pdfrwt beam="2">  1       -3 0.34623675E-01 0.17017248E+04</pdfrwt>
<totfact> 0.64776683E+00</totfact>
</mgrwt>
</event>
<event>
12    6  0.9533401E-008  0.1369674E+04  0.7818608E-02  0.8976068E-01
          2   -1    0    0  501    0  0.00000000000E+00  0.00000000000E+00  0.10212685896E+04  0.10212685896E+04  0.00000000000E+00 0. -1.
         -1   -1    0    0    0  501 -0.00000000000E+00 -0.00000000000E+00 -0.45923425155E+03  0.45923425155E+03  0.00000000000E+00 0.  1.
         24    2    1    2    0    0  0.28768593833E+02 -0.17808804757E+02  0.56483978721E+03  0.57167265174E+03  0.81368605828E+02 0.  0.
        254    2    1    2    0    0 -0.28768593833E+02  0.17808804757E+02 -0.28054491406E+01  0.90883018943E+03  0.90819582534E+03 0.  0.
         23    2    4    4    0    0  0.11708700732E+03  0.37513898729E+03 -0.21674257947E+03  0.45812816542E+03  0.92007842781E+02 0.  0.
         23    2    4    4    0    0 -0.14585560116E+03 -0.35733018253E+03  0.21393713033E+03  0.45070202401E+03  0.91676076367E+02 0.  0.
          2    1    3    3  502    0 -0.14189921388E+02 -0.14793686359E+02  0.42163237373E+03  0.42213038933E+03  0.00000000000E+00 0. -1.
         -3    1    3    3    0  502  0.42958515221E+02 -0.30151183988E+01  0.14320741349E+03  0.14954226241E+03  0.00000000000E+00 0.  1.
         11    1    5    5    0    0  0.12514503599E+03  0.37163748153E+03 -0.20236634902E+03  0.44127977172E+03  0.00000000000E+00 0. -1.
        -11    1    5    5    0    0 -0.80580286675E+01  0.35015057548E+01 -0.14376230446E+02  0.16848393703E+02  0.00000000000E+00 0.  1.
          1    1    6    6  503    0 -0.13894947828E+03 -0.34800142631E+03  0.22293286871E+03  0.43601721776E+03  0.00000000000E+00 0. -1.
         -1    1    6    6    0  503 -0.69061228780E+01 -0.93287562169E+01 -0.89957383781E+01  0.14684806254E+02  0.00000000000E+00 0.  1.
<mgrwt>
<rscale>  0 0.13696737E+04</rscale>
<asrwt>0</asrwt>
<pdfrwt beam="1">  1        2 0.15711824E+00 0.13696737E+04</pdfrwt>
<pdfrwt beam="2">  1       -1 0.70651423E-01 0.13696737E+04</pdfrwt>
<totfact> 0.54993349E+01</totfact>
</mgrwt>
</event>
<event>
12    6  0.9533401E-008  0.1196271E+04  0.7818608E-02  0.9116126E-01
          2   -1    0    0  501    0  0.00000000000E+00  0.00000000000E+00  0.78012915326E+03  0.78012915326E+03  0.00000000000E+00 0. -1.
         -1   -1    0    0    0  501 -0.00000000000E+00 -0.00000000000E+00 -0.45859884010E+03  0.45859884010E+03  0.00000000000E+00 0.  1.
         24    2    1    2    0    0  0.17596985933E+03 -0.36861998776E+02 -0.92711728163E+02  0.22414760626E+03  0.96553024314E+02 0.  0.
        254    2    1    2    0    0 -0.17596985933E+03  0.36861998776E+02  0.41424204132E+03  0.10145803871E+04  0.90854427232E+03 0.  0.
         23    2    4    4    0    0 -0.12852111588E+03  0.37823063523E+03  0.49926737568E+03  0.64700494358E+03  0.98850361425E+02 0.  0.
         23    2    4    4    0    0 -0.47448743451E+02 -0.34136863645E+03 -0.85025334352E+02  0.36757544353E+03  0.95385900405E+02 0.  0.
          2    1    3    3  502    0  0.82838949584E+02 -0.46278758039E+02 -0.36768147306E+01  0.94960697029E+02  0.00000000000E+00 0. -1.
         -1    1    3    3    0  502  0.93130909748E+02  0.94167592623E+01 -0.89034913433E+02  0.12918690923E+03  0.00000000000E+00 0.  1.
         11    1    5    5    0    0 -0.85893215583E+02  0.10827148256E+03  0.16986006618E+03  0.21898127888E+03  0.00000000000E+00 0.  1.
        -11    1    5    5    0    0 -0.42627900298E+02  0.26995915267E+03  0.32940730950E+03  0.42802366470E+03  0.00000000000E+00 0. -1.
          2    1    6    6  503    0 -0.74385206631E+02 -0.19390545048E+03 -0.47477942805E+02  0.21304139914E+03  0.00000000000E+00 0. -1.
         -2    1    6    6    0  503  0.26936463181E+02 -0.14746318596E+03 -0.37547391547E+02  0.15453404439E+03  0.00000000000E+00 0.  1.
<mgrwt>
<rscale>  0 0.11962714E+04</rscale>
<asrwt>0</asrwt>
<pdfrwt beam="1">  1        2 0.12001987E+00 0.11962714E+04</pdfrwt>
<pdfrwt beam="2">  1       -1 0.70553668E-01 0.11962714E+04</pdfrwt>
<totfact> 0.81497923E+01</totfact>
</mgrwt>
</event>
<event>
12    6  0.9533401E-008  0.1098012E+04  0.7818608E-02  0.9207131E-01
         -1   -1    0    0    0  501 -0.00000000000E+00  0.00000000000E+00  0.17949632834E+03  0.17949632834E+03  0.00000000000E+00 0.  1.
          2   -1    0    0  501    0  0.00000000000E+00 -0.00000000000E+00 -0.16791861367E+04  0.16791861367E+04  0.00000000000E+00 0. -1.
         24    2    1    2    0    0 -0.10662383307E+03 -0.41939321700E+02 -0.47467917208E+02  0.14749990141E+03  0.79846535732E+02 0.  0.
        254    2    1    2    0    0  0.10662383307E+03  0.41939321700E+02 -0.14522218912E+04  0.17111825637E+04  0.89781389856E+03 0.  0.
         23    2    4    4    0    0  0.12559228546E+03 -0.40697537247E+03 -0.56900962319E+03  0.71622539744E+03  0.88343039796E+02 0.  0.
         23    2    4    4    0    0 -0.18968452387E+02  0.44891469417E+03 -0.88321226798E+03  0.99495716622E+03  0.89396014800E+02 0.  0.
          4    1    3    3  502    0 -0.99040927418E+01  0.13288480500E+02 -0.30672568740E+02  0.34863752526E+02  0.00000000000E+00 0. -1.
         -3    1    3    3    0  502 -0.96719740329E+02 -0.55227802200E+02 -0.16795348468E+02  0.11263614888E+03  0.00000000000E+00 0.  1.
         11    1    5    5    0    0  0.35930919201E+02 -0.96933502443E+02 -0.20602142115E+03  0.23050371109E+03  0.00000000000E+00 0.  1.
        -11    1    5    5    0    0  0.89661366256E+02 -0.31004187003E+03 -0.36298820204E+03  0.48572168635E+03  0.00000000000E+00 0. -1.
          3    1    6    6  503    0  0.22907203462E+02  0.33398671701E+03 -0.67549710601E+03  0.75390198789E+03  0.00000000000E+00 0. -1.
         -3    1    6    6    0  503 -0.41875655849E+02  0.11492797716E+03 -0.20771516198E+03  0.24105517833E+03  0.00000000000E+00 0.  1.
<mgrwt>
<rscale>  0 0.10980123E+04</rscale>
<asrwt>0</asrwt>
<pdfrwt beam="1">  1        2 0.25833634E+00 0.10980123E+04</pdfrwt>
<pdfrwt beam="2">  1       -1 0.27614818E-01 0.10980123E+04</pdfrwt>
<totfact> 0.13437920E+02</totfact>
</mgrwt>
</event>
<event>
12    6  0.9533401E-008  0.1724760E+04  0.7818608E-02  0.8747367E-01
          2   -1    0    0  501    0  0.00000000000E+00  0.00000000000E+00  0.17504984828E+04  0.17504984828E+04  0.00000000000E+00 0. -1.
         -1   -1    0    0    0  501 -0.00000000000E+00 -0.00000000000E+00 -0.42485010816E+03  0.42485010816E+03  0.00000000000E+00 0.  1.
         24    2    1    2    0    0 -0.27118551285E+03 -0.46747295356E+03  0.88163088804E+03  0.10370706979E+04  0.78549760854E+02 0.  0.
        254    2    1    2    0    0  0.27118551285E+03  0.46747295356E+03  0.44401748663E+03  0.11382778931E+04  0.89802699784E+03 0.  0.
         23    2    4    4    0    0  0.19858101252E+03  0.68076893409E+03  0.51920259060E+03  0.88362155680E+03  0.91296031614E+02 0.  0.
         23    2    4    4    0    0  0.72604500333E+02 -0.21329598053E+03 -0.75185103972E+02  0.25465633633E+03  0.91817541867E+02 0.  0.
          2    1    3    3  502    0 -0.22023888791E+03 -0.38558809055E+03  0.77575386400E+03  0.89385535790E+03  0.00000000000E+00 0. -1.
         -1    1    3    3    0  502 -0.50946624948E+02 -0.81884863009E+02  0.10587702403E+03  0.14321533997E+03  0.00000000000E+00 0.  1.
         11    1    5    5    0    0  0.14343212011E+03  0.41120785121E+03  0.36485937598E+03  0.56814349791E+03  0.00000000000E+00 0.  1.
        -11    1    5    5    0    0  0.55148892407E+02  0.26956108288E+03  0.15434321462E+03  0.31547805888E+03  0.00000000000E+00 0. -1.
          4    1    6    6  503    0  0.17505177059E+00  0.88845163181E+01  0.80683880775E+00  0.89227945281E+01  0.00000000000E+00 0. -1.
         -4    1    6    6    0  503  0.72429448563E+02 -0.22218049685E+03 -0.75991942779E+02  0.24573354180E+03  0.00000000000E+00 0.  1.
<mgrwt>
<rscale>  0 0.17247602E+04</rscale>
<asrwt>0</asrwt>
<pdfrwt beam="1">  1        2 0.26930746E+00 0.17247602E+04</pdfrwt>
<pdfrwt beam="2">  1       -1 0.65361556E-01 0.17247602E+04</pdfrwt>
<totfact> 0.23597261E+01</totfact>
</mgrwt>
</event>
<event>
12    6  0.9533401E-008  0.1698790E+04  0.7818608E-02  0.8762055E-01
         -1   -1    0    0    0  501 -0.00000000000E+00  0.00000000000E+00  0.65228745076E+03  0.65228745076E+03  0.00000000000E+00 0.  1.
          2   -1    0    0  501    0  0.00000000000E+00 -0.00000000000E+00 -0.11060639784E+04  0.11060639784E+04  0.00000000000E+00 0. -1.
         24    2    1    2    0    0 -0.88984482228E+02  0.14231425842E+03  0.43680392332E+03  0.47542542204E+03  0.84024271897E+02 0.  0.
        254    2    1    2    0    0  0.88984482228E+02 -0.14231425842E+03 -0.89058045096E+03  0.12829260071E+04  0.90807159074E+03 0.  0.
         23    2    4    4    0    0 -0.12226612196E+03 -0.47292270575E+03 -0.62431854149E+03  0.79884829155E+03  0.98894193345E+02 0.  0.
         23    2    4    4    0    0  0.21125060419E+03  0.33060844734E+03 -0.26626190947E+03  0.48407771557E+03  0.97504189961E+02 0.  0.
          4    1    3    3  502    0  0.11481141219E+02  0.11176783566E+02  0.13237263031E+02  0.20783700997E+02  0.00000000000E+00 0. -1.
         -3    1    3    3    0  502 -0.10046562345E+03  0.13113747485E+03  0.42356666028E+03  0.45464172104E+03  0.00000000000E+00 0.  1.
         11    1    5    5    0    0  0.16259318100E+02 -0.81989966792E+02 -0.10071951645E+03  0.13088598502E+03  0.00000000000E+00 0.  1.
        -11    1    5    5    0    0 -0.13852544006E+03 -0.39093273896E+03 -0.52359902503E+03  0.66796230653E+03  0.00000000000E+00 0. -1.
          4    1    6    6  503    0  0.20623104618E+03  0.32096318408E+03 -0.22832471055E+03  0.44461307155E+03  0.00000000000E+00 0. -1.
         -4    1    6    6    0  503  0.50195580020E+01  0.96452632526E+01 -0.37937198920E+02  0.39464644020E+02  0.00000000000E+00 0.  1.
<mgrwt>
<rscale>  0 0.16987897E+04</rscale>
<asrwt>0</asrwt>
<pdfrwt beam="1">  1        2 0.17016369E+00 0.16987897E+04</pdfrwt>
<pdfrwt beam="2">  1       -1 0.10035192E+00 0.16987897E+04</pdfrwt>
<totfact> 0.22168981E+01</totfact>
</mgrwt>
</event>
<event>
12    6  0.9533401E-008  0.1496743E+04  0.7818608E-02  0.8886621E-01
         -1   -1    0    0    0  501 -0.00000000000E+00  0.00000000000E+00  0.22099343459E+03  0.22099343459E+03  0.00000000000E+00 0.  1.
          2   -1    0    0  501    0  0.00000000000E+00 -0.00000000000E+00 -0.25342839979E+04  0.25342839979E+04  0.00000000000E+00 0. -1.
         24    2    1    2    0    0  0.59896290143E+02  0.10866823913E+03 -0.15773938490E+04  0.15841929479E+04  0.78099869703E+02 0.  0.
        254    2    1    2    0    0 -0.59896290143E+02 -0.10866823913E+03 -0.73589671436E+03  0.11710844846E+04  0.90249573079E+03 0.  0.
         23    2    4    4    0    0  0.98604506643E+02  0.18951377425E+03 -0.78357523073E+03  0.81723275700E+03  0.90779499600E+02 0.  0.
         23    2    4    4    0    0 -0.15850079679E+03 -0.29818201338E+03  0.47678516364E+02  0.35385172760E+03  0.94354589273E+02 0.  0.
          2    1    3    3  502    0  0.66480410786E+02  0.41690213081E+02 -0.93300999196E+03  0.93630409803E+03  0.00000000000E+00 0. -1.
         -1    1    3    3    0  502 -0.65841206432E+01  0.66978026049E+02 -0.64438385699E+03  0.64788884986E+03  0.00000000000E+00 0.  1.
         11    1    5    5    0    0  0.29862692586E+02  0.10609613201E+02 -0.21261587699E+03  0.21496477723E+03  0.00000000000E+00 0. -1.
        -11    1    5    5    0    0  0.68741814057E+02  0.17890416105E+03 -0.57095935374E+03  0.60226797977E+03  0.00000000000E+00 0.  1.
          2    1    6    6  503    0 -0.75004956093E+02 -0.11784850086E+03  0.65582941114E+02  0.15432153044E+03  0.00000000000E+00 0. -1.
         -2    1    6    6    0  503 -0.83495840693E+02 -0.18033351252E+03 -0.17904424750E+02  0.19953019716E+03  0.00000000000E+00 0.  1.
<mgrwt>
<rscale>  0 0.14967433E+04</rscale>
<asrwt>0</asrwt>
<pdfrwt beam="1">  1        2 0.38988980E+00 0.14967433E+04</pdfrwt>
<pdfrwt beam="2">  1       -1 0.33998994E-01 0.14967433E+04</pdfrwt>
<totfact> 0.30004269E+01</totfact>
</mgrwt>
</event>
<event>
12    6  0.9533401E-008  0.1219747E+04  0.7818608E-02  0.9095745E-01
          2   -1    0    0  501    0  0.00000000000E+00  0.00000000000E+00  0.20669332217E+04  0.20669332217E+04  0.00000000000E+00 0. -1.
         -1   -1    0    0    0  501 -0.00000000000E+00 -0.00000000000E+00 -0.17995064888E+03  0.17995064888E+03  0.00000000000E+00 0.  1.
         24    2    1    2    0    0 -0.79165689560E+02  0.20040049571E+03  0.75352147734E+03  0.78782744700E+03  0.80311296531E+02 0.  0.
        254    2    1    2    0    0  0.79165689560E+02 -0.20040049571E+03  0.11334610955E+04  0.14590564236E+04  0.89313158447E+03 0.  0.
         23    2    4    4    0    0  0.17848212824E+03  0.31191835250E+03  0.60573081192E+03  0.70990658341E+03  0.88930376869E+02 0.  0.
         23    2    4    4    0    0 -0.99316438682E+02 -0.51231884821E+03  0.52773028359E+03  0.74914984021E+03  0.10194053974E+03 0.  0.
          4    1    3    3  502    0 -0.65777779158E+02  0.61499376481E+02  0.27436956829E+03  0.28876902455E+03  0.00000000000E+00 0. -1.
         -3    1    3    3    0  502 -0.13387910401E+02  0.13890111923E+03  0.47915190905E+03  0.49905842244E+03  0.00000000000E+00 0.  1.
         11    1    5    5    0    0  0.62861707821E+02  0.47228030731E+02  0.16768679579E+03  0.18520513676E+03  0.00000000000E+00 0. -1.
        -11    1    5    5    0    0  0.11562042042E+03  0.26469032177E+03  0.43804401613E+03  0.52470144665E+03  0.00000000000E+00 0.  1.
          3    1    6    6  503    0 -0.43173959044E+02 -0.50988074510E+02  0.60102404919E+02  0.89866977020E+02  0.00000000000E+00 0. -1.
         -3    1    6    6    0  503 -0.56142479638E+02 -0.46133077370E+03  0.46762787868E+03  0.65928286319E+03  0.00000000000E+00 0.  1.
<mgrwt>
<rscale>  0 0.12197475E+04</rscale>
<asrwt>0</asrwt>
<pdfrwt beam="1">  1        2 0.31798971E+00 0.12197475E+04</pdfrwt>
<pdfrwt beam="2">  1       -1 0.27684717E-01 0.12197475E+04</pdfrwt>
<totfact> 0.80960149E+01</totfact>
</mgrwt>
</event>
<event>
12    6  0.9533401E-008  0.1896697E+04  0.7818608E-02  0.8656502E-01
          2   -1    0    0  501    0  0.00000000000E+00  0.00000000000E+00  0.48576346080E+03  0.48576346080E+03  0.00000000000E+00 0. -1.
         -1   -1    0    0    0  501 -0.00000000000E+00 -0.00000000000E+00 -0.18514464077E+04  0.18514464077E+04  0.00000000000E+00 0.  1.
         24    2    1    2    0    0  0.32504153956E+02 -0.67186689564E+03 -0.18826151520E+03  0.70301455526E+03  0.79532517422E+02 0.  0.
        254    2    1    2    0    0 -0.32504153956E+02  0.67186689564E+03 -0.11774214317E+04  0.16341953132E+04  0.91203697760E+03 0.  0.
         23    2    4    4    0    0  0.68638112476E+02 -0.20584869583E+03 -0.16682974190E+03  0.28870984484E+03  0.91849527309E+02 0.  0.
         23    2    4    4    0    0 -0.10114226643E+03  0.87771559147E+03 -0.10105916898E+04  0.13454854684E+04  0.91766903710E+02 0.  0.
          2    1    3    3  502    0 -0.80690812750E+01 -0.47886076912E+03 -0.11431173096E+03  0.49238188239E+03  0.00000000000E+00 0. -1.
         -1    1    3    3    0  502  0.40573235231E+02 -0.19300612652E+03 -0.73949784243E+02  0.21063267287E+03  0.00000000000E+00 0.  1.
         11    1    5    5    0    0  0.24643320070E+01  0.96887616908E+01 -0.93771330556E+01  0.13706774226E+02  0.00000000000E+00 0.  1.
        -11    1    5    5    0    0  0.66173780469E+02 -0.21553745752E+03 -0.15745260884E+03  0.27500307061E+03  0.00000000000E+00 0. -1.
          4    1    6    6  503    0 -0.36127869423E+02  0.12452733976E+03 -0.11341199487E+03  0.17226306010E+03  0.00000000000E+00 0.  1.
         -4    1    6    6    0  503 -0.65014397010E+02  0.75318825171E+03 -0.89717969490E+03  0.11732224083E+04  0.00000000000E+00 0. -1.
<mgrwt>
<rscale>  0 0.18966971E+04</rscale>
<asrwt>0</asrwt>
<pdfrwt beam="1">  1        2 0.74732840E-01 0.18966971E+04</pdfrwt>
<pdfrwt beam="2">  1       -1 0.28483791E+00 0.18966971E+04</pdfrwt>
<totfact> 0.28244936E+00</totfact>
</mgrwt>
</event>
<event>
12    6  0.9533401E-008  0.2374092E+04  0.7818608E-02  0.8449267E-01
          2   -1    0    0  501    0  0.00000000000E+00  0.00000000000E+00  0.13469986448E+04  0.13469986448E+04  0.00000000000E+00 0. -1.
         -1   -1    0    0    0  501 -0.00000000000E+00 -0.00000000000E+00 -0.10460877248E+04  0.10460877248E+04  0.00000000000E+00 0.  1.
         24    2    1    2    0    0 -0.88909261141E+03 -0.47399372101E+03  0.20894513694E+03  0.10320298865E+04  0.79195310397E+02 0.  0.
        254    2    1    2    0    0  0.88909261141E+03  0.47399372101E+03  0.91965782990E+02  0.13610564831E+04  0.91041821476E+03 0.  0.
         23    2    4    4    0    0  0.84438801126E+03  0.30736842008E+03 -0.27635322065E+03  0.94464862471E+03  0.92322599426E+02 0.  0.
         23    2    4    4    0    0  0.44704600146E+02  0.16662530093E+03  0.36831900364E+03  0.41640785841E+03  0.89297950242E+02 0.  0.
          2    1    3    3  502    0 -0.80465272299E+03 -0.44172108661E+03  0.16968524177E+03  0.93347555096E+03  0.00000000000E+00 0. -1.
         -1    1    3    3    0  502 -0.84439888418E+02 -0.32272634404E+02  0.39259895170E+02  0.98554335552E+02  0.00000000000E+00 0.  1.
         11    1    5    5    0    0  0.64268934916E+03  0.22810005276E+03 -0.16800279185E+03  0.70235615727E+03  0.00000000000E+00 0.  1.
        -11    1    5    5    0    0  0.20169866211E+03  0.79268367324E+02 -0.10835042880E+03  0.24229246743E+03  0.00000000000E+00 0. -1.
          2    1    6    6  503    0  0.21447707390E+02  0.10935277116E+02  0.12073466888E+02  0.26932379037E+02  0.00000000000E+00 0. -1.
         -2    1    6    6    0  503  0.23256892755E+02  0.15569002381E+03  0.35624553675E+03  0.38947547937E+03  0.00000000000E+00 0.  1.
<mgrwt>
<rscale>  0 0.23740925E+04</rscale>
<asrwt>0</asrwt>
<pdfrwt beam="1">  1        2 0.20723056E+00 0.23740925E+04</pdfrwt>
<pdfrwt beam="2">  1       -1 0.16093657E+00 0.23740925E+04</pdfrwt>
<totfact> 0.45831315E+00</totfact>
</mgrwt>
</event>
<event>
12    6  0.9533401E-008  0.1200091E+04  0.7818608E-02  0.9112777E-01
         -1   -1    0    0    0  501 -0.00000000000E+00  0.00000000000E+00  0.32061481337E+03  0.32061481337E+03  0.00000000000E+00 0.  1.
          2   -1    0    0  501    0  0.00000000000E+00 -0.00000000000E+00 -0.11230128760E+04  0.11230128760E+04  0.00000000000E+00 0. -1.
         24    2    1    2    0    0  0.18465333519E+03  0.16738680037E+03 -0.20579126328E+03  0.33321607471E+03  0.81041429362E+02 0.  0.
        254    2    1    2    0    0 -0.18465333519E+03 -0.16738680037E+03 -0.59660679932E+03  0.11104116146E+04  0.90275084367E+03 0.  0.
         23    2    4    4    0    0 -0.33076621471E+03 -0.47177737757E+02  0.11730932195E+03  0.36613502636E+03  0.93066389103E+02 0.  0.
         23    2    4    4    0    0  0.14611287952E+03 -0.12020906261E+03 -0.71391612127E+03  0.74427658825E+03  0.92044659371E+02 0.  0.
          4    1    3    3  502    0 -0.28575990418E+01  0.12211886830E+02 -0.31355808064E+02  0.33771034209E+02  0.00000000000E+00 0. -1.
         -3    1    3    3    0  502  0.18751093423E+03  0.15517491354E+03 -0.17443545521E+03  0.29944504050E+03  0.00000000000E+00 0.  1.
         11    1    5    5    0    0 -0.85383356915E+02 -0.51532008979E+02  0.50481505789E+02  0.11177767225E+03  0.00000000000E+00 0.  1.
        -11    1    5    5    0    0 -0.24538285780E+03  0.43542712216E+01  0.66827816156E+02  0.25435735411E+03  0.00000000000E+00 0. -1.
          2    1    6    6  503    0  0.10501455988E+03 -0.10301924029E+03 -0.38135921433E+03  0.40874915536E+03  0.00000000000E+00 0. -1.
         -2    1    6    6    0  503  0.41098319645E+02 -0.17189822324E+02 -0.33255690694E+03  0.33552743289E+03  0.00000000000E+00 0.  1.
<mgrwt>
<rscale>  0 0.12000909E+04</rscale>
<asrwt>0</asrwt>
<pdfrwt beam="1">  1        2 0.17277121E+00 0.12000909E+04</pdfrwt>
<pdfrwt beam="2">  1       -1 0.49325357E-01 0.12000909E+04</pdfrwt>
<totfact> 0.97694769E+01</totfact>
</mgrwt>
</event>
<event>
12    6  0.9533401E-008  0.2289580E+04  0.7818608E-02  0.8482041E-01
         -1   -1    0    0    0  501 -0.00000000000E+00  0.00000000000E+00  0.13804092832E+04  0.13804092832E+04  0.00000000000E+00 0.  1.
          2   -1    0    0  501    0  0.00000000000E+00 -0.00000000000E+00 -0.94938846189E+03  0.94938846189E+03  0.00000000000E+00 0. -1.
         24    2    1    2    0    0  0.21066264955E+03  0.58675103010E+03  0.93706234888E+03  0.11283099164E+04  0.79636038115E+02 0.  0.
        254    2    1    2    0    0 -0.21066264955E+03 -0.58675103010E+03 -0.50604152755E+03  0.12014878287E+04  0.89377818930E+03 0.  0.
         23    2    4    4    0    0 -0.48681940630E+03 -0.49501150534E+03 -0.55299650281E+03  0.89229972496E+03  0.91455684750E+02 0.  0.
         23    2    4    4    0    0  0.27615675675E+03 -0.91739524760E+02  0.46954975266E+02  0.30918810373E+03  0.93347839224E+02 0.  0.
          2    1    3    3  502    0  0.35149373402E+02  0.76442235981E+02  0.17896117347E+03  0.19775235903E+03  0.00000000000E+00 0. -1.
         -1    1    3    3    0  502  0.17551327615E+03  0.51030879412E+03  0.75810117542E+03  0.93055755739E+03  0.00000000000E+00 0.  1.
         11    1    5    5    0    0 -0.12582139133E+03 -0.83769808096E+02 -0.14773183976E+03  0.21136011862E+03  0.00000000000E+00 0. -1.
        -11    1    5    5    0    0 -0.36099801497E+03 -0.41124169724E+03 -0.40526466306E+03  0.68093960634E+03  0.00000000000E+00 0.  1.
          4    1    6    6  503    0  0.18621975851E+03 -0.41483450337E+02  0.70697097058E+02  0.20346192431E+03  0.00000000000E+00 0.  1.
         -4    1    6    6    0  503  0.89936998233E+02 -0.50256074423E+02 -0.23742121792E+02  0.10572617942E+03  0.00000000000E+00 0. -1.
<mgrwt>
<rscale>  0 0.22895804E+04</rscale>
<asrwt>0</asrwt>
<pdfrwt beam="1">  1        2 0.14605976E+00 0.22895804E+04</pdfrwt>
<pdfrwt beam="2">  1       -1 0.21237066E+00 0.22895804E+04</pdfrwt>
<totfact> 0.34836756E+00</totfact>
</mgrwt>
</event>
<event>
12    6  0.9533401E-008  0.1165901E+04  0.7818608E-02  0.9143239E-01
          2   -1    0    0  501    0  0.00000000000E+00  0.00000000000E+00  0.80039604757E+03  0.80039604757E+03  0.00000000000E+00 0. -1.
         -1   -1    0    0    0  501 -0.00000000000E+00 -0.00000000000E+00 -0.42457865751E+03  0.42457865751E+03  0.00000000000E+00 0.  1.
         24    2    1    2    0    0  0.21384216709E+03  0.32536658183E+02  0.13525692621E+03  0.26752572330E+03  0.80551039657E+02 0.  0.
        254    2    1    2    0    0 -0.21384216709E+03 -0.32536658183E+02  0.24056046386E+03  0.95744898178E+03  0.90113933961E+03 0.  0.
         23    2    4    4    0    0  0.33610307201E+03  0.27898185258E+02  0.17859464861E+03  0.39157955198E+03  0.87720654722E+02 0.  0.
         23    2    4    4    0    0 -0.54994523909E+03 -0.60434843441E+02  0.61965815247E+02  0.56586942980E+03  0.10137215107E+03 0.  0.
          2    1    3    3  502    0  0.72099973098E+02  0.27723451173E+02  0.90113303142E+02  0.11869036721E+03  0.00000000000E+00 0. -1.
         -1    1    3    3    0  502  0.14174219399E+03  0.48132070105E+01  0.45143623067E+02  0.14883535609E+03  0.00000000000E+00 0.  1.
         11    1    5    5    0    0  0.39099329325E+02 -0.23867229761E+00  0.57658623775E+02  0.69665855437E+02  0.00000000000E+00 0.  1.
        -11    1    5    5    0    0  0.29700374268E+03  0.28136857555E+02  0.12093602483E+03  0.32191369654E+03  0.00000000000E+00 0. -1.
          1    1    6    6  503    0 -0.44628400256E+03 -0.83161482641E+02  0.70481939380E+02  0.45940499226E+03  0.00000000000E+00 0. -1.
         -1    1    6    6    0  503 -0.10366123653E+03  0.22726639200E+02 -0.85161241328E+01  0.10646443753E+03  0.00000000000E+00 0.  1.
<mgrwt>
<rscale>  0 0.11659006E+04</rscale>
<asrwt>0</asrwt>
<pdfrwt beam="1">  1        2 0.12313785E+00 0.11659006E+04</pdfrwt>
<pdfrwt beam="2">  1       -1 0.65319794E-01 0.11659006E+04</pdfrwt>
<totfact> 0.92353358E+01</totfact>
</mgrwt>
</event>
<event>
12    6  0.9533401E-008  0.1995348E+04  0.7818608E-02  0.8608799E-01
         -1   -1    0    0    0  501 -0.00000000000E+00  0.00000000000E+00  0.92258394293E+03  0.92258394293E+03  0.00000000000E+00 0.  1.
          2   -1    0    0  501    0  0.00000000000E+00 -0.00000000000E+00 -0.10788758319E+04  0.10788758319E+04  0.00000000000E+00 0. -1.
         24    2    1    2    0    0 -0.58979522147E+03 -0.34907776073E+03  0.32915040428E+03  0.76498412483E+03  0.84540146054E+02 0.  0.
        254    2    1    2    0    0  0.58979522147E+03  0.34907776073E+03 -0.48544229321E+03  0.12364756500E+04  0.90747128142E+03 0.  0.
         23    2    4    4    0    0  0.20284161525E+02 -0.59078032923E+02 -0.51767066902E+03  0.52917673881E+03  0.90241000389E+02 0.  0.
         23    2    4    4    0    0  0.56951105995E+03  0.40815579366E+03  0.32228375803E+02  0.70729891115E+03  0.91099298659E+02 0.  0.
          4    1    3    3  502    0 -0.12800495968E+03 -0.11168510551E+03  0.10275928193E+03  0.19854043044E+03  0.00000000000E+00 0. -1.
         -3    1    3    3    0  502 -0.46179026179E+03 -0.23739265522E+03  0.22639112236E+03  0.56644369439E+03  0.00000000000E+00 0.  1.
         11    1    5    5    0    0  0.17577551969E+02 -0.22141202538E+02 -0.34565246986E+02  0.44653773438E+02  0.00000000000E+00 0. -1.
        -11    1    5    5    0    0  0.27066095563E+01 -0.36936830385E+02 -0.48310542203E+03  0.48452296537E+03  0.00000000000E+00 0.  1.
          1    1    6    6  503    0  0.33516801763E+03  0.19183097989E+03 -0.49527116952E+01  0.38621400058E+03  0.00000000000E+00 0. -1.
         -1    1    6    6    0  503  0.23434304231E+03  0.21632481377E+03  0.37181087499E+02  0.32108491058E+03  0.00000000000E+00 0.  1.
<mgrwt>
<rscale>  0 0.19953481E+04</rscale>
<asrwt>0</asrwt>
<pdfrwt beam="1">  1        2 0.16598090E+00 0.19953481E+04</pdfrwt>
<pdfrwt beam="2">  1       -1 0.14193599E+00 0.19953481E+04</pdfrwt>
<totfact> 0.96234095E+00</totfact>
</mgrwt>
</event>
<event>
12    6  0.9533401E-008  0.1504064E+04  0.7818608E-02  0.8881755E-01
          2   -1    0    0  501    0  0.00000000000E+00  0.00000000000E+00  0.49987751461E+03  0.49987751461E+03  0.00000000000E+00 0. -1.
         -1   -1    0    0    0  501 -0.00000000000E+00 -0.00000000000E+00 -0.11313820239E+04  0.11313820239E+04  0.00000000000E+00 0.  1.
         24    2    1    2    0    0  0.26183451131E+03  0.33667862189E+03 -0.42894315250E+03  0.61005841711E+03  0.79178522692E+02 0.  0.
        254    2    1    2    0    0 -0.26183451131E+03 -0.33667862189E+03 -0.20256135680E+03  0.10212011214E+04  0.90548927181E+03 0.  0.
         23    2    4    4    0    0 -0.16756533705E+03 -0.51588439196E+03 -0.43420889505E+03  0.70085884890E+03  0.91928850203E+02 0.  0.
         23    2    4    4    0    0 -0.94269174266E+02  0.17920577006E+03  0.23164753825E+03  0.32034227251E+03  0.89203163279E+02 0.  0.
          2    1    3    3  502    0  0.41077278245E+02  0.26701066098E+02 -0.24683084519E+02  0.54859314434E+02  0.00000000000E+00 0. -1.
         -1    1    3    3    0  502  0.22075723307E+03  0.30997755580E+03 -0.40426006798E+03  0.55519910267E+03  0.00000000000E+00 0.  1.
         11    1    5    5    0    0 -0.32515063619E+02 -0.41722269914E+02 -0.18717996960E+02  0.56110075558E+02  0.00000000000E+00 0. -1.
        -11    1    5    5    0    0 -0.13505027343E+03 -0.47416212204E+03 -0.41549089809E+03  0.64474877335E+03  0.00000000000E+00 0.  1.
          3    1    6    6  503    0  0.32091489237E+01  0.47479868137E+02  0.17533301763E+02  0.50715413691E+02  0.00000000000E+00 0. -1.
         -3    1    6    6    0  503 -0.97478323190E+02  0.13172590192E+03  0.21411423649E+03  0.26962685882E+03  0.00000000000E+00 0.  1.
<mgrwt>
<rscale>  0 0.15040644E+04</rscale>
<asrwt>0</asrwt>
<pdfrwt beam="1">  1        2 0.76904233E-01 0.15040644E+04</pdfrwt>
<pdfrwt beam="2">  1       -1 0.17405877E+00 0.15040644E+04</pdfrwt>
<totfact> 0.15628816E+01</totfact>
</mgrwt>
</event>
<event>
12    6  0.9533401E-008  0.3577149E+04  0.7818608E-02  0.8095746E-01
          2   -1    0    0  501    0  0.00000000000E+00  0.00000000000E+00  0.23079783856E+04  0.23079783856E+04  0.00000000000E+00 0. -1.
         -1   -1    0    0    0  501 -0.00000000000E+00 -0.00000000000E+00 -0.13860610576E+04  0.13860610576E+04  0.00000000000E+00 0.  1.
         24    2    1    2    0    0 -0.94130553405E+01  0.20682262609E+03  0.21470341566E+04  0.21584720968E+04  0.79886913889E+02 0.  0.
        254    2    1    2    0    0  0.94130553405E+01 -0.20682262609E+03 -0.12251168285E+04  0.15355673464E+04  0.90232567711E+03 0.  0.
         23    2    4    4    0    0  0.28568348296E+03  0.21106628886E+03 -0.76752595546E+03  0.85092655587E+03  0.93892920184E+02 0.  0.
         23    2    4    4    0    0 -0.27627042762E+03 -0.41788891494E+03 -0.45759087305E+03  0.68464079053E+03  0.91581169196E+02 0.  0.
          4    1    3    3  502    0  0.29485264959E+02  0.11388920780E+03  0.96292877637E+03  0.97008863557E+03  0.00000000000E+00 0. -1.
         -3    1    3    3    0  502 -0.38898320299E+02  0.92933418282E+02  0.11841053802E+04  0.11883834612E+04  0.00000000000E+00 0.  1.
         11    1    5    5    0    0  0.32179371586E+02  0.35486025250E+02 -0.46659020938E+02  0.66871774155E+02  0.00000000000E+00 0. -1.
        -11    1    5    5    0    0  0.25350411138E+03  0.17558026361E+03 -0.72086693452E+03  0.78405478172E+03  0.00000000000E+00 0.  1.
          4    1    6    6  503    0 -0.21322879025E+02 -0.92627260553E+02 -0.69889820081E+02  0.11797907237E+03  0.00000000000E+00 0. -1.
         -4    1    6    6    0  503 -0.25494754860E+03 -0.32526165439E+03 -0.38770105297E+03  0.56666171816E+03  0.00000000000E+00 0.  1.
<mgrwt>
<rscale>  0 0.35771491E+04</rscale>
<asrwt>0</asrwt>
<pdfrwt beam="1">  1        2 0.35507360E+00 0.35771491E+04</pdfrwt>
<pdfrwt beam="2">  1       -1 0.21324016E+00 0.35771491E+04</pdfrwt>
<totfact> 0.50899072E-01</totfact>
</mgrwt>
</event>
<event>
12    6  0.9533401E-008  0.2024823E+04  0.7818608E-02  0.8595102E-01
          2   -1    0    0  501    0  0.00000000000E+00  0.00000000000E+00  0.19618078763E+04  0.19618078763E+04  0.00000000000E+00 0. -1.
         -1   -1    0    0    0  501 -0.00000000000E+00 -0.00000000000E+00 -0.52246547359E+03  0.52246547359E+03  0.00000000000E+00 0.  1.
         24    2    1    2    0    0 -0.46959752521E+03 -0.34909995576E+03 -0.10742425417E+03  0.60090694249E+03  0.84596503206E+02 0.  0.
        254    2    1    2    0    0  0.46959752521E+03  0.34909995576E+03  0.15467666569E+04  0.18833664074E+04  0.90121546752E+03 0.  0.
         23    2    4    4    0    0 -0.11880115046E+03 -0.16197735828E+03  0.67701566620E+03  0.71203398452E+03  0.91059348128E+02 0.  0.
         23    2    4    4    0    0  0.58839867567E+03  0.51107731404E+03  0.86975099068E+03  0.11713324229E+04  0.90221043298E+02 0.  0.
          4    1    3    3  502    0 -0.55498275376E+02 -0.54616299798E+02  0.12376514699E+02  0.78842735172E+02  0.00000000000E+00 0. -1.
         -3    1    3    3    0  502 -0.41409924984E+03 -0.29448365596E+03 -0.11980076886E+03  0.52206420732E+03  0.00000000000E+00 0.  1.
         11    1    5    5    0    0 -0.86573410588E+02 -0.16417160617E+03  0.53142890005E+03  0.56290669520E+03  0.00000000000E+00 0.  1.
        -11    1    5    5    0    0 -0.32227739871E+02  0.21942478882E+01  0.14558676615E+03  0.14912728932E+03  0.00000000000E+00 0. -1.
          4    1    6    6  503    0  0.15867251200E+03  0.10163494751E+03  0.25173962047E+03  0.31445105363E+03  0.00000000000E+00 0. -1.
         -4    1    6    6    0  503  0.42972616367E+03  0.40944236653E+03  0.61801137022E+03  0.85688136925E+03  0.00000000000E+00 0.  1.
<mgrwt>
<rscale>  0 0.20248228E+04</rscale>
<asrwt>0</asrwt>
<pdfrwt beam="1">  1        2 0.30181659E+00 0.20248228E+04</pdfrwt>
<pdfrwt beam="2">  1       -1 0.80379305E-01 0.20248228E+04</pdfrwt>
<totfact> 0.11437054E+01</totfact>
</mgrwt>
</event>
<event>
12    6  0.9533401E-008  0.2265065E+04  0.7818608E-02  0.8491824E-01
         -1   -1    0    0    0  501 -0.00000000000E+00  0.00000000000E+00  0.40903817374E+03  0.40903817374E+03  0.00000000000E+00 0.  1.
          2   -1    0    0  501    0  0.00000000000E+00 -0.00000000000E+00 -0.31357219129E+04  0.31357219129E+04  0.00000000000E+00 0. -1.
         24    2    1    2    0    0 -0.32686061049E+03 -0.52719063258E+03 -0.25155617650E+02  0.62591550792E+03  0.79809749957E+02 0.  0.
        254    2    1    2    0    0  0.32686061049E+03  0.52719063258E+03 -0.27015281215E+04  0.29188445788E+04  0.91467571392E+03 0.  0.
         23    2    4    4    0    0 -0.55974652758E+02 -0.22033874117E+03 -0.82305911881E+03  0.85881501908E+03  0.91948906077E+02 0.  0.
         23    2    4    4    0    0  0.38283526325E+03  0.74752937374E+03 -0.18784690027E+04  0.20600295597E+04  0.98554498073E+02 0.  0.
          4    1    3    3  502    0  0.27141914870E+01 -0.19015268866E+02 -0.51837533977E+01  0.19895189991E+02  0.00000000000E+00 0. -1.
         -3    1    3    3    0  502 -0.32957480198E+03 -0.50817536371E+03 -0.19971864252E+02  0.60602031793E+03  0.00000000000E+00 0.  1.
         11    1    5    5    0    0 -0.62480478140E+02 -0.10985668937E+03 -0.32729908617E+03  0.35085181224E+03  0.00000000000E+00 0. -1.
        -11    1    5    5    0    0  0.65058253815E+01 -0.11048205179E+03 -0.49576003265E+03  0.50796320684E+03  0.00000000000E+00 0.  1.
          1    1    6    6  503    0  0.24144328075E+03  0.38122755185E+03 -0.10698060051E+04  0.11610831980E+04  0.00000000000E+00 0. -1.
         -1    1    6    6    0  503  0.14139198250E+03  0.36630182189E+03 -0.80866299765E+03  0.89894636170E+03  0.00000000000E+00 0.  1.
<mgrwt>
<rscale>  0 0.22650651E+04</rscale>
<asrwt>0</asrwt>
<pdfrwt beam="1">  1        2 0.48241877E+00 0.22650651E+04</pdfrwt>
<pdfrwt beam="2">  1       -1 0.62928947E-01 0.22650651E+04</pdfrwt>
<totfact> 0.37870992E+00</totfact>
</mgrwt>
</event>
<event>
12    6  0.9533401E-008  0.1964385E+04  0.7818608E-02  0.8623455E-01
          2   -1    0    0  501    0  0.00000000000E+00  0.00000000000E+00  0.18341878354E+04  0.18341878354E+04  0.00000000000E+00 0. -1.
         -1   -1    0    0    0  501 -0.00000000000E+00 -0.00000000000E+00 -0.52595598956E+03  0.52595598956E+03  0.00000000000E+00 0.  1.
         24    2    1    2    0    0  0.74414818841E+03  0.17628121377E+03  0.64901116130E+03  0.10062256313E+04  0.80267932636E+02 0.  0.
        254    2    1    2    0    0 -0.74414818841E+03 -0.17628121377E+03  0.65922068451E+03  0.13539181936E+04  0.90204820905E+03 0.  0.
         23    2    4    4    0    0 -0.66682912137E+03 -0.16769208717E+03  0.86908171396E+03  0.11119369655E+04  0.91208972061E+02 0.  0.
         23    2    4    4    0    0 -0.77319067046E+02 -0.85891265948E+01 -0.20986102945E+03  0.24198122807E+03  0.91985063084E+02 0.  0.
          2    1    3    3  502    0  0.37733529603E+03  0.93077952391E+02  0.27745748678E+03  0.47752286628E+03  0.00000000000E+00 0. -1.
         -1    1    3    3    0  502  0.36681289239E+03  0.83203261375E+02  0.37155367452E+03  0.52870276505E+03  0.00000000000E+00 0.  1.
         11    1    5    5    0    0 -0.31753062234E+03 -0.39478558837E+02  0.43904169242E+03  0.54326960196E+03  0.00000000000E+00 0.  1.
        -11    1    5    5    0    0 -0.34929849903E+03 -0.12821352833E+03  0.43004002154E+03  0.56866736358E+03  0.00000000000E+00 0. -1.
          4    1    6    6  503    0 -0.47238564580E+02 -0.19277923412E+01 -0.20549584875E+03  0.21086427441E+03  0.00000000000E+00 0. -1.
         -4    1    6    6    0  503 -0.30080502466E+02 -0.66613342536E+01 -0.43651806994E+01  0.31116953661E+02  0.00000000000E+00 0.  1.
<mgrwt>
<rscale>  0 0.19643850E+04</rscale>
<asrwt>0</asrwt>
<pdfrwt beam="1">  1        2 0.28218274E+00 0.19643850E+04</pdfrwt>
<pdfrwt beam="2">  1       -1 0.80916307E-01 0.19643850E+04</pdfrwt>
<totfact> 0.13341594E+01</totfact>
</mgrwt>
</event>
<event>
12    6  0.9533401E-008  0.2625049E+04  0.7818608E-02  0.8359742E-01
          2   -1    0    0  501    0  0.00000000000E+00  0.00000000000E+00  0.99802063666E+03  0.99802063666E+03  0.00000000000E+00 0. -1.
         -1   -1    0    0    0  501 -0.00000000000E+00 -0.00000000000E+00 -0.17261369331E+04  0.17261369331E+04  0.00000000000E+00 0.  1.
         24    2    1    2    0    0  0.33828670103E+03 -0.82398823800E+03 -0.10808954927E+04  0.14028629273E+04  0.79339890884E+02 0.  0.
        254    2    1    2    0    0 -0.33828670103E+03  0.82398823800E+03  0.35277919631E+03  0.13212946424E+04  0.90992959187E+03 0.  0.
         23    2    4    4    0    0  0.19394424230E+03 -0.17657312320E+02 -0.84339825319E+02  0.22997010176E+03  0.88582683230E+02 0.  0.
         23    2    4    4    0    0 -0.53223094333E+03  0.84164555032E+03  0.43711902163E+03  0.10913245406E+04  0.90990133938E+02 0.  0.
          2    1    3    3  502    0  0.17887425285E+03 -0.43424988147E+03 -0.50754972431E+03  0.69150248050E+03  0.00000000000E+00 0. -1.
         -1    1    3    3    0  502  0.15941244817E+03 -0.38973835653E+03 -0.57334576840E+03  0.71136044684E+03  0.00000000000E+00 0.  1.
         11    1    5    5    0    0  0.19487193132E+03 -0.75802199583E+00 -0.67868988646E+02  0.20635368626E+03  0.00000000000E+00 0. -1.
        -11    1    5    5    0    0 -0.92768901675E+00 -0.16899290324E+02 -0.16470836673E+02  0.23616415500E+02  0.00000000000E+00 0.  1.
          3    1    6    6  503    0 -0.50514203858E+03  0.81439130536E+03  0.43607641912E+03  0.10528838116E+04  0.00000000000E+00 0. -1.
         -3    1    6    6    0  503 -0.27088904741E+02  0.27254244964E+02  0.10426025146E+01  0.38440729033E+02  0.00000000000E+00 0.  1.
<mgrwt>
<rscale>  0 0.26250488E+04</rscale>
<asrwt>0</asrwt>
<pdfrwt beam="1">  1        2 0.15354164E+00 0.26250488E+04</pdfrwt>
<pdfrwt beam="2">  1       -1 0.26555952E+00 0.26250488E+04</pdfrwt>
<totfact> 0.14035774E+00</totfact>
</mgrwt>
</event>
<event>
12    6  0.9533401E-008  0.1556600E+04  0.7818608E-02  0.8847663E-01
          2   -1    0    0  501    0  0.00000000000E+00  0.00000000000E+00  0.33464644962E+04  0.33464644962E+04  0.00000000000E+00 0. -1.
         -1   -1    0    0    0  501 -0.00000000000E+00 -0.00000000000E+00 -0.18101218066E+03  0.18101218066E+03  0.00000000000E+00 0.  1.
         24    2    1    2    0    0  0.40952471465E+03  0.28518048884E+03  0.77773526503E+03  0.92768254094E+03  0.81757881365E+02 0.  0.
        254    2    1    2    0    0 -0.40952471465E+03 -0.28518048884E+03  0.23877170505E+04  0.25997941359E+04  0.89927661640E+03 0.  0.
         23    2    4    4    0    0 -0.65274011426E+03 -0.60093519021E+02  0.18182541313E+04  0.19350839508E+04  0.93919767484E+02 0.  0.
         23    2    4    4    0    0  0.24321539961E+03 -0.22508696982E+03  0.56946291917E+03  0.66471018513E+03  0.87941681316E+02 0.  0.
          4    1    3    3  502    0  0.16779482050E+03  0.75477922919E+02  0.32108712657E+03  0.37006615826E+03  0.00000000000E+00 0. -1.
         -3    1    3    3    0  502  0.24172989415E+03  0.20970256592E+03  0.45664813846E+03  0.55761638268E+03  0.00000000000E+00 0.  1.
         11    1    5    5    0    0 -0.59267505732E+03 -0.26784208840E+02  0.16134672465E+04  0.17190862902E+04  0.00000000000E+00 0.  1.
        -11    1    5    5    0    0 -0.60065056938E+02 -0.33309310181E+02  0.20478688480E+03  0.21599766063E+03  0.00000000000E+00 0. -1.
          2    1    6    6  503    0  0.49081166193E+01  0.80627824800E+01  0.14322389657E+02  0.17153102214E+02  0.00000000000E+00 0. -1.
         -2    1    6    6    0  503  0.23830728299E+03 -0.23314975230E+03  0.55514052952E+03  0.64755708292E+03  0.00000000000E+00 0.  1.
<mgrwt>
<rscale>  0 0.15565999E+04</rscale>
<asrwt>0</asrwt>
<pdfrwt beam="1">  1        2 0.51484065E+00 0.15565999E+04</pdfrwt>
<pdfrwt beam="2">  1       -1 0.27848030E-01 0.15565999E+04</pdfrwt>
<totfact> 0.13341338E+01</totfact>
</mgrwt>
</event>
<event>
12    6  0.9533401E-008  0.1759788E+04  0.7818608E-02  0.8727981E-01
          2   -1    0    0  501    0  0.00000000000E+00  0.00000000000E+00  0.20102555634E+04  0.20102555634E+04  0.00000000000E+00 0. -1.
         -1   -1    0    0    0  501 -0.00000000000E+00 -0.00000000000E+00 -0.38513200143E+03  0.38513200143E+03  0.00000000000E+00 0.  1.
         24    2    1    2    0    0 -0.19969797087E+03  0.13310946730E+03 -0.21474960134E+03  0.33123567685E+03  0.77474334386E+02 0.  0.
        254    2    1    2    0    0  0.19969797087E+03 -0.13310946730E+03  0.18398731633E+04  0.20641518880E+04  0.90442929505E+03 0.  0.
         23    2    4    4    0    0  0.11910378398E+03 -0.46913224172E+03  0.61181021243E+03  0.78494744350E+03  0.86948153777E+02 0.  0.
         23    2    4    4    0    0  0.80594186889E+02  0.33602277443E+03  0.12280629509E+04  0.12792044445E+04  0.93907782171E+02 0.  0.
          2    1    3    3  502    0 -0.15843161607E+02 -0.10404101763E+02 -0.15968401846E+02  0.24783885101E+02  0.00000000000E+00 0. -1.
         -1    1    3    3    0  502 -0.18385480926E+03  0.14351356906E+03 -0.19878119949E+03  0.30645179175E+03  0.00000000000E+00 0.  1.
         11    1    5    5    0    0  0.57990291947E+02 -0.37545851787E+03  0.47427806125E+03  0.60767725973E+03  0.00000000000E+00 0. -1.
        -11    1    5    5    0    0  0.61113492034E+02 -0.93673723851E+02  0.13753215118E+03  0.17727018378E+03  0.00000000000E+00 0.  1.
          4    1    6    6  503    0  0.47632125572E+02  0.19947196886E+03  0.88592118227E+03  0.90934824294E+03  0.00000000000E+00 0. -1.
         -4    1    6    6    0  503  0.32962061317E+02  0.13655080556E+03  0.34214176864E+03  0.36985620156E+03  0.00000000000E+00 0.  1.
<mgrwt>
<rscale>  0 0.17597883E+04</rscale>
<asrwt>0</asrwt>
<pdfrwt beam="1">  1        2 0.30927008E+00 0.17597883E+04</pdfrwt>
<pdfrwt beam="2">  1       -1 0.59251078E-01 0.17597883E+04</pdfrwt>
<totfact> 0.20537852E+01</totfact>
</mgrwt>
</event>
<event>
12    6  0.9533401E-008  0.3510602E+04  0.7818608E-02  0.8111282E-01
         -1   -1    0    0    0  501 -0.00000000000E+00  0.00000000000E+00  0.19357198547E+04  0.19357198547E+04  0.00000000000E+00 0.  1.
          2   -1    0    0  501    0  0.00000000000E+00 -0.00000000000E+00 -0.15916985282E+04  0.15916985282E+04  0.00000000000E+00 0. -1.
         24    2    1    2    0    0  0.15630803103E+04  0.48414548986E+03  0.38527519027E+02  0.16385852181E+04  0.76552174248E+02 0.  0.
        254    2    1    2    0    0 -0.15630803103E+04 -0.48414548986E+03  0.30549380750E+03  0.18888331648E+04  0.89260705038E+03 0.  0.
         23    2    4    4    0    0 -0.11707574227E+04 -0.53646032239E+03  0.56249570970E+03  0.14083978945E+04  0.93384074460E+02 0.  0.
         23    2    4    4    0    0 -0.39232288756E+03  0.52314832530E+02 -0.25700190220E+03  0.48043527036E+03  0.90077641303E+02 0.  0.
          4    1    3    3  502    0  0.43315669398E+03  0.12095358575E+03  0.42377934161E+02  0.45171936062E+03  0.00000000000E+00 0. -1.
         -3    1    3    3    0  502  0.11299236163E+04  0.36319190410E+03 -0.38504151344E+01  0.11868658575E+04  0.00000000000E+00 0.  1.
         11    1    5    5    0    0 -0.68716407491E+03 -0.26482630118E+03  0.32976161838E+03  0.80688918731E+03  0.00000000000E+00 0. -1.
        -11    1    5    5    0    0 -0.48359334783E+03 -0.27163402121E+03  0.23273409132E+03  0.60150870717E+03  0.00000000000E+00 0.  1.
          1    1    6    6  503    0 -0.27769166612E+03  0.21899589163E+00 -0.20001441493E+03  0.34222576696E+03  0.00000000000E+00 0. -1.
         -1    1    6    6    0  503 -0.11463122144E+03  0.52095836638E+02 -0.56987487270E+02  0.13820950340E+03  0.00000000000E+00 0.  1.
<mgrwt>
<rscale>  0 0.35106025E+04</rscale>
<asrwt>0</asrwt>
<pdfrwt beam="1">  1        2 0.24487670E+00 0.35106025E+04</pdfrwt>
<pdfrwt beam="2">  1       -1 0.29780305E+00 0.35106025E+04</pdfrwt>
<totfact> 0.35946861E-01</totfact>
</mgrwt>
</event>
<event>
12    6  0.9533401E-008  0.1282320E+04  0.7818608E-02  0.9043704E-01
         -1   -1    0    0    0  501 -0.00000000000E+00  0.00000000000E+00  0.15635342472E+03  0.15635342472E+03  0.00000000000E+00 0.  1.
          2   -1    0    0  501    0  0.00000000000E+00 -0.00000000000E+00 -0.26292101432E+04  0.26292101432E+04  0.00000000000E+00 0. -1.
         24    2    1    2    0    0  0.25848406721E+03  0.11982024787E+03 -0.93494210244E+03  0.98081689047E+03  0.81939812836E+02 0.  0.
        254    2    1    2    0    0 -0.25848406721E+03 -0.11982024787E+03 -0.15379146161E+04  0.18047466775E+04  0.90042117851E+03 0.  0.
         23    2    4    4    0    0 -0.58461615014E+02 -0.46622777524E+03 -0.51709173961E+03  0.70449712706E+03  0.90256501328E+02 0.  0.
         23    2    4    4    0    0 -0.20002245219E+03  0.34640752737E+03 -0.10208228765E+04  0.11002495504E+04  0.91992236980E+02 0.  0.
          4    1    3    3  502    0  0.19176809237E+03  0.11831018592E+03 -0.64277564730E+03  0.68112615139E+03  0.00000000000E+00 0. -1.
         -3    1    3    3    0  502  0.66715974833E+02  0.15100619529E+01 -0.29216645513E+03  0.29969073908E+03  0.00000000000E+00 0.  1.
         11    1    5    5    0    0 -0.78022575851E+02 -0.35701694259E+03 -0.36770518258E+03  0.51841655156E+03  0.00000000000E+00 0.  1.
        -11    1    5    5    0    0  0.19560960837E+02 -0.10921083265E+03 -0.14938655703E+03  0.18608057550E+03  0.00000000000E+00 0. -1.
          2    1    6    6  503    0 -0.43617706191E+02  0.65147490023E+02 -0.31351210091E+03  0.32316642333E+03  0.00000000000E+00 0. -1.
         -2    1    6    6    0  503 -0.15640474600E+03  0.28126003734E+03 -0.70731077557E+03  0.77708312709E+03  0.00000000000E+00 0.  1.
<mgrwt>
<rscale>  0 0.12823198E+04</rscale>
<asrwt>0</asrwt>
<pdfrwt beam="1">  1        2 0.40449385E+00 0.12823198E+04</pdfrwt>
<pdfrwt beam="2">  1       -1 0.24054374E-01 0.12823198E+04</pdfrwt>
<totfact> 0.49244498E+01</totfact>
</mgrwt>
</event>
<event>
12    6  0.9533401E-008  0.1513529E+04  0.7818608E-02  0.8875506E-01
         -1   -1    0    0    0  501 -0.00000000000E+00  0.00000000000E+00  0.24273385307E+03  0.24273385307E+03  0.00000000000E+00 0.  1.
          2   -1    0    0  501    0  0.00000000000E+00 -0.00000000000E+00 -0.23593432536E+04  0.23593432536E+04  0.00000000000E+00 0. -1.
         24    2    1    2    0    0 -0.10102752698E+03  0.47537845154E+03 -0.71116002910E+03  0.86498896486E+03  0.79158631593E+02 0.  0.
        254    2    1    2    0    0  0.10102752698E+03 -0.47537845154E+03 -0.14054493714E+04  0.17370881418E+04  0.89777282390E+03 0.  0.
         23    2    4    4    0    0 -0.37809440924E+02 -0.45736657460E+03 -0.18138253153E+03  0.50176333653E+03  0.90846495563E+02 0.  0.
         23    2    4    4    0    0  0.13883696790E+03 -0.18011876938E+02 -0.12240668399E+04  0.12353248053E+04  0.89931165990E+02 0.  0.
          2    1    3    3  502    0 -0.43875260935E+02  0.24701669543E+03 -0.29872187870E+03  0.39009876590E+03  0.00000000000E+00 0. -1.
         -1    1    3    3    0  502 -0.57152266043E+02  0.22836175611E+03 -0.41243815040E+03  0.47489019896E+03  0.00000000000E+00 0.  1.
         11    1    5    5    0    0  0.55771402975E+01 -0.22314462674E+03 -0.46453893396E+02  0.22799691478E+03  0.00000000000E+00 0. -1.
        -11    1    5    5    0    0 -0.43386581221E+02 -0.23422194786E+03 -0.13492863814E+03  0.27376642175E+03  0.00000000000E+00 0.  1.
          2    1    6    6  503    0  0.33155929075E+02  0.32019404026E+02 -0.46882932460E+03  0.47108968729E+03  0.00000000000E+00 0.  1.
         -2    1    6    6    0  503  0.10568103883E+03 -0.50031280965E+02 -0.75523751530E+03  0.76423511798E+03  0.00000000000E+00 0. -1.
<mgrwt>
<rscale>  0 0.15135290E+04</rscale>
<asrwt>0</asrwt>
<pdfrwt beam="1">  1        2 0.36297587E+00 0.15135290E+04</pdfrwt>
<pdfrwt beam="2">  1       -1 0.37343671E-01 0.15135290E+04</pdfrwt>
<totfact> 0.31888045E+01</totfact>
</mgrwt>
</event>
<event>
12    6  0.9533401E-008  0.1502160E+04  0.7818608E-02  0.8883018E-01
          2   -1    0    0  501    0  0.00000000000E+00  0.00000000000E+00  0.14435371043E+04  0.14435371043E+04  0.00000000000E+00 0. -1.
         -1   -1    0    0    0  501 -0.00000000000E+00 -0.00000000000E+00 -0.39079089110E+03  0.39079089110E+03  0.00000000000E+00 0.  1.
         24    2    1    2    0    0  0.23771432726E+03 -0.13527260520E+03  0.81207492667E+03  0.86067800325E+03  0.80586348984E+02 0.  0.
        254    2    1    2    0    0 -0.23771432726E+03  0.13527260520E+03  0.24067128652E+03  0.97364999214E+03  0.90292018470E+03 0.  0.
         23    2    4    4    0    0  0.31131439848E+03 -0.77134832897E+02  0.16777596749E+03  0.37344067938E+03  0.91884321824E+02 0.  0.
         23    2    4    4    0    0 -0.54902872574E+03  0.21240743810E+03  0.72895319030E+02  0.60020931276E+03  0.91586189672E+02 0.  0.
          4    1    3    3  502    0  0.20792466065E+03 -0.11491764505E+03  0.76695503355E+03  0.80290644109E+03  0.00000000000E+00 0. -1.
         -1    1    3    3    0  502  0.29789666605E+02 -0.20354960147E+02  0.45119893123E+02  0.57771562161E+02  0.00000000000E+00 0.  1.
         11    1    5    5    0    0  0.24937899096E+03 -0.98190096107E+02  0.13993935884E+03  0.30234781338E+03  0.00000000000E+00 0. -1.
        -11    1    5    5    0    0  0.61935407526E+02  0.21055263210E+02  0.27836608654E+02  0.71092865997E+02  0.00000000000E+00 0.  1.
          1    1    6    6  503    0 -0.47686900769E+03  0.21355333088E+03  0.75853193555E+02  0.52797990738E+03  0.00000000000E+00 0. -1.
         -1    1    6    6    0  503 -0.72159718053E+02 -0.11458927852E+01 -0.29578745247E+01  0.72229405380E+02  0.00000000000E+00 0.  1.
<mgrwt>
<rscale>  0 0.15021600E+04</rscale>
<asrwt>0</asrwt>
<pdfrwt beam="1">  1        2 0.22208263E+00 0.15021600E+04</pdfrwt>
<pdfrwt beam="2">  1       -1 0.60121676E-01 0.15021600E+04</pdfrwt>
<totfact> 0.42200781E+01</totfact>
</mgrwt>
</event>
<event>
12    6  0.9533401E-008  0.2410174E+04  0.7818608E-02  0.8435705E-01
          2   -1    0    0  501    0  0.00000000000E+00  0.00000000000E+00  0.24715564200E+04  0.24715564200E+04  0.00000000000E+00 0. -1.
         -1   -1    0    0    0  501 -0.00000000000E+00 -0.00000000000E+00 -0.58757877047E+03  0.58757877047E+03  0.00000000000E+00 0.  1.
         24    2    1    2    0    0 -0.16365260353E+03 -0.70485249532E+03  0.17577295022E+04  0.19025352078E+04  0.80174802497E+02 0.  0.
        254    2    1    2    0    0  0.16365260353E+03  0.70485249532E+03  0.12624814730E+03  0.11565999827E+04  0.89341239666E+03 0.  0.
         23    2    4    4    0    0  0.19667553950E+02  0.85345845804E+03  0.25718348192E+03  0.89558440100E+03  0.84557221241E+02 0.  0.
         23    2    4    4    0    0  0.14398504958E+03 -0.14860596272E+03 -0.13093533463E+03  0.26101558171E+03  0.90386090649E+02 0.  0.
          4    1    3    3  502    0 -0.11035109335E+03 -0.58288502593E+03  0.13829148162E+04  0.15047875950E+04  0.00000000000E+00 0. -1.
         -1    1    3    3    0  502 -0.53301510187E+02 -0.12196746939E+03  0.37481468604E+03  0.39774761275E+03  0.00000000000E+00 0.  1.
         11    1    5    5    0    0 -0.13801361221E+02  0.39740587937E+03  0.15662238109E+03  0.42737861526E+03  0.00000000000E+00 0.  1.
        -11    1    5    5    0    0  0.33468915172E+02  0.45605257867E+03  0.10056110084E+03  0.46820578574E+03  0.00000000000E+00 0. -1.
          4    1    6    6  503    0  0.12746631500E+03 -0.98483471262E+02 -0.58456082802E+02  0.17135859823E+03  0.00000000000E+00 0. -1.
         -4    1    6    6    0  503  0.16518734589E+02 -0.50122491455E+02 -0.72479251823E+02  0.89656983481E+02  0.00000000000E+00 0.  1.
<mgrwt>
<rscale>  0 0.24101735E+04</rscale>
<asrwt>0</asrwt>
<pdfrwt beam="1">  1        2 0.38023944E+00 0.24101735E+04</pdfrwt>
<pdfrwt beam="2">  1       -1 0.90396735E-01 0.24101735E+04</pdfrwt>
<totfact> 0.44201875E+00</totfact>
</mgrwt>
</event>
<event>
12    6  0.9533401E-008  0.1783004E+04  0.7818608E-02  0.8715391E-01
          2   -1    0    0  501    0  0.00000000000E+00  0.00000000000E+00  0.85373038834E+03  0.85373038834E+03  0.00000000000E+00 0. -1.
         -1   -1    0    0    0  501 -0.00000000000E+00 -0.00000000000E+00 -0.93094430658E+03  0.93094430658E+03  0.00000000000E+00 0.  1.
         24    2    1    2    0    0 -0.27441692990E+03 -0.50238359749E+03  0.30047363113E+03  0.65174207976E+03  0.82397846318E+02 0.  0.
        254    2    1    2    0    0  0.27441692990E+03  0.50238359749E+03 -0.37768754937E+03  0.11329326152E+04  0.90177297315E+03 0.  0.
         23    2    4    4    0    0 -0.63528645605E+02 -0.10092896740E+03  0.18411934025E+03  0.23728643998E+03  0.90456497119E+02 0.  0.
         23    2    4    4    0    0  0.33794557550E+03  0.60331256489E+03 -0.56180688963E+03  0.89564617519E+03  0.91443025651E+02 0.  0.
          2    1    3    3  502    0 -0.75929871443E+02 -0.19031839637E+03  0.14244987024E+03  0.24955641227E+03  0.00000000000E+00 0. -1.
         -1    1    3    3    0  502 -0.19848705845E+03 -0.31206520113E+03  0.15802376089E+03  0.40218566749E+03  0.00000000000E+00 0.  1.
         11    1    5    5    0    0 -0.52860731137E+02 -0.11694026122E+03  0.17180224703E+03  0.21444181885E+03  0.00000000000E+00 0.  1.
        -11    1    5    5    0    0 -0.10667914468E+02  0.16011293820E+02  0.12317093225E+02  0.22844621126E+02  0.00000000000E+00 0. -1.
          2    1    6    6  503    0  0.15817305290E+03  0.27144351554E+03 -0.19758112187E+03  0.37113150838E+03  0.00000000000E+00 0.  1.
         -2    1    6    6    0  503  0.17977252260E+03  0.33186904935E+03 -0.36422576776E+03  0.52451466681E+03  0.00000000000E+00 0. -1.
<mgrwt>
<rscale>  0 0.17830036E+04</rscale>
<asrwt>0</asrwt>
<pdfrwt beam="1">  1        2 0.13134314E+00 0.17830036E+04</pdfrwt>
<pdfrwt beam="2">  1       -1 0.14322220E+00 0.17830036E+04</pdfrwt>
<totfact> 0.13439901E+01</totfact>
</mgrwt>
</event>
<event>
12    6  0.9533401E-008  0.2653618E+04  0.7818608E-02  0.8350213E-01
         -1   -1    0    0    0  501 -0.00000000000E+00  0.00000000000E+00  0.67938646494E+03  0.67938646494E+03  0.00000000000E+00 0.  1.
          2   -1    0    0  501    0  0.00000000000E+00 -0.00000000000E+00 -0.25911944749E+04  0.25911944749E+04  0.00000000000E+00 0. -1.
         24    2    1    2    0    0  0.84301968256E+03  0.74237954740E+03 -0.40486680874E+03  0.11967127453E+04  0.79966771034E+02 0.  0.
        254    2    1    2    0    0 -0.84301968256E+03 -0.74237954740E+03 -0.15069412012E+04  0.20738681945E+04  0.87649753369E+03 0.  0.
         23    2    4    4    0    0 -0.41802186140E+03 -0.41428508085E+02 -0.10420728168E+04  0.11272332154E+04  0.90996530320E+02 0.  0.
         23    2    4    4    0    0 -0.42499782116E+03 -0.70095103932E+03 -0.46486838440E+03  0.94663497905E+03  0.89775616070E+02 0.  0.
          2    1    3    3  502    0  0.10763614754E+03  0.61782095773E+02 -0.47780134782E+02  0.13298687490E+03  0.00000000000E+00 0. -1.
         -3    1    3    3    0  502  0.73538353503E+03  0.68059745163E+03 -0.35708667395E+03  0.10637258705E+04  0.00000000000E+00 0.  1.
         11    1    5    5    0    0 -0.21598744686E+03 -0.22131976219E+02 -0.41857359278E+03  0.47153393743E+03  0.00000000000E+00 0.  1.
        -11    1    5    5    0    0 -0.20203441454E+03 -0.19296531866E+02 -0.62349922402E+03  0.65569927798E+03  0.00000000000E+00 0. -1.
          1    1    6    6  503    0 -0.96824077842E+01 -0.86016436553E+01 -0.22662397833E+02  0.26102137261E+02  0.00000000000E+00 0. -1.
         -1    1    6    6    0  503 -0.41531541338E+03 -0.69234939566E+03 -0.44220598657E+03  0.92053284179E+03  0.00000000000E+00 0.  1.
<mgrwt>
<rscale>  0 0.26536183E+04</rscale>
<asrwt>0</asrwt>
<pdfrwt beam="1">  1        2 0.39864530E+00 0.26536183E+04</pdfrwt>
<pdfrwt beam="2">  1       -1 0.10452100E+00 0.26536183E+04</pdfrwt>
<totfact> 0.26528135E+00</totfact>
</mgrwt>
</event>
<event>
12    6  0.9533401E-008  0.1163869E+04  0.7818608E-02  0.9145083E-01
          2   -1    0    0  501    0  0.00000000000E+00  0.00000000000E+00  0.17591357650E+04  0.17591357650E+04  0.00000000000E+00 0. -1.
         -1   -1    0    0    0  501 -0.00000000000E+00 -0.00000000000E+00 -0.19250815170E+03  0.19250815170E+03  0.00000000000E+00 0.  1.
         24    2    1    2    0    0 -0.72037093494E+02 -0.16206504079E+03  0.51494920702E+03  0.55064851117E+03  0.81158343798E+02 0.  0.
        254    2    1    2    0    0  0.72037093494E+02  0.16206504079E+03  0.10516784062E+04  0.14009954055E+04  0.90846366783E+03 0.  0.
         23    2    4    4    0    0 -0.82514071718E+02 -0.30190421932E+03  0.12981651179E+03  0.35288217862E+03  0.98583850502E+02 0.  0.
         23    2    4    4    0    0  0.15455116521E+03  0.46396926010E+03  0.92186189445E+03  0.10481132269E+04  0.97767310058E+02 0.  0.
          2    1    3    3  502    0 -0.43217523902E+02 -0.42060927204E+02  0.26645264409E+03  0.27319203413E+03  0.00000000000E+00 0. -1.
         -1    1    3    3    0  502 -0.28819569593E+02 -0.12000411358E+03  0.24849656293E+03  0.27745647705E+03  0.00000000000E+00 0.  1.
         11    1    5    5    0    0 -0.36920841596E+01  0.67692387132E+01  0.97472420442E+01  0.12428306629E+02  0.00000000000E+00 0. -1.
        -11    1    5    5    0    0 -0.78821987558E+02 -0.30867345803E+03  0.12006926975E+03  0.34045387199E+03  0.00000000000E+00 0.  1.
          1    1    6    6  503    0  0.22223515012E+02  0.15042181905E+03  0.36619247821E+03  0.39650667001E+03  0.00000000000E+00 0. -1.
         -1    1    6    6    0  503  0.13232765020E+03  0.31354744106E+03  0.55566941624E+03  0.65160655686E+03  0.00000000000E+00 0.  1.
<mgrwt>
<rscale>  0 0.11638694E+04</rscale>
<asrwt>0</asrwt>
<pdfrwt beam="1">  1        2 0.27063626E+00 0.11638694E+04</pdfrwt>
<pdfrwt beam="2">  1       -1 0.29616640E-01 0.11638694E+04</pdfrwt>
<totfact> 0.10693128E+02</totfact>
</mgrwt>
</event>
<event>
12    6  0.9533401E-008  0.1811382E+04  0.7818608E-02  0.8700270E-01
         -1   -1    0    0    0  501 -0.00000000000E+00  0.00000000000E+00  0.62526388216E+03  0.62526388216E+03  0.00000000000E+00 0.  1.
          2   -1    0    0  501    0  0.00000000000E+00 -0.00000000000E+00 -0.13118879092E+04  0.13118879092E+04  0.00000000000E+00 0. -1.
         24    2    1    2    0    0  0.38355403164E+03  0.94013650069E+02 -0.84594192455E+03  0.93703176569E+03  0.80364971331E+02 0.  0.
        254    2    1    2    0    0 -0.38355403164E+03 -0.94013650069E+02  0.15931789748E+03  0.10001200257E+04  0.90493403724E+03 0.  0.
         23    2    4    4    0    0 -0.26557659253E+03 -0.40390762356E+03  0.35351096887E+03  0.60503882634E+03  0.86195599639E+02 0.  0.
         23    2    4    4    0    0 -0.11797743912E+03  0.30989397350E+03 -0.19419307139E+03  0.39508119936E+03  0.91789183244E+02 0.  0.
          2    1    3    3  502    0  0.20853575260E+03  0.86050270135E+02 -0.52419288387E+03  0.57067502890E+03  0.00000000000E+00 0. -1.
         -1    1    3    3    0  502  0.17501827905E+03  0.79633799344E+01 -0.32174904067E+03  0.36635673679E+03  0.00000000000E+00 0.  1.
         11    1    5    5    0    0 -0.25318850320E+03 -0.33014682527E+03  0.29378387308E+03  0.50932338300E+03  0.00000000000E+00 0.  1.
        -11    1    5    5    0    0 -0.12388089324E+02 -0.73760798299E+02  0.59727095788E+02  0.95715443342E+02  0.00000000000E+00 0. -1.
          3    1    6    6  503    0  0.12713747528E+02  0.10266396288E+02 -0.37646223471E+01  0.16769336611E+02  0.00000000000E+00 0. -1.
         -3    1    6    6    0  503 -0.13069118665E+03  0.29962757721E+03 -0.19042844904E+03  0.37831186275E+03  0.00000000000E+00 0.  1.
<mgrwt>
<rscale>  0 0.18113819E+04</rscale>
<asrwt>0</asrwt>
<pdfrwt beam="1">  1        2 0.20182891E+00 0.18113819E+04</pdfrwt>
<pdfrwt beam="2">  1       -1 0.96194442E-01 0.18113819E+04</pdfrwt>
<totfact> 0.18211976E+01</totfact>
</mgrwt>
</event>
<event>
12    6  0.9533401E-008  0.1273405E+04  0.7818608E-02  0.9050926E-01
         -1   -1    0    0    0  501 -0.00000000000E+00  0.00000000000E+00  0.39705755877E+03  0.39705755877E+03  0.00000000000E+00 0.  1.
          2   -1    0    0  501    0  0.00000000000E+00 -0.00000000000E+00 -0.10209849910E+04  0.10209849910E+04  0.00000000000E+00 0. -1.
         24    2    1    2    0    0 -0.16505506243E+03 -0.21081961079E+03  0.15723526399E+02  0.28111203434E+03  0.84194207876E+02 0.  0.
        254    2    1    2    0    0  0.16505506243E+03  0.21081961079E+03 -0.63965095864E+03  0.11369305154E+04  0.90098255594E+03 0.  0.
         23    2    4    4    0    0  0.43764901629E+02 -0.12198020228E+03 -0.74127397652E+03  0.75781374045E+03  0.89442834179E+02 0.  0.
         23    2    4    4    0    0  0.12129016080E+03  0.33279981307E+03  0.10162301788E+03  0.37911677499E+03  0.89080147200E+02 0.  0.
          2    1    3    3  502    0 -0.13605058746E+03 -0.17410772999E+03 -0.20546231719E+02  0.22191307224E+03  0.00000000000E+00 0. -1.
         -1    1    3    3    0  502 -0.29004474971E+02 -0.36711880795E+02  0.36269758118E+02  0.59198962101E+02  0.00000000000E+00 0.  1.
         11    1    5    5    0    0  0.32045315225E+02 -0.87694885081E+02 -0.28077869432E+03  0.29589520152E+03  0.00000000000E+00 0.  1.
        -11    1    5    5    0    0  0.11719586404E+02 -0.34285317200E+02 -0.46049528219E+03  0.46191853893E+03  0.00000000000E+00 0. -1.
          2    1    6    6  503    0  0.84096869317E+02  0.10549402461E+03  0.36917756729E+02  0.13987206089E+03  0.00000000000E+00 0. -1.
         -2    1    6    6    0  503  0.37193291484E+02  0.22730578846E+03  0.64705261151E+02  0.23924471409E+03  0.00000000000E+00 0.  1.
<mgrwt>
<rscale>  0 0.12734046E+04</rscale>
<asrwt>0</asrwt>
<pdfrwt beam="1">  1        2 0.15707461E+00 0.12734046E+04</pdfrwt>
<pdfrwt beam="2">  1       -1 0.61085779E-01 0.12734046E+04</pdfrwt>
<totfact> 0.74348713E+01</totfact>
</mgrwt>
</event>
<event>
12    6  0.9533401E-008  0.1967090E+04  0.7818608E-02  0.8622164E-01
         -3   -1    0    0    0  501 -0.00000000000E+00  0.00000000000E+00  0.18060827456E+04  0.18060827456E+04  0.00000000000E+00 0.  1.
          4   -1    0    0  501    0  0.00000000000E+00 -0.00000000000E+00 -0.53561266161E+03  0.53561266161E+03  0.00000000000E+00 0. -1.
         24    2    1    2    0    0 -0.71770970233E+03  0.75611016644E+02  0.84997024630E+03  0.11179418146E+04  0.80747994384E+02 0.  0.
        254    2    1    2    0    0  0.71770970233E+03 -0.75611016644E+02  0.42049983766E+03  0.12237535926E+04  0.89438721994E+03 0.  0.
         23    2    4    4    0    0  0.83417230537E+03 -0.20750605287E+03  0.13416009655E+03  0.87513906938E+03  0.94695629431E+02 0.  0.
         23    2    4    4    0    0 -0.11646260304E+03  0.13189503623E+03  0.28633974111E+03  0.34861452318E+03  0.92638004886E+02 0.  0.
          4    1    3    3  502    0 -0.17511451768E+02 -0.77783221184E+01  0.11385211184E+02  0.22288478453E+02  0.00000000000E+00 0. -1.
         -3    1    3    3    0  502 -0.70019825056E+03  0.83389338762E+02  0.83858503511E+03  0.10956533362E+04  0.00000000000E+00 0.  1.
         11    1    5    5    0    0  0.26064341647E+03 -0.35075162220E+02  0.80471534544E+01  0.26311597107E+03  0.00000000000E+00 0.  1.
        -11    1    5    5    0    0  0.57352888890E+03 -0.17243089065E+03  0.12611294310E+03  0.61202309831E+03  0.00000000000E+00 0. -1.
          2    1    6    6  503    0 -0.19084841096E+02  0.39254527718E+02  0.15606138391E+02  0.46354079232E+02  0.00000000000E+00 0. -1.
         -2    1    6    6    0  503 -0.97377761942E+02  0.92640508507E+02  0.27073360272E+03  0.30226044395E+03  0.00000000000E+00 0.  1.
<mgrwt>
<rscale>  0 0.19670900E+04</rscale>
<asrwt>0</asrwt>
<pdfrwt beam="1">  1        4 0.82401949E-01 0.19670900E+04</pdfrwt>
<pdfrwt beam="2">  1       -3 0.27785888E+00 0.19670900E+04</pdfrwt>
<totfact> 0.14021816E-01</totfact>
</mgrwt>
</event>
<event>
12    6  0.9533401E-008  0.2656777E+04  0.7818608E-02  0.8349167E-01
         -1   -1    0    0    0  501 -0.00000000000E+00  0.00000000000E+00  0.12831670696E+04  0.12831670696E+04  0.00000000000E+00 0.  1.
          2   -1    0    0  501    0  0.00000000000E+00 -0.00000000000E+00 -0.13752040581E+04  0.13752040581E+04  0.00000000000E+00 0. -1.
         24    2    1    2    0    0 -0.33711053804E+03  0.11205220196E+04  0.65637379419E+02  0.11746377384E+04  0.79072369991E+02 0.  0.
        254    2    1    2    0    0  0.33711053804E+03 -0.11205220196E+04 -0.15767436796E+03  0.14837333893E+04  0.89854908213E+03 0.  0.
         23    2    4    4    0    0  0.46361844391E+03 -0.41973543428E+03  0.22420087496E+03  0.67044999586E+03  0.90095883840E+02 0.  0.
         23    2    4    4    0    0 -0.12650790587E+03 -0.70078658529E+03 -0.38187524292E+03  0.81328339344E+03  0.92168804453E+02 0.  0.
          2    1    3    3  502    0 -0.13896847402E+03  0.41534283903E+03  0.60488950941E+02  0.44213213398E+03  0.00000000000E+00 0. -1.
         -1    1    3    3    0  502 -0.19814206402E+03  0.70517918054E+03  0.51484284782E+01  0.73250560442E+03  0.00000000000E+00 0.  1.
         11    1    5    5    0    0  0.33607418535E+03 -0.29085174844E+03  0.11618339152E+03  0.45939000653E+03  0.00000000000E+00 0.  1.
        -11    1    5    5    0    0  0.12754425856E+03 -0.12888368584E+03  0.10801748344E+03  0.21105998933E+03  0.00000000000E+00 0. -1.
          2    1    6    6  503    0  0.24797213113E+01 -0.85882558131E+02 -0.75041979301E+02  0.11407568306E+03  0.00000000000E+00 0. -1.
         -2    1    6    6    0  503 -0.12898762719E+03 -0.61490402716E+03 -0.30683326362E+03  0.69920771038E+03  0.00000000000E+00 0.  1.
<mgrwt>
<rscale>  0 0.26567774E+04</rscale>
<asrwt>0</asrwt>
<pdfrwt beam="1">  1        2 0.21156985E+00 0.26567774E+04</pdfrwt>
<pdfrwt beam="2">  1       -1 0.19741032E+00 0.26567774E+04</pdfrwt>
<totfact> 0.23522645E+00</totfact>
</mgrwt>
</event>
<event>
12    6  0.9533401E-008  0.4101824E+04  0.7818608E-02  0.7984315E-01
          2   -1    0    0  501    0  0.00000000000E+00  0.00000000000E+00  0.38976106060E+04  0.38976106060E+04  0.00000000000E+00 0. -1.
         -1   -1    0    0    0  501 -0.00000000000E+00 -0.00000000000E+00 -0.10791841555E+04  0.10791841555E+04  0.00000000000E+00 0.  1.
         24    2    1    2    0    0 -0.50694649558E+03 -0.14986248200E+04 -0.44052307825E+02  0.15848516541E+04  0.83325021506E+02 0.  0.
        254    2    1    2    0    0  0.50694649558E+03  0.14986248200E+04  0.28624787583E+04  0.33919431074E+04  0.89923428643E+03 0.  0.
         23    2    4    4    0    0  0.15413480451E+03 -0.58450596169E+02  0.54255016082E+03  0.57430225089E+03  0.91040585515E+02 0.  0.
         23    2    4    4    0    0  0.35281169107E+03  0.15570754161E+04  0.23199285975E+04  0.28176408565E+04  0.89840737763E+02 0.  0.
          2    1    3    3  502    0 -0.17199542541E+03 -0.56978207241E+03 -0.51849417854E+02  0.59742982729E+03  0.00000000000E+00 0. -1.
         -3    1    3    3    0  502 -0.33495107017E+03 -0.92884274754E+03  0.77971100294E+01  0.98742182678E+03  0.00000000000E+00 0.  1.
         11    1    5    5    0    0  0.85142039889E+02 -0.25390210463E+02  0.14976739905E+03  0.17413817376E+03  0.00000000000E+00 0. -1.
        -11    1    5    5    0    0  0.68992764622E+02 -0.33060385706E+02  0.39278276178E+03  0.40016407713E+03  0.00000000000E+00 0.  1.
          3    1    6    6  503    0  0.69133937588E+02  0.36685889032E+03  0.60662039298E+03  0.71228733522E+03  0.00000000000E+00 0. -1.
         -3    1    6    6    0  503  0.28367775348E+03  0.11902165258E+04  0.17133082045E+04  0.21053535213E+04  0.00000000000E+00 0.  1.
<mgrwt>
<rscale>  0 0.41018238E+04</rscale>
<asrwt>0</asrwt>
<pdfrwt beam="1">  1        2 0.59963239E+00 0.41018238E+04</pdfrwt>
<pdfrwt beam="2">  1       -1 0.16602833E+00 0.41018238E+04</pdfrwt>
<totfact> 0.96164796E-02</totfact>
</mgrwt>
</event>
<event>
12    6  0.9533401E-008  0.2936878E+04  0.7818608E-02  0.8261989E-01
         -1   -1    0    0    0  501 -0.00000000000E+00  0.00000000000E+00  0.49516308346E+03  0.49516308346E+03  0.00000000000E+00 0.  1.
          2   -1    0    0  501    0  0.00000000000E+00 -0.00000000000E+00 -0.43547528690E+04  0.43547528690E+04  0.00000000000E+00 0. -1.
         24    2    1    2    0    0 -0.89684936800E+03  0.25764111873E+03 -0.18938319821E+03  0.95555462349E+03  0.80628207016E+02 0.  0.
        254    2    1    2    0    0  0.89684936800E+03 -0.25764111873E+03 -0.36702065873E+04  0.38943613290E+04  0.90824888212E+03 0.  0.
         23    2    4    4    0    0  0.27447285785E+03 -0.42842517155E+03 -0.80995314994E+03  0.96085311523E+03  0.91275005561E+02 0.  0.
         23    2    4    4    0    0  0.62237651016E+03  0.17078405282E+03 -0.28602534374E+04  0.29335082137E+04  0.88887574119E+02 0.  0.
          4    1    3    3  502    0 -0.19805635168E+03  0.48454445042E+02 -0.74764546860E+02  0.21717248710E+03  0.00000000000E+00 0. -1.
         -3    1    3    3    0  502 -0.69879301632E+03  0.20918667369E+03 -0.11461865135E+03  0.73838213639E+03  0.00000000000E+00 0.  1.
         11    1    5    5    0    0  0.24039223630E+03 -0.30253907067E+03 -0.59758227041E+03  0.71163395539E+03  0.00000000000E+00 0.  1.
        -11    1    5    5    0    0  0.34080621544E+02 -0.12588610088E+03 -0.21237087954E+03  0.24921915985E+03  0.00000000000E+00 0. -1.
          1    1    6    6  503    0  0.46449680777E+03  0.15128221911E+03 -0.20110061208E+04  0.20694900850E+04  0.00000000000E+00 0. -1.
         -1    1    6    6    0  503  0.15787970238E+03  0.19501833713E+02 -0.84924731663E+03  0.86401812872E+03  0.00000000000E+00 0.  1.
<mgrwt>
<rscale>  0 0.29368778E+04</rscale>
<asrwt>0</asrwt>
<pdfrwt beam="1">  1        2 0.66996197E+00 0.29368778E+04</pdfrwt>
<pdfrwt beam="2">  1       -1 0.76178937E-01 0.29368778E+04</pdfrwt>
<totfact> 0.28603336E-01</totfact>
</mgrwt>
</event>
<event>
12    6  0.9533401E-008  0.3189637E+04  0.7818608E-02  0.8191559E-01
         -1   -1    0    0    0  501 -0.00000000000E+00  0.00000000000E+00  0.17287086483E+04  0.17287086483E+04  0.00000000000E+00 0.  1.
          2   -1    0    0  501    0  0.00000000000E+00 -0.00000000000E+00 -0.14712981588E+04  0.14712981588E+04  0.00000000000E+00 0. -1.
         24    2    1    2    0    0  0.63440934730E+03  0.22829967932E+03 -0.11897189637E+04  0.13697822988E+04  0.79223543253E+02 0.  0.
        254    2    1    2    0    0 -0.63440934730E+03 -0.22829967932E+03  0.14471294533E+04  0.18302245083E+04  0.89495370424E+03 0.  0.
         23    2    4    4    0    0 -0.73121816379E+03  0.11462359752E+03  0.87318881464E+03  0.11482325378E+04  0.90336496439E+02 0.  0.
         23    2    4    4    0    0  0.96808816499E+02 -0.34292327684E+03  0.57394063867E+03  0.68199197057E+03  0.93471227935E+02 0.  0.
          4    1    3    3  502    0  0.60760875849E+03  0.22997352876E+03 -0.11613638117E+04  0.13307299239E+04  0.00000000000E+00 0. -1.
         -3    1    3    3    0  502  0.26800588808E+02 -0.16738494421E+01 -0.28355152019E+02  0.39052374812E+02  0.00000000000E+00 0.  1.
         11    1    5    5    0    0 -0.35900506399E+03  0.93909838385E+02  0.47509612701E+03  0.60284328280E+03  0.00000000000E+00 0. -1.
        -11    1    5    5    0    0 -0.37221309980E+03  0.20713759135E+02  0.39809268763E+03  0.54538925496E+03  0.00000000000E+00 0.  1.
          3    1    6    6  503    0  0.27465729957E+01 -0.79761269773E+02  0.71957829314E+02  0.10745851766E+03  0.00000000000E+00 0. -1.
         -3    1    6    6    0  503  0.94062243504E+02 -0.26316200707E+03  0.50198280936E+03  0.57453345291E+03  0.00000000000E+00 0.  1.
<mgrwt>
<rscale>  0 0.31896369E+04</rscale>
<asrwt>0</asrwt>
<pdfrwt beam="1">  1        2 0.22635356E+00 0.31896369E+04</pdfrwt>
<pdfrwt beam="2">  1       -1 0.26595518E+00 0.31896369E+04</pdfrwt>
<totfact> 0.69406676E-01</totfact>
</mgrwt>
</event>
<event>
12    6  0.9533401E-008  0.1817656E+04  0.7818608E-02  0.8696966E-01
          4   -1    0    0  501    0  0.00000000000E+00  0.00000000000E+00  0.21191204185E+04  0.21191204185E+04  0.00000000000E+00 0. -1.
         -1   -1    0    0    0  501 -0.00000000000E+00 -0.00000000000E+00 -0.38976947077E+03  0.38976947077E+03  0.00000000000E+00 0.  1.
         24    2    1    2    0    0 -0.42520491108E+03 -0.14342522652E+03  0.13389254078E+04  0.14143695841E+04  0.79687268581E+02 0.  0.
        254    2    1    2    0    0  0.42520491108E+03  0.14342522652E+03  0.39042553991E+03  0.10945203052E+04  0.91878865044E+03 0.  0.
         23    2    4    4    0    0 -0.58638489775E+02  0.43396427804E+03  0.20466917753E+03  0.49144305682E+03  0.88675468808E+02 0.  0.
         23    2    4    4    0    0  0.48384340085E+03 -0.29053905151E+03  0.18575636238E+03  0.60307724834E+03  0.10334100973E+03 0.  0.
          2    1    3    3  502    0 -0.41292722205E+03 -0.14903112219E+03  0.12597000085E+04  0.13340027277E+04  0.00000000000E+00 0. -1.
         -1    1    3    3    0  502 -0.12277689029E+02  0.56058956661E+01  0.79225399309E+02  0.80366856413E+02  0.00000000000E+00 0.  1.
         11    1    5    5    0    0 -0.78557133008E+01  0.22810888360E+03  0.64180327341E+02  0.23709594983E+03  0.00000000000E+00 0. -1.
        -11    1    5    5    0    0 -0.50782776474E+02  0.20585539444E+03  0.14048885019E+03  0.25434710699E+03  0.00000000000E+00 0.  1.
          1    1    6    6  503    0  0.15419759279E+03 -0.95719553082E+02  0.10028552036E+02  0.18176826544E+03  0.00000000000E+00 0. -1.
         -1    1    6    6    0  503  0.32964580806E+03 -0.19481949843E+03  0.17572781034E+03  0.42130898290E+03  0.00000000000E+00 0.  1.
<mgrwt>
<rscale>  0 0.18176561E+04</rscale>
<asrwt>0</asrwt>
<pdfrwt beam="1">  1        4 0.32601852E+00 0.18176561E+04</pdfrwt>
<pdfrwt beam="2">  1       -1 0.59964535E-01 0.18176561E+04</pdfrwt>
<totfact> 0.22890812E-01</totfact>
</mgrwt>
</event>
<event>
12    6  0.9533401E-008  0.1519208E+04  0.7818608E-02  0.8871779E-01
          2   -1    0    0  501    0  0.00000000000E+00  0.00000000000E+00  0.17996130208E+04  0.17996130208E+04  0.00000000000E+00 0. -1.
         -1   -1    0    0    0  501 -0.00000000000E+00 -0.00000000000E+00 -0.32062355567E+03  0.32062355567E+03  0.00000000000E+00 0.  1.
         24    2    1    2    0    0  0.39023308733E+03 -0.11607634453E+03  0.10312051225E+03  0.42772067755E+03  0.80966398884E+02 0.  0.
        254    2    1    2    0    0 -0.39023308733E+03  0.11607634453E+03  0.13758689528E+04  0.16925158989E+04  0.89768541947E+03 0.  0.
         23    2    4    4    0    0  0.49745670443E+02 -0.19849308325E+03  0.14076302477E+02  0.22444848590E+03  0.91130920694E+02 0.  0.
         23    2    4    4    0    0 -0.43997875778E+03  0.31456942778E+03  0.13617926504E+04  0.14680674130E+04  0.90595111571E+02 0.  0.
          4    1    3    3  502    0  0.13781106121E+03 -0.24342061393E+01  0.43668367176E+02  0.14458471649E+03  0.00000000000E+00 0. -1.
         -3    1    3    3    0  502  0.25242202613E+03 -0.11364213839E+03  0.59452145070E+02  0.28313596106E+03  0.00000000000E+00 0.  1.
         11    1    5    5    0    0  0.89495933610E+01  0.69476574605E+01  0.97565339915E+01  0.14951759798E+02  0.00000000000E+00 0. -1.
        -11    1    5    5    0    0  0.40796077082E+02 -0.20544074071E+03  0.43197684859E+01  0.20949672610E+03  0.00000000000E+00 0.  1.
          1    1    6    6  503    0 -0.22536381229E+02  0.33431334072E+02  0.59179064319E+02  0.71607989990E+02  0.00000000000E+00 0. -1.
         -1    1    6    6    0  503 -0.41744237655E+03  0.28113809371E+03  0.13026135860E+04  0.13964594230E+04  0.00000000000E+00 0.  1.
<mgrwt>
<rscale>  0 0.15192081E+04</rscale>
<asrwt>0</asrwt>
<pdfrwt beam="1">  1        2 0.27686354E+00 0.15192081E+04</pdfrwt>
<pdfrwt beam="2">  1       -1 0.49326702E-01 0.15192081E+04</pdfrwt>
<totfact> 0.39082023E+01</totfact>
</mgrwt>
</event>
<event>
12    6  0.9533401E-008  0.2382916E+04  0.7818608E-02  0.8445927E-01
         -1   -1    0    0    0  501 -0.00000000000E+00  0.00000000000E+00  0.71503347254E+03  0.71503347254E+03  0.00000000000E+00 0.  1.
          2   -1    0    0  501    0  0.00000000000E+00 -0.00000000000E+00 -0.19853221468E+04  0.19853221468E+04  0.00000000000E+00 0. -1.
         24    2    1    2    0    0  0.51156596245E+03  0.73107014354E+03 -0.11268505059E+04  0.14396731767E+04  0.81874932116E+02 0.  0.
        254    2    1    2    0    0 -0.51156596245E+03 -0.73107014354E+03 -0.14343816840E+03  0.12606824426E+04  0.87896667983E+03 0.  0.
         23    2    4    4    0    0  0.21980649491E+02 -0.43016339636E+03  0.27054648762E+03  0.51599186392E+03  0.86766958869E+02 0.  0.
         23    2    4    4    0    0 -0.53354661194E+03 -0.30090674718E+03 -0.41398465602E+03  0.74469057869E+03  0.89240713567E+02 0.  0.
          4    1    3    3  502    0  0.37787470794E+03  0.59810145231E+03 -0.88968756613E+03  0.11366875593E+04  0.00000000000E+00 0. -1.
         -3    1    3    3    0  502  0.13369125452E+03  0.13296869122E+03 -0.23716293974E+03  0.30298561742E+03  0.00000000000E+00 0.  1.
         11    1    5    5    0    0 -0.58063922129E+01 -0.23849721633E+03  0.19494862106E+03  0.30809024853E+03  0.00000000000E+00 0. -1.
        -11    1    5    5    0    0  0.27787041704E+02 -0.19166618003E+03  0.75597866561E+02  0.20790161539E+03  0.00000000000E+00 0.  1.
          4    1    6    6  503    0 -0.24621066384E+03 -0.12302256848E+03 -0.23698128988E+03  0.36320018598E+03  0.00000000000E+00 0. -1.
         -4    1    6    6    0  503 -0.28733594811E+03 -0.17788417870E+03 -0.17700336613E+03  0.38149039271E+03  0.00000000000E+00 0.  1.
<mgrwt>
<rscale>  0 0.23829157E+04</rscale>
<asrwt>0</asrwt>
<pdfrwt beam="1">  1        2 0.30543417E+00 0.23829157E+04</pdfrwt>
<pdfrwt beam="2">  1       -1 0.11000515E+00 0.23829157E+04</pdfrwt>
<totfact> 0.53236497E+00</totfact>
</mgrwt>
</event>
<event>
12    6  0.9533401E-008  0.1391099E+04  0.7818608E-02  0.8960287E-01
          2   -1    0    0  501    0  0.00000000000E+00  0.00000000000E+00  0.13670383791E+04  0.13670383791E+04  0.00000000000E+00 0. -1.
         -1   -1    0    0    0  501 -0.00000000000E+00 -0.00000000000E+00 -0.35389573535E+03  0.35389573535E+03  0.00000000000E+00 0.  1.
         24    2    1    2    0    0 -0.27479920256E+03 -0.21456050141E+03  0.33269855844E+03  0.48939218799E+03  0.85238326948E+02 0.  0.
        254    2    1    2    0    0  0.27479920256E+03  0.21456050141E+03  0.68044408531E+03  0.12315419265E+04  0.96547426320E+03 0.  0.
         23    2    4    4    0    0 -0.70060445240E+02 -0.31940154437E+03  0.71687510519E+02  0.34671230884E+03  0.90246957878E+02 0.  0.
         23    2    4    4    0    0  0.34485964780E+03  0.53396204578E+03  0.60875657479E+03  0.88482961762E+03  0.91078218300E+02 0.  0.
          4    1    3    3  502    0 -0.27640733068E+03 -0.21991886381E+03  0.32603234163E+03  0.48068951195E+03  0.00000000000E+00 0. -1.
         -3    1    3    3    0  502  0.16081281129E+01  0.53583624004E+01  0.66662168102E+01  0.87026760368E+01  0.00000000000E+00 0.  1.
         11    1    5    5    0    0 -0.38035187255E+02 -0.23682235866E+03  0.90145832937E+02  0.25623773381E+03  0.00000000000E+00 0.  1.
        -11    1    5    5    0    0 -0.32025257985E+02 -0.82579185705E+02 -0.18458322418E+02  0.90474575032E+02  0.00000000000E+00 0. -1.
          4    1    6    6  503    0  0.32647143338E+03  0.51741067384E+03  0.55660492908E+03  0.82710727798E+03  0.00000000000E+00 0. -1.
         -4    1    6    6    0  503  0.18388214427E+02  0.16551371938E+02  0.52151645707E+02  0.57722339634E+02  0.00000000000E+00 0.  1.
<mgrwt>
<rscale>  0 0.13910989E+04</rscale>
<asrwt>0</asrwt>
<pdfrwt beam="1">  1        2 0.21031359E+00 0.13910989E+04</pdfrwt>
<pdfrwt beam="2">  1       -1 0.54445499E-01 0.13910989E+04</pdfrwt>
<totfact> 0.57167220E+01</totfact>
</mgrwt>
</event>
<event>
12    6  0.9533401E-008  0.1378045E+04  0.7818608E-02  0.8969866E-01
         -1   -1    0    0    0  501 -0.00000000000E+00  0.00000000000E+00  0.85963333276E+03  0.85963333276E+03  0.00000000000E+00 0.  1.
          2   -1    0    0  501    0  0.00000000000E+00 -0.00000000000E+00 -0.55227293413E+03  0.55227293413E+03  0.00000000000E+00 0. -1.
         24    2    1    2    0    0  0.26139042998E+03 -0.59866881988E+02 -0.19435695741E+03  0.34069957041E+03  0.79953548626E+02 0.  0.
        254    2    1    2    0    0 -0.26139042998E+03  0.59866881988E+02  0.50171735604E+03  0.10712066965E+04  0.90766429960E+03 0.  0.
         23    2    4    4    0    0  0.14362129933E+03 -0.29952637284E+03  0.37085914054E+03  0.50615002749E+03  0.91149451791E+02 0.  0.
         23    2    4    4    0    0 -0.40501172931E+03  0.35939325483E+03  0.13085821549E+03  0.56505666898E+03  0.94695058495E+02 0.  0.
          4    1    3    3  502    0  0.26111955301E+03 -0.45276629887E+02 -0.18109634889E+03  0.32098174677E+03  0.00000000000E+00 0. -1.
         -3    1    3    3    0  502  0.27087697097E+00 -0.14590252101E+02 -0.13260608518E+02  0.19717823637E+02  0.00000000000E+00 0.  1.
         11    1    5    5    0    0  0.16490208582E+02 -0.37925385462E+02  0.10200444603E+03  0.11006892773E+03  0.00000000000E+00 0.  1.
        -11    1    5    5    0    0  0.12713109074E+03 -0.26160098738E+03  0.26885469452E+03  0.39608109977E+03  0.00000000000E+00 0. -1.
          1    1    6    6  503    0 -0.30868759031E+03  0.31568138271E+03  0.84363085552E+02  0.44951072736E+03  0.00000000000E+00 0. -1.
         -1    1    6    6    0  503 -0.96324138997E+02  0.43711872111E+02  0.46495129942E+02  0.11554594162E+03  0.00000000000E+00 0.  1.
<mgrwt>
<rscale>  0 0.13780453E+04</rscale>
<asrwt>0</asrwt>
<pdfrwt beam="1">  1        2 0.84965067E-01 0.13780453E+04</pdfrwt>
<pdfrwt beam="2">  1       -1 0.13225128E+00 0.13780453E+04</pdfrwt>
<totfact> 0.29646463E+01</totfact>
</mgrwt>
</event>
<event>
12    6  0.9533401E-008  0.1437300E+04  0.7818608E-02  0.8927253E-01
         -1   -1    0    0    0  501 -0.00000000000E+00  0.00000000000E+00  0.83789131569E+03  0.83789131569E+03  0.00000000000E+00 0.  1.
          2   -1    0    0  501    0  0.00000000000E+00 -0.00000000000E+00 -0.61637800738E+03  0.61637800738E+03  0.00000000000E+00 0. -1.
         24    2    1    2    0    0 -0.40380960924E+03  0.13772283112E+03  0.11733806808E+01  0.43428195915E+03  0.81053466885E+02 0.  0.
        254    2    1    2    0    0  0.40380960924E+03 -0.13772283112E+03  0.22033992762E+03  0.10199873639E+04  0.89988597063E+03 0.  0.
         23    2    4    4    0    0  0.38412121239E+03  0.58498372531E+02  0.51634467181E+03  0.65264860061E+03  0.91472456957E+02 0.  0.
         23    2    4    4    0    0  0.19688396850E+02 -0.19622120365E+03 -0.29600474418E+03  0.36733876332E+03  0.91807214978E+02 0.  0.
          2    1    3    3  502    0 -0.31957382257E+03  0.82738322231E+02  0.24503679432E+02  0.33101886403E+03  0.00000000000E+00 0. -1.
         -1    1    3    3    0  502 -0.84235786663E+02  0.54984508891E+02 -0.23330298751E+02  0.10326309511E+03  0.00000000000E+00 0.  1.
         11    1    5    5    0    0  0.92762537652E+01  0.16470865283E+02  0.46048399443E+02  0.49777438447E+02  0.00000000000E+00 0. -1.
        -11    1    5    5    0    0  0.37484495862E+03  0.42027507248E+02  0.47029627236E+03  0.60287116216E+03  0.00000000000E+00 0.  1.
          1    1    6    6  503    0  0.53694667241E+02 -0.88642905148E+02 -0.15993324734E+03  0.19057629844E+03  0.00000000000E+00 0. -1.
         -1    1    6    6    0  503 -0.34006270391E+02 -0.10757829850E+03 -0.13607149684E+03  0.17676246487E+03  0.00000000000E+00 0.  1.
<mgrwt>
<rscale>  0 0.14372999E+04</rscale>
<asrwt>0</asrwt>
<pdfrwt beam="1">  1        2 0.94827385E-01 0.14372999E+04</pdfrwt>
<pdfrwt beam="2">  1       -1 0.12890636E+00 0.14372999E+04</pdfrwt>
<totfact> 0.27588299E+01</totfact>
</mgrwt>
</event>
<event>
12    6  0.9533401E-008  0.1801701E+04  0.7818608E-02  0.8705396E-01
          2   -1    0    0  501    0  0.00000000000E+00  0.00000000000E+00  0.95299435791E+03  0.95299435791E+03  0.00000000000E+00 0. -1.
         -1   -1    0    0    0  501 -0.00000000000E+00 -0.00000000000E+00 -0.85155940907E+03  0.85155940907E+03  0.00000000000E+00 0.  1.
         24    2    1    2    0    0  0.47952811032E+02  0.36612676094E+03  0.61057811862E+03  0.71795160245E+03  0.79376239281E+02 0.  0.
        254    2    1    2    0    0 -0.47952811032E+02 -0.36612676094E+03 -0.50914316977E+03  0.10866021645E+04  0.88607517710E+03 0.  0.
         23    2    4    4    0    0 -0.33123738786E+01 -0.55398213052E+03 -0.62829508211E+03  0.84289309836E+03  0.93845044098E+02 0.  0.
         23    2    4    4    0    0 -0.44640437153E+02  0.18785536957E+03  0.11915191233E+03  0.24370906618E+03  0.88963600515E+02 0.  0.
          2    1    3    3  502    0  0.61026281956E+02  0.16973649819E+03  0.27374289673E+03  0.32782595903E+03  0.00000000000E+00 0. -1.
         -1    1    3    3    0  502 -0.13073470924E+02  0.19639026275E+03  0.33683522189E+03  0.39012564342E+03  0.00000000000E+00 0.  1.
         11    1    5    5    0    0  0.23059820842E+02 -0.35982453833E+02 -0.39058336981E+02  0.57896856641E+02  0.00000000000E+00 0. -1.
        -11    1    5    5    0    0 -0.26372194721E+02 -0.51799967668E+03 -0.58923674513E+03  0.78499624172E+03  0.00000000000E+00 0.  1.
          1    1    6    6  503    0 -0.33510699997E+02  0.27008124110E+02  0.55817205242E+02  0.70483800857E+02  0.00000000000E+00 0. -1.
         -1    1    6    6    0  503 -0.11129737156E+02  0.16084724546E+03  0.63334707093E+02  0.17322526532E+03  0.00000000000E+00 0.  1.
<mgrwt>
<rscale>  0 0.18017007E+04</rscale>
<asrwt>0</asrwt>
<pdfrwt beam="1">  1        2 0.14661452E+00 0.18017007E+04</pdfrwt>
<pdfrwt beam="2">  1       -1 0.13100914E+00 0.18017007E+04</pdfrwt>
<totfact> 0.14477873E+01</totfact>
</mgrwt>
</event>
<event>
12    6  0.9533401E-008  0.3326536E+04  0.7818608E-02  0.8156176E-01
          2   -1    0    0  501    0  0.00000000000E+00  0.00000000000E+00  0.19577433870E+04  0.19577433870E+04  0.00000000000E+00 0. -1.
         -1   -1    0    0    0  501 -0.00000000000E+00 -0.00000000000E+00 -0.14130864490E+04  0.14130864490E+04  0.00000000000E+00 0.  1.
         24    2    1    2    0    0 -0.91831682934E+03 -0.67957911499E+03 -0.79361769311E+03  0.13933630368E+04  0.80609782638E+02 0.  0.
        254    2    1    2    0    0  0.91831682934E+03  0.67957911499E+03  0.13382746312E+04  0.19774667991E+04  0.90236488224E+03 0.  0.
         23    2    4    4    0    0  0.37615272826E+03  0.51986010233E+02 -0.11347452068E+02  0.39025592778E+03  0.89316875582E+02 0.  0.
         23    2    4    4    0    0  0.54216410108E+03  0.62759310476E+03  0.13496220832E+04  0.15872108714E+04  0.99717425621E+02 0.  0.
          2    1    3    3  502    0 -0.49749728252E+03 -0.41596012075E+03 -0.46273201208E+03  0.79664752756E+03  0.00000000000E+00 0. -1.
         -3    1    3    3    0  502 -0.42081954682E+03 -0.26361899424E+03 -0.33088568103E+03  0.59671550928E+03  0.00000000000E+00 0.  1.
         11    1    5    5    0    0  0.57807827980E+02  0.41730915782E+02  0.36801570599E+01  0.71391581183E+02  0.00000000000E+00 0.  1.
        -11    1    5    5    0    0  0.31834490028E+03  0.10255094450E+02 -0.15027609128E+02  0.31886434660E+03  0.00000000000E+00 0. -1.
          4    1    6    6  503    0  0.36713006122E+03  0.49193855474E+03  0.98482613764E+03  0.11604613500E+04  0.00000000000E+00 0. -1.
         -4    1    6    6    0  503  0.17503403985E+03  0.13565455002E+03  0.36479594559E+03  0.42674952134E+03  0.00000000000E+00 0.  1.
<mgrwt>
<rscale>  0 0.33265361E+04</rscale>
<asrwt>0</asrwt>
<pdfrwt beam="1">  1        2 0.30119129E+00 0.33265361E+04</pdfrwt>
<pdfrwt beam="2">  1       -1 0.21739791E+00 0.33265361E+04</pdfrwt>
<totfact> 0.76606674E-01</totfact>
</mgrwt>
</event>
<event>
12    6  0.9533401E-008  0.1778348E+04  0.7818608E-02  0.8717899E-01
         -1   -1    0    0    0  501 -0.00000000000E+00  0.00000000000E+00  0.99267731953E+03  0.99267731953E+03  0.00000000000E+00 0.  1.
          2   -1    0    0  501    0  0.00000000000E+00 -0.00000000000E+00 -0.79646270353E+03  0.79646270353E+03  0.00000000000E+00 0. -1.
         24    2    1    2    0    0 -0.13749576311E+03 -0.63194372223E+03  0.22681888083E+03  0.68993244866E+03  0.79385301327E+02 0.  0.
        254    2    1    2    0    0  0.13749576311E+03  0.63194372223E+03 -0.30604264822E+02  0.10992075744E+04  0.88829202273E+03 0.  0.
         23    2    4    4    0    0 -0.29902398270E+03  0.33024413540E+03 -0.24765603863E+03  0.51856441699E+03  0.95388730498E+02 0.  0.
         23    2    4    4    0    0  0.43651974581E+03  0.30169958684E+03  0.21705177381E+03  0.58064315741E+03  0.91993883265E+02 0.  0.
          2    1    3    3  502    0 -0.86494149894E+01 -0.69749232510E+01 -0.33059072241E+01  0.11592711356E+02  0.00000000000E+00 0. -1.
         -1    1    3    3    0  502 -0.12884634812E+03 -0.62496879898E+03  0.23012478805E+03  0.67833973730E+03  0.00000000000E+00 0.  1.
         11    1    5    5    0    0 -0.25822272120E+03  0.23227774918E+03 -0.16767692713E+03  0.38567794648E+03  0.00000000000E+00 0. -1.
        -11    1    5    5    0    0 -0.40801261492E+02  0.97966386216E+02 -0.79979111500E+02  0.13288647051E+03  0.00000000000E+00 0.  1.
          4    1    6    6  503    0 -0.18288375507E+00 -0.38982400588E+01 -0.19899959843E+01  0.43806170846E+01  0.00000000000E+00 0.  1.
         -4    1    6    6    0  503  0.43670262956E+03  0.30559782690E+03  0.21904176979E+03  0.57626254033E+03  0.00000000000E+00 0. -1.
<mgrwt>
<rscale>  0 0.17783481E+04</rscale>
<asrwt>0</asrwt>
<pdfrwt beam="1">  1        2 0.12253272E+00 0.17783481E+04</pdfrwt>
<pdfrwt beam="2">  1       -1 0.15271959E+00 0.17783481E+04</pdfrwt>
<totfact> 0.12431144E+01</totfact>
</mgrwt>
</event>
<event>
12    6  0.9533401E-008  0.2570616E+04  0.7818608E-02  0.8378251E-01
         -1   -1    0    0    0  501 -0.00000000000E+00  0.00000000000E+00  0.99791684093E+03  0.99791684093E+03  0.00000000000E+00 0.  1.
          2   -1    0    0  501    0  0.00000000000E+00 -0.00000000000E+00 -0.16554652183E+04  0.16554652183E+04  0.00000000000E+00 0. -1.
         24    2    1    2    0    0 -0.30226129162E+02  0.84604739813E+03  0.48202853054E+03  0.97704610443E+03  0.74550433691E+02 0.  0.
        254    2    1    2    0    0  0.30226129162E+02 -0.84604739813E+03 -0.11395769079E+04  0.16763359548E+04  0.89149138276E+03 0.  0.
         23    2    4    4    0    0 -0.30176612363E+03 -0.76226129508E+03 -0.99790053788E+03  0.12944536754E+04  0.87748269900E+02 0.  0.
         23    2    4    4    0    0  0.33199225279E+03 -0.83786103058E+02 -0.14167637001E+03  0.38188227940E+03  0.92319632359E+02 0.  0.
          4    1    3    3  502    0 -0.88484305807E+01  0.31705822744E+03  0.22245362575E+03  0.38741428719E+03  0.00000000000E+00 0. -1.
         -3    1    3    3    0  502 -0.21377698581E+02  0.52898917069E+03  0.25957490479E+03  0.58963181724E+03  0.00000000000E+00 0.  1.
         11    1    5    5    0    0 -0.10766357584E+03 -0.35527173492E+03 -0.49967708045E+03  0.62248424552E+03  0.00000000000E+00 0.  1.
        -11    1    5    5    0    0 -0.19410254779E+03 -0.40698956015E+03 -0.49822345743E+03  0.67196942986E+03  0.00000000000E+00 0. -1.
          1    1    6    6  503    0  0.17716876379E+03 -0.31726421694E+02 -0.12182201505E+03  0.21733830783E+03  0.00000000000E+00 0. -1.
         -1    1    6    6    0  503  0.15482348900E+03 -0.52059681364E+02 -0.19854354958E+02  0.16454397157E+03  0.00000000000E+00 0.  1.
<mgrwt>
<rscale>  0 0.25706160E+04</rscale>
<asrwt>0</asrwt>
<pdfrwt beam="1">  1        2 0.25468696E+00 0.25706160E+04</pdfrwt>
<pdfrwt beam="2">  1       -1 0.15352567E+00 0.25706160E+04</pdfrwt>
<totfact> 0.34341565E+00</totfact>
</mgrwt>
</event>
<event>
12    6  0.9533401E-008  0.2055564E+04  0.7818608E-02  0.8581074E-01
          2   -1    0    0  501    0  0.00000000000E+00  0.00000000000E+00  0.21713324413E+04  0.21713324413E+04  0.00000000000E+00 0. -1.
         -1   -1    0    0    0  501 -0.00000000000E+00 -0.00000000000E+00 -0.48649209970E+03  0.48649209970E+03  0.00000000000E+00 0.  1.
         24    2    1    2    0    0  0.16976084326E+03  0.69340004936E+03  0.13262841626E+03  0.72981138915E+03  0.73566259730E+02 0.  0.
        254    2    1    2    0    0 -0.16976084326E+03 -0.69340004936E+03  0.15522119254E+04  0.19280131519E+04  0.89344864443E+03 0.  0.
         23    2    4    4    0    0 -0.38394913796E+01 -0.83802595313E+03  0.14291776892E+04  0.16594024151E+04  0.93623010948E+02 0.  0.
         23    2    4    4    0    0 -0.16592135188E+03  0.14462590377E+03  0.12303423617E+03  0.26861073677E+03  0.92562182279E+02 0.  0.
          2    1    3    3  502    0  0.55890333379E+02  0.35738151798E+03  0.46351024108E+02  0.36468300782E+03  0.00000000000E+00 0. -1.
         -1    1    3    3    0  502  0.11387050988E+03  0.33601853139E+03  0.86277392151E+02  0.36512838133E+03  0.00000000000E+00 0.  1.
         11    1    5    5    0    0 -0.40346795098E+02 -0.51856422540E+03  0.93183852655E+03  0.10671737250E+04  0.00000000000E+00 0. -1.
        -11    1    5    5    0    0  0.36507303719E+02 -0.31946172773E+03  0.49733916265E+03  0.59222869013E+03  0.00000000000E+00 0.  1.
          4    1    6    6  503    0 -0.18158891658E+02 -0.10423228645E+02 -0.12604157237E+01  0.20975645149E+02  0.00000000000E+00 0. -1.
         -4    1    6    6    0  503 -0.14776246022E+03  0.15504913241E+03  0.12429465189E+03  0.24763509162E+03  0.00000000000E+00 0.  1.
<mgrwt>
<rscale>  0 0.20555642E+04</rscale>
<asrwt>0</asrwt>
<pdfrwt beam="1">  1        2 0.33405114E+00 0.20555642E+04</pdfrwt>
<pdfrwt beam="2">  1       -1 0.74844940E-01 0.20555642E+04</pdfrwt>
<totfact> 0.10131668E+01</totfact>
</mgrwt>
</event>
<event>
12    6  0.9533401E-008  0.2458695E+04  0.7818608E-02  0.8417850E-01
          2   -1    0    0  501    0  0.00000000000E+00  0.00000000000E+00  0.32501697975E+04  0.32501697975E+04  0.00000000000E+00 0. -1.
         -1   -1    0    0    0  501 -0.00000000000E+00 -0.00000000000E+00 -0.46498960249E+03  0.46498960249E+03  0.00000000000E+00 0.  1.
         24    2    1    2    0    0 -0.96835335754E+02 -0.10481789617E+04  0.14383120607E+04  0.17841339314E+04  0.79599517446E+02 0.  0.
        254    2    1    2    0    0  0.96835335754E+02  0.10481789617E+04  0.13468681343E+04  0.19310254686E+04  0.89819227952E+03 0.  0.
         23    2    4    4    0    0  0.22451395472E+03  0.99727902332E+02  0.76270920719E+03  0.80643991892E+03  0.90927650998E+02 0.  0.
         23    2    4    4    0    0 -0.12767861896E+03  0.94845105941E+03  0.58415892715E+03  0.11245855497E+04  0.87119254824E+02 0.  0.
          2    1    3    3  502    0 -0.20335895318E+02 -0.44893350538E+03  0.67020025448E+03  0.80692206687E+03  0.00000000000E+00 0. -1.
         -1    1    3    3    0  502 -0.76499440436E+02 -0.59924545636E+03  0.76811180622E+03  0.97721186454E+03  0.00000000000E+00 0.  1.
         11    1    5    5    0    0  0.43392328763E+02  0.56824992514E+02  0.15162882553E+03  0.16764031347E+03  0.00000000000E+00 0.  1.
        -11    1    5    5    0    0  0.18112162595E+03  0.42902909819E+02  0.61108038167E+03  0.63879960545E+03  0.00000000000E+00 0. -1.
          3    1    6    6  503    0 -0.12584186633E+03  0.86676229367E+03  0.50597182327E+03  0.10114942091E+04  0.00000000000E+00 0. -1.
         -3    1    6    6    0  503 -0.18367526324E+01  0.81688765740E+02  0.78187103880E+02  0.11309134061E+03  0.00000000000E+00 0.  1.
<mgrwt>
<rscale>  0 0.24586949E+04</rscale>
<asrwt>0</asrwt>
<pdfrwt beam="1">  1        2 0.50002611E+00 0.24586949E+04</pdfrwt>
<pdfrwt beam="2">  1       -1 0.71536864E-01 0.24586949E+04</pdfrwt>
<totfact> 0.24155475E+00</totfact>
</mgrwt>
</event>
<event>
12    6  0.9533401E-008  0.2038289E+04  0.7818608E-02  0.8588926E-01
          2   -1    0    0  501    0  0.00000000000E+00  0.00000000000E+00  0.21402508368E+04  0.21402508368E+04  0.00000000000E+00 0. -1.
         -1   -1    0    0    0  501 -0.00000000000E+00 -0.00000000000E+00 -0.48529596723E+03  0.48529596723E+03  0.00000000000E+00 0.  1.
         24    2    1    2    0    0 -0.63204231732E+03  0.38641763830E+03  0.10512923428E+04  0.12883987889E+04  0.77199528291E+02 0.  0.
        254    2    1    2    0    0  0.63204231732E+03 -0.38641763830E+03  0.60366252674E+03  0.13371480151E+04  0.93528620538E+03 0.  0.
         23    2    4    4    0    0  0.47669097553E+03 -0.77117062609E+02  0.79364715513E+03  0.93354040222E+03  0.91872456346E+02 0.  0.
         23    2    4    4    0    0  0.15535134179E+03 -0.30930057569E+03 -0.18998462839E+03  0.40360761286E+03  0.83690265950E+02 0.  0.
          4    1    3    3  502    0 -0.53926172270E+03  0.29624875645E+03  0.85825086897E+03  0.10560118775E+04  0.00000000000E+00 0. -1.
         -3    1    3    3    0  502 -0.92780594628E+02  0.90168881847E+02  0.19304147386E+03  0.23238691147E+03  0.00000000000E+00 0.  1.
         11    1    5    5    0    0  0.19480301367E+02 -0.11651798973E+02  0.12114465856E+02  0.25729493653E+02  0.00000000000E+00 0. -1.
        -11    1    5    5    0    0  0.45721067417E+03 -0.65465263637E+02  0.78153268927E+03  0.90781090857E+03  0.00000000000E+00 0.  1.
          3    1    6    6  503    0  0.26361755240E+02 -0.35374814512E+02 -0.59104954754E+02  0.73754425749E+02  0.00000000000E+00 0. -1.
         -3    1    6    6    0  503  0.12898958655E+03 -0.27392576118E+03 -0.13087967364E+03  0.32985318711E+03  0.00000000000E+00 0.  1.
<mgrwt>
<rscale>  0 0.20382886E+04</rscale>
<asrwt>0</asrwt>
<pdfrwt beam="1">  1        2 0.32926936E+00 0.20382886E+04</pdfrwt>
<pdfrwt beam="2">  1       -1 0.74660919E-01 0.20382886E+04</pdfrwt>
<totfact> 0.10616612E+01</totfact>
</mgrwt>
</event>
<event>
12    6  0.9533401E-008  0.1752963E+04  0.7818608E-02  0.8731721E-01
         -1   -1    0    0    0  501 -0.00000000000E+00  0.00000000000E+00  0.70011273875E+03  0.70011273875E+03  0.00000000000E+00 0.  1.
          2   -1    0    0  501    0  0.00000000000E+00 -0.00000000000E+00 -0.10972803252E+04  0.10972803252E+04  0.00000000000E+00 0. -1.
         24    2    1    2    0    0  0.19325854983E+03 -0.34972550689E+02  0.47919716851E+03  0.52399891913E+03  0.79831037502E+02 0.  0.
        254    2    1    2    0    0 -0.19325854983E+03  0.34972550689E+02 -0.87636475493E+03  0.12733941448E+04  0.90274332894E+03 0.  0.
         23    2    4    4    0    0 -0.19234836518E+03 -0.27255211084E+03 -0.88632673612E+03  0.95226751090E+03  0.99778667302E+02 0.  0.
         23    2    4    4    0    0 -0.91018465053E+00  0.30752466153E+03  0.99619811877E+01  0.32112663390E+03  0.91928385406E+02 0.  0.
          4    1    3    3  502    0  0.99922978436E+01  0.17220489619E+02  0.29442326835E+02  0.35542114293E+02  0.00000000000E+00 0. -1.
         -3    1    3    3    0  502  0.18326625198E+03 -0.52193040309E+02  0.44975484168E+03  0.48845680483E+03  0.00000000000E+00 0.  1.
         11    1    5    5    0    0 -0.10863800942E+03 -0.12597857926E+03 -0.31105338327E+03  0.35274215338E+03  0.00000000000E+00 0.  1.
        -11    1    5    5    0    0 -0.83710355760E+02 -0.14657353158E+03 -0.57527335284E+03  0.59952535752E+03  0.00000000000E+00 0. -1.
          4    1    6    6  503    0 -0.25369299623E+02  0.25914375697E+03  0.32525846197E+02  0.26240620955E+03  0.00000000000E+00 0. -1.
         -4    1    6    6    0  503  0.24459114973E+02  0.48380904563E+02 -0.22563865009E+02  0.58720424349E+02  0.00000000000E+00 0.  1.
<mgrwt>
<rscale>  0 0.17529631E+04</rscale>
<asrwt>0</asrwt>
<pdfrwt beam="1">  1        2 0.16881236E+00 0.17529631E+04</pdfrwt>
<pdfrwt beam="2">  1       -1 0.10770965E+00 0.17529631E+04</pdfrwt>
<totfact> 0.18961322E+01</totfact>
</mgrwt>
</event>
<event>
12    6  0.9533401E-008  0.1278957E+04  0.7818608E-02  0.9046421E-01
         -1   -1    0    0    0  501 -0.00000000000E+00  0.00000000000E+00  0.30073941792E+03  0.30073941792E+03  0.00000000000E+00 0.  1.
          2   -1    0    0  501    0  0.00000000000E+00 -0.00000000000E+00 -0.13597586027E+04  0.13597586027E+04  0.00000000000E+00 0. -1.
         24    2    1    2    0    0 -0.28183985191E+03 -0.38301746390E+02 -0.41699517298E+03  0.51501396568E+03  0.10224326214E+03 0.  0.
        254    2    1    2    0    0  0.28183985191E+03  0.38301746390E+02 -0.64202401183E+03  0.11454840550E+04  0.90500727210E+03 0.  0.
         23    2    4    4    0    0  0.47372282345E+03 -0.16928478506E+02 -0.75800391744E+03  0.89807753933E+03  0.85284470711E+02 0.  0.
         23    2    4    4    0    0 -0.19188297154E+03  0.55230224896E+02  0.11597990561E+03  0.24740651565E+03  0.88821129083E+02 0.  0.
          4    1    3    3  502    0 -0.14733258010E+03 -0.35113192849E+02 -0.30269212100E+03  0.33847059782E+03  0.00000000000E+00 0. -1.
         -3    1    3    3    0  502 -0.13450727181E+03 -0.31885535405E+01 -0.11430305198E+03  0.17654336786E+03  0.00000000000E+00 0.  1.
         11    1    5    5    0    0  0.28362835635E+02  0.13354256281E+02 -0.26120756974E+02  0.40805398552E+02  0.00000000000E+00 0. -1.
        -11    1    5    5    0    0  0.44535998781E+03 -0.30282734788E+02 -0.73188316047E+03  0.85727214078E+03  0.00000000000E+00 0.  1.
          1    1    6    6  503    0 -0.10547170376E+03  0.10930640558E+02  0.14622166195E+02  0.10704002495E+03  0.00000000000E+00 0. -1.
         -1    1    6    6    0  503 -0.86411267780E+02  0.44299584338E+02  0.10135773942E+03  0.14036649070E+03  0.00000000000E+00 0.  1.
<mgrwt>
<rscale>  0 0.12789574E+04</rscale>
<asrwt>0</asrwt>
<pdfrwt beam="1">  1        2 0.20919363E+00 0.12789574E+04</pdfrwt>
<pdfrwt beam="2">  1       -1 0.46267603E-01 0.12789574E+04</pdfrwt>
<totfact> 0.79350484E+01</totfact>
</mgrwt>
</event>
<event>
12    6  0.9533401E-008  0.1389745E+04  0.7818608E-02  0.8961275E-01
          2   -1    0    0  501    0  0.00000000000E+00  0.00000000000E+00  0.36515163072E+03  0.36515163072E+03  0.00000000000E+00 0. -1.
         -1   -1    0    0    0  501 -0.00000000000E+00 -0.00000000000E+00 -0.13223219327E+04  0.13223219327E+04  0.00000000000E+00 0.  1.
         24    2    1    2    0    0  0.13794243287E+03  0.32866399048E+02 -0.73107360612E+03  0.74887761315E+03  0.78998398345E+02 0.  0.
        254    2    1    2    0    0 -0.13794243287E+03 -0.32866399048E+02 -0.22609669587E+03  0.93859595028E+03  0.89985239180E+03 0.  0.
         23    2    4    4    0    0 -0.43010032810E+03  0.14283992755E+03 -0.33353139894E+03  0.57001415845E+03  0.91013238692E+02 0.  0.
         23    2    4    4    0    0  0.29215789523E+03 -0.17570632660E+03  0.10743470307E+03  0.36858179184E+03  0.89896456522E+02 0.  0.
          2    1    3    3  502    0 -0.31826870968E+01 -0.82507996436E+01 -0.11846627012E+02  0.14783361035E+02  0.00000000000E+00 0. -1.
         -1    1    3    3    0  502  0.14112511996E+03  0.41117198692E+02 -0.71922697911E+03  0.73409425212E+03  0.00000000000E+00 0.  1.
         11    1    5    5    0    0 -0.42105028611E+03  0.14674578371E+03 -0.33767383106E+03  0.55932216536E+03  0.00000000000E+00 0.  1.
        -11    1    5    5    0    0 -0.90500419883E+01 -0.39058561644E+01  0.41424321242E+01  0.10691993092E+02  0.00000000000E+00 0. -1.
          4    1    6    6  503    0  0.19271357541E+03 -0.10175479402E+03  0.11107246271E+03  0.24460100618E+03  0.00000000000E+00 0. -1.
         -4    1    6    6    0  503  0.99444319827E+02 -0.73951532578E+02 -0.36377596405E+01  0.12398078566E+03  0.00000000000E+00 0.  1.
<mgrwt>
<rscale>  0 0.13897453E+04</rscale>
<asrwt>0</asrwt>
<pdfrwt beam="1">  1        2 0.56177175E-01 0.13897453E+04</pdfrwt>
<pdfrwt beam="2">  1       -1 0.20343414E+00 0.13897453E+04</pdfrwt>
<totfact> 0.14001816E+01</totfact>
</mgrwt>
</event>
<event>
12    6  0.9533401E-008  0.1346090E+04  0.7818608E-02  0.8993793E-01
         -1   -1    0    0    0  501 -0.00000000000E+00  0.00000000000E+00  0.34319296200E+03  0.34319296200E+03  0.00000000000E+00 0.  1.
          2   -1    0    0  501    0  0.00000000000E+00 -0.00000000000E+00 -0.13199273786E+04  0.13199273786E+04  0.00000000000E+00 0. -1.
         24    2    1    2    0    0  0.46752984125E+02  0.48286814569E+02 -0.75544999902E+03  0.76161280699E+03  0.69511932563E+02 0.  0.
        254    2    1    2    0    0 -0.46752984125E+02 -0.48286814569E+02 -0.22128441757E+03  0.90150753360E+03  0.87133895913E+03 0.  0.
         23    2    4    4    0    0  0.25328462493E+03 -0.62366290687E+02 -0.43953135086E+03  0.51924800499E+03  0.91586171717E+02 0.  0.
         23    2    4    4    0    0 -0.30003760906E+03  0.14079476118E+02  0.21824693329E+03  0.38225952861E+03  0.90938577224E+02 0.  0.
          4    1    3    3  502    0  0.54379324502E+02  0.60849503184E+02 -0.61344767607E+03  0.61885202128E+03  0.00000000000E+00 0. -1.
         -3    1    3    3    0  502 -0.76263403769E+01 -0.12562688616E+02 -0.14200232295E+03  0.14276078571E+03  0.00000000000E+00 0.  1.
         11    1    5    5    0    0  0.25212030547E+03 -0.66871943952E+02 -0.44255121386E+03  0.51370038175E+03  0.00000000000E+00 0.  1.
        -11    1    5    5    0    0  0.11643194586E+01  0.45056532647E+01  0.30198629919E+01  0.55476232418E+01  0.00000000000E+00 0. -1.
          3    1    6    6  503    0 -0.15566758431E+03 -0.27058962079E+02  0.14810806618E+03  0.21656542545E+03  0.00000000000E+00 0. -1.
         -3    1    6    6    0  503 -0.14437002475E+03  0.41138438197E+02  0.70138867118E+02  0.16569410317E+03  0.00000000000E+00 0.  1.
<mgrwt>
<rscale>  0 0.13460903E+04</rscale>
<asrwt>0</asrwt>
<pdfrwt beam="1">  1        2 0.20306575E+00 0.13460903E+04</pdfrwt>
<pdfrwt beam="2">  1       -1 0.52798918E-01 0.13460903E+04</pdfrwt>
<totfact> 0.64804197E+01</totfact>
</mgrwt>
</event>
<event>
12    6  0.9533401E-008  0.1844303E+04  0.7818608E-02  0.8683088E-01
         -1   -1    0    0    0  501 -0.00000000000E+00  0.00000000000E+00  0.13756888882E+04  0.13756888882E+04  0.00000000000E+00 0.  1.
          2   -1    0    0  501    0  0.00000000000E+00 -0.00000000000E+00 -0.61813647972E+03  0.61813647972E+03  0.00000000000E+00 0. -1.
         24    2    1    2    0    0 -0.15876900800E+03 -0.52603480349E+03  0.75468632242E+03  0.93694944911E+03  0.80016326774E+02 0.  0.
        254    2    1    2    0    0  0.15876900800E+03  0.52603480349E+03  0.28660860179E+01  0.10568759188E+04  0.90280578246E+03 0.  0.
         23    2    4    4    0    0 -0.68331373398E+02  0.37336775332E+03 -0.40157542987E+03  0.56032800145E+03  0.92908490041E+02 0.  0.
         23    2    4    4    0    0  0.22710038140E+03  0.15266705016E+03  0.40444151588E+03  0.49654791732E+03  0.90028234394E+02 0.  0.
          4    1    3    3  502    0 -0.20594027591E+02 -0.50109885223E+02  0.12031608590E+03  0.13195103294E+03  0.00000000000E+00 0. -1.
         -3    1    3    3    0  502 -0.13817498041E+03 -0.47592491827E+03  0.63437023652E+03  0.80499841616E+03  0.00000000000E+00 0.  1.
         11    1    5    5    0    0  0.88829535108E+01  0.12309163722E+03 -0.87027288434E+02  0.15101061866E+03  0.00000000000E+00 0.  1.
        -11    1    5    5    0    0 -0.77214326909E+02  0.25027611610E+03 -0.31454814143E+03  0.40931738279E+03  0.00000000000E+00 0. -1.
          1    1    6    6  503    0  0.10851418298E+03  0.70893644094E+02  0.27003628374E+03  0.29953435732E+03  0.00000000000E+00 0. -1.
         -1    1    6    6    0  503  0.11858619842E+03  0.81773406070E+02  0.13440523215E+03  0.19701356000E+03  0.00000000000E+00 0.  1.
<mgrwt>
<rscale>  0 0.18443031E+04</rscale>
<asrwt>0</asrwt>
<pdfrwt beam="1">  1        2 0.95097920E-01 0.18443031E+04</pdfrwt>
<pdfrwt beam="2">  1       -1 0.21164444E+00 0.18443031E+04</pdfrwt>
<totfact> 0.64379872E+00</totfact>
</mgrwt>
</event>
<event>
12    6  0.9533401E-008  0.1608151E+04  0.7818608E-02  0.8815556E-01
         -1   -1    0    0    0  501 -0.00000000000E+00  0.00000000000E+00  0.37729760671E+03  0.37729760671E+03  0.00000000000E+00 0.  1.
          2   -1    0    0  501    0  0.00000000000E+00 -0.00000000000E+00 -0.17136014906E+04  0.17136014906E+04  0.00000000000E+00 0. -1.
         24    2    1    2    0    0  0.19166529786E+03 -0.97925520528E+02 -0.12032178146E+04  0.12261190112E+04  0.96486923433E+02 0.  0.
        254    2    1    2    0    0 -0.19166529786E+03  0.97925520528E+02 -0.13308606928E+03  0.86478008605E+03  0.82692666024E+03 0.  0.
         23    2    4    4    0    0  0.55620406417E+02  0.18794723264E+03 -0.41426464959E+03  0.46764514016E+03  0.93053669182E+02 0.  0.
         23    2    4    4    0    0 -0.24728570427E+03 -0.90021712115E+02  0.28117858031E+03  0.39713494589E+03  0.96956913266E+02 0.  0.
          4    1    3    3  502    0  0.16887221841E+03 -0.10291829546E+03 -0.11623967421E+04  0.11790997361E+04  0.00000000000E+00 0. -1.
         -3    1    3    3    0  502  0.22793079443E+02  0.49927749369E+01 -0.40821072463E+02  0.47019275081E+02  0.00000000000E+00 0.  1.
         11    1    5    5    0    0  0.69630424571E+02  0.93206955317E+02 -0.27530978737E+03  0.29888360873E+03  0.00000000000E+00 0. -1.
        -11    1    5    5    0    0 -0.14010018154E+02  0.94740277325E+02 -0.13895486222E+03  0.16876153143E+03  0.00000000000E+00 0.  1.
          3    1    6    6  503    0 -0.10487324680E+03  0.73352484546E+01  0.79909044935E+02  0.13205172936E+03  0.00000000000E+00 0. -1.
         -3    1    6    6    0  503 -0.14241245747E+03 -0.97356960569E+02  0.20126953537E+03  0.26508321653E+03  0.00000000000E+00 0.  1.
<mgrwt>
<rscale>  0 0.16081514E+04</rscale>
<asrwt>0</asrwt>
<pdfrwt beam="1">  1        2 0.26363100E+00 0.16081514E+04</pdfrwt>
<pdfrwt beam="2">  1       -1 0.58045786E-01 0.16081514E+04</pdfrwt>
<totfact> 0.31636095E+01</totfact>
</mgrwt>
</event>
<event>
12    6  0.1247597E-007  0.1637817E+04  0.7818608E-02  0.8797647E-01
         -1   -1    0    0    0  501 -0.00000000000E+00  0.00000000000E+00  0.27886714201E+03  0.27886714201E+03  0.00000000000E+00 0.  1.
          2   -1    0    0  501    0  0.00000000000E+00 -0.00000000000E+00 -0.24047680531E+04  0.24047680531E+04  0.00000000000E+00 0. -1.
         24    2    1    2    0    0 -0.37415998312E+02 -0.18093320149E+02 -0.16720844016E+04  0.16744996680E+04  0.79721809508E+02 0.  0.
        254    2    1    2    0    0  0.37415998312E+02  0.18093320149E+02 -0.45381650941E+03  0.10091355270E+04  0.90037645601E+03 0.  0.
         23    2    4    4    0    0 -0.21535191410E+03 -0.36335852990E+03 -0.22491312838E+03  0.48930036834E+03  0.10209342277E+03 0.  0.
         23    2    4    4    0    0  0.25276791242E+03  0.38145185005E+03 -0.22890338103E+03  0.51983515870E+03  0.91840638694E+02 0.  0.
          4    1    3    3  502    0 -0.23753793275E+02 -0.17845985875E+02 -0.16296217340E+04  0.16298925480E+04  0.00000000000E+00 0. -1.
         -3    1    3    3    0  502 -0.13662205037E+02 -0.24733427408E+00 -0.42462667594E+02  0.44607120058E+02  0.00000000000E+00 0.  1.
         11    1    5    5    0    0 -0.27426764835E+01 -0.38501076044E+02 -0.50799274509E+02  0.63799854400E+02  0.00000000000E+00 0.  1.
        -11    1    5    5    0    0 -0.21260923762E+03 -0.32485745386E+03 -0.17411385387E+03  0.42550051394E+03  0.00000000000E+00 0. -1.
          1    1    6    6  503    0  0.25115503637E+03  0.37809163109E+03 -0.23616720400E+03  0.51167087277E+03  0.00000000000E+00 0. -1.
         -1    1    6    6    0  503  0.16128760428E+01  0.33602189615E+01  0.72638229683E+01  0.81642859279E+01  0.00000000000E+00 0.  1.
<mgrwt>
<rscale>  0 0.16378166E+04</rscale>
<asrwt>0</asrwt>
<pdfrwt beam="1">  1        2 0.36996432E+00 0.16378166E+04</pdfrwt>
<pdfrwt beam="2">  1       -1 0.42902637E-01 0.16378166E+04</pdfrwt>
<totfact> 0.23059340E+01</totfact>
</mgrwt>
</event>
<event>
12    6  0.9533401E-008  0.1972658E+04  0.7818608E-02  0.8619512E-01
          2   -1    0    0  501    0  0.00000000000E+00  0.00000000000E+00  0.25017934631E+04  0.25017934631E+04  0.00000000000E+00 0. -1.
         -1   -1    0    0    0  501 -0.00000000000E+00 -0.00000000000E+00 -0.38885908569E+03  0.38885908569E+03  0.00000000000E+00 0.  1.
         24    2    1    2    0    0 -0.42605489259E+03 -0.64471938028E+03  0.99418909837E+03  0.12617581917E+04  0.80224186452E+02 0.  0.
        254    2    1    2    0    0  0.42605489259E+03  0.64471938028E+03  0.11187452790E+04  0.16288943571E+04  0.89695037571E+03 0.  0.
         23    2    4    4    0    0  0.11204727447E+02  0.67336204899E+03  0.38727930250E+03  0.78218444466E+03  0.91023361710E+02 0.  0.
         23    2    4    4    0    0  0.41485016515E+03 -0.28642668714E+02  0.73146597653E+03  0.84670991246E+03  0.94626312645E+02 0.  0.
          4    1    3    3  502    0 -0.31175532330E+03 -0.42928911518E+03  0.63283062242E+03  0.82580574150E+03  0.00000000000E+00 0. -1.
         -3    1    3    3    0  502 -0.11429956929E+03 -0.21543026510E+03  0.36135847595E+03  0.43595245016E+03  0.00000000000E+00 0.  1.
         11    1    5    5    0    0 -0.23700353667E+02  0.88137916212E+02  0.32243509977E+02  0.96796916138E+02  0.00000000000E+00 0. -1.
        -11    1    5    5    0    0  0.34905081114E+02  0.58522413278E+03  0.35503579252E+03  0.68538752852E+03  0.00000000000E+00 0.  1.
          3    1    6    6  503    0  0.14849873962E+02  0.15397193726E+02  0.62212117484E+02  0.65787079987E+02  0.00000000000E+00 0. -1.
         -3    1    6    6    0  503  0.40000029118E+03 -0.44039862440E+02  0.66925385905E+03  0.78092283247E+03  0.00000000000E+00 0.  1.
<mgrwt>
<rscale>  0 0.19726582E+04</rscale>
<asrwt>0</asrwt>
<pdfrwt beam="1">  1        2 0.38489129E+00 0.19726582E+04</pdfrwt>
<pdfrwt beam="2">  1       -1 0.59824476E-01 0.19726582E+04</pdfrwt>
<totfact> 0.10434523E+01</totfact>
</mgrwt>
</event>
<event>
12    6  0.9533401E-008  0.2841121E+04  0.7818608E-02  0.8290614E-01
         -1   -1    0    0    0  501 -0.00000000000E+00  0.00000000000E+00  0.43349799809E+03  0.43349799809E+03  0.00000000000E+00 0.  1.
          2   -1    0    0  501    0  0.00000000000E+00 -0.00000000000E+00 -0.46551356720E+04  0.46551356720E+04  0.00000000000E+00 0. -1.
         24    2    1    2    0    0 -0.99151060637E+03 -0.80078506605E+03 -0.17434801940E+04  0.21611436703E+04  0.80428677961E+02 0.  0.
        254    2    1    2    0    0  0.99151060637E+03  0.80078506605E+03 -0.24781574799E+04  0.29274899998E+04  0.89698561812E+03 0.  0.
         23    2    4    4    0    0  0.20260798439E+03  0.71473511404E+03 -0.10312658764E+04  0.12742146136E+04  0.90649297583E+02 0.  0.
         23    2    4    4    0    0  0.78890262199E+03  0.86049952010E+02 -0.14468916035E+04  0.16532753862E+04  0.10026090471E+03 0.  0.
          4    1    3    3  502    0 -0.52931934748E+03 -0.42915845335E+03 -0.86408786403E+03  0.11004561720E+04  0.00000000000E+00 0. -1.
         -3    1    3    3    0  502 -0.46219125890E+03 -0.37162661270E+03 -0.87939232999E+03  0.10606874983E+04  0.00000000000E+00 0.  1.
         11    1    5    5    0    0  0.39032803284E+02  0.14574539867E+03 -0.27614263201E+03  0.31467448924E+03  0.00000000000E+00 0. -1.
        -11    1    5    5    0    0  0.16357518110E+03  0.56898971537E+03 -0.75512324435E+03  0.95954012434E+03  0.00000000000E+00 0.  1.
          4    1    6    6  503    0  0.95732158027E+02  0.43462819801E+02 -0.20529900130E+03  0.23065416259E+03  0.00000000000E+00 0. -1.
         -4    1    6    6    0  503  0.69317046396E+03  0.42587132209E+02 -0.12415926022E+04  0.14226212236E+04  0.00000000000E+00 0.  1.
<mgrwt>
<rscale>  0 0.28411209E+04</rscale>
<asrwt>0</asrwt>
<pdfrwt beam="1">  1        2 0.71617471E+00 0.28411209E+04</pdfrwt>
<pdfrwt beam="2">  1       -1 0.66692000E-01 0.28411209E+04</pdfrwt>
<totfact> 0.19256745E-01</totfact>
</mgrwt>
</event>
<event>
12    6  0.9533401E-008  0.2328519E+04  0.7818608E-02  0.8466761E-01
          2   -1    0    0  501    0  0.00000000000E+00  0.00000000000E+00  0.35558834943E+04  0.35558834943E+04  0.00000000000E+00 0. -1.
         -1   -1    0    0    0  501 -0.00000000000E+00 -0.00000000000E+00 -0.38119936259E+03  0.38119936259E+03  0.00000000000E+00 0.  1.
         24    2    1    2    0    0  0.31773188241E+03  0.92484919354E+03  0.11227300072E+04  0.14910557647E+04  0.80156375357E+02 0.  0.
        254    2    1    2    0    0 -0.31773188241E+03 -0.92484919354E+03  0.20519541246E+04  0.24460270922E+04  0.90345626720E+03 0.  0.
         23    2    4    4    0    0  0.34819851240E+02  0.15279639925E+03  0.18109714932E+03  0.25651648698E+03  0.91898688426E+02 0.  0.
         23    2    4    4    0    0 -0.35255173365E+03 -0.10776455928E+04  0.18708569752E+04  0.21895106053E+04  0.90764090816E+02 0.  0.
          2    1    3    3  502    0  0.19684174090E+02  0.60119489679E+02  0.45642418221E+02  0.78006731056E+02  0.00000000000E+00 0. -1.
         -1    1    3    3    0  502  0.29804770832E+03  0.86472970386E+03  0.10770875890E+04  0.14130490336E+04  0.00000000000E+00 0.  1.
         11    1    5    5    0    0 -0.18256857629E+02  0.53985678215E+02  0.20366810357E+02  0.60519197507E+02  0.00000000000E+00 0.  1.
        -11    1    5    5    0    0  0.53076708868E+02  0.98810721035E+02  0.16073033897E+03  0.19599728947E+03  0.00000000000E+00 0. -1.
          4    1    6    6  503    0 -0.35487365967E+03 -0.10289387886E+04  0.17800372977E+04  0.20864283180E+04  0.00000000000E+00 0. -1.
         -4    1    6    6    0  503  0.23219260276E+01 -0.48706804186E+02  0.90819677527E+02  0.10308228723E+03  0.00000000000E+00 0.  1.
<mgrwt>
<rscale>  0 0.23285193E+04</rscale>
<asrwt>0</asrwt>
<pdfrwt beam="1">  1        2 0.54705898E+00 0.23285193E+04</pdfrwt>
<pdfrwt beam="2">  1       -1 0.58646058E-01 0.23285193E+04</pdfrwt>
<totfact> 0.22571066E+00</totfact>
</mgrwt>
</event>
<event>
12    6  0.9533401E-008  0.1637463E+04  0.7818608E-02  0.8797858E-01
          2   -1    0    0  501    0  0.00000000000E+00  0.00000000000E+00  0.23055350547E+04  0.23055350547E+04  0.00000000000E+00 0. -1.
         -1   -1    0    0    0  501 -0.00000000000E+00 -0.00000000000E+00 -0.29074438070E+03  0.29074438070E+03  0.00000000000E+00 0.  1.
         24    2    1    2    0    0 -0.40641576412E+03  0.89537953849E+02  0.13219669524E+04  0.13881095447E+04  0.77850280360E+02 0.  0.
        254    2    1    2    0    0  0.40641576412E+03 -0.89537953849E+02  0.69282372159E+03  0.12081698908E+04  0.89804173470E+03 0.  0.
         23    2    4    4    0    0 -0.46224920693E+02  0.16417338870E+03  0.65170551764E+03  0.67967521012E+03  0.90269954474E+02 0.  0.
         23    2    4    4    0    0  0.45264068482E+03 -0.25371134255E+03  0.41118203954E+02  0.52849468065E+03  0.91448815697E+02 0.  0.
          4    1    3    3  502    0 -0.31655112540E+03  0.78033483905E+02  0.11253094245E+04  0.11715865911E+04  0.00000000000E+00 0. -1.
         -3    1    3    3    0  502 -0.89864638722E+02  0.11504469944E+02  0.19665752790E+03  0.21652295352E+03  0.00000000000E+00 0.  1.
         11    1    5    5    0    0 -0.24852792687E+02  0.14134264037E+03  0.61467567796E+03  0.63120645780E+03  0.00000000000E+00 0.  1.
        -11    1    5    5    0    0 -0.21372128006E+02  0.22830748332E+02  0.37029839672E+02  0.48468752316E+02  0.00000000000E+00 0. -1.
          2    1    6    6  503    0  0.10007932676E+03 -0.10255259784E+03  0.10952565410E+02  0.14371104919E+03  0.00000000000E+00 0. -1.
         -2    1    6    6    0  503  0.35256135806E+03 -0.15115874471E+03  0.30165638544E+02  0.38478363147E+03  0.00000000000E+00 0.  1.
<mgrwt>
<rscale>  0 0.16374631E+04</rscale>
<asrwt>0</asrwt>
<pdfrwt beam="1">  1        2 0.35469769E+00 0.16374631E+04</pdfrwt>
<pdfrwt beam="2">  1       -1 0.44729906E-01 0.16374631E+04</pdfrwt>
<totfact> 0.24300336E+01</totfact>
</mgrwt>
</event>
<event>
12    6  0.9533401E-008  0.2126968E+04  0.7818608E-02  0.8549456E-01
         -1   -1    0    0    0  501 -0.00000000000E+00  0.00000000000E+00  0.18012770898E+04  0.18012770898E+04  0.00000000000E+00 0.  1.
          2   -1    0    0  501    0  0.00000000000E+00 -0.00000000000E+00 -0.62788687172E+03  0.62788687172E+03  0.00000000000E+00 0. -1.
         24    2    1    2    0    0  0.79711270352E+02 -0.75320759742E+03 -0.10100621350E+02  0.76162883670E+03  0.79378151346E+02 0.  0.
        254    2    1    2    0    0 -0.79711270352E+02  0.75320759742E+03  0.11834908394E+04  0.16675351248E+04  0.89796840372E+03 0.  0.
         23    2    4    4    0    0  0.29825708532E+03  0.49918856389E+02  0.12588961168E+03  0.33909093851E+03  0.87665780581E+02 0.  0.
         23    2    4    4    0    0 -0.37796835568E+03  0.70328874103E+03  0.10576012278E+04  0.13284441863E+04  0.93640098504E+02 0.  0.
          2    1    3    3  502    0  0.34877426588E+02 -0.62055933254E+03 -0.90798060582E+01  0.62160498950E+03  0.00000000000E+00 0. -1.
         -1    1    3    3    0  502  0.44833843764E+02 -0.13264826487E+03 -0.10208152921E+01  0.14002384720E+03  0.00000000000E+00 0.  1.
         11    1    5    5    0    0  0.11072482810E+03 -0.18356920939E+02  0.68255543420E+02  0.13136127022E+03  0.00000000000E+00 0.  1.
        -11    1    5    5    0    0  0.18753225722E+03  0.68275777328E+02  0.57634068262E+02  0.20772966830E+03  0.00000000000E+00 0. -1.
          3    1    6    6  503    0 -0.31176582921E+03  0.63884724673E+03  0.91832738938E+03  0.11613134508E+04  0.00000000000E+00 0. -1.
         -3    1    6    6    0  503 -0.66202526463E+02  0.64441494297E+02  0.13927383839E+03  0.16713073552E+03  0.00000000000E+00 0.  1.
<mgrwt>
<rscale>  0 0.21269680E+04</rscale>
<asrwt>0</asrwt>
<pdfrwt beam="1">  1        2 0.96597981E-01 0.21269680E+04</pdfrwt>
<pdfrwt beam="2">  1       -1 0.27711955E+00 0.21269680E+04</pdfrwt>
<totfact> 0.22889363E+00</totfact>
</mgrwt>
</event>
<event>
12    6  0.9533401E-008  0.1567416E+04  0.7818608E-02  0.8840820E-01
          2   -1    0    0  501    0  0.00000000000E+00  0.00000000000E+00  0.49219876136E+03  0.49219876136E+03  0.00000000000E+00 0. -1.
         -1   -1    0    0    0  501 -0.00000000000E+00 -0.00000000000E+00 -0.12478659601E+04  0.12478659601E+04  0.00000000000E+00 0.  1.
         24    2    1    2    0    0 -0.35533681098E+03  0.10925624121E+03 -0.65700533706E+03  0.75890443895E+03  0.77966396960E+02 0.  0.
        254    2    1    2    0    0  0.35533681098E+03 -0.10925624121E+03 -0.98661861696E+02  0.98116028253E+03  0.90262958160E+03 0.  0.
         23    2    4    4    0    0  0.29494080980E+03  0.34279001244E+03  0.10558424370E+03  0.47326143544E+03  0.91286799950E+02 0.  0.
         23    2    4    4    0    0  0.60396001176E+02 -0.45204625365E+03 -0.20424610540E+03  0.50789884708E+03  0.90836528465E+02 0.  0.
          4    1    3    3  502    0 -0.14157763635E+03  0.96022082314E+01 -0.28623634552E+03  0.31948032023E+03  0.00000000000E+00 0. -1.
         -3    1    3    3    0  502 -0.21375917462E+03  0.99654032979E+02 -0.37076899154E+03  0.43942411872E+03  0.00000000000E+00 0.  1.
         11    1    5    5    0    0  0.58775419313E+02  0.74545358631E+02  0.61620285990E+02  0.11317517420E+03  0.00000000000E+00 0.  1.
        -11    1    5    5    0    0  0.23616539049E+03  0.26824465381E+03  0.43963957713E+02  0.36008626125E+03  0.00000000000E+00 0. -1.
          3    1    6    6  503    0  0.32846484786E+02 -0.41792980862E+03 -0.17049216285E+03  0.45256137052E+03  0.00000000000E+00 0. -1.
         -3    1    6    6    0  503  0.27549516389E+02 -0.34116445032E+02 -0.33753942553E+02  0.55337476567E+02  0.00000000000E+00 0.  1.
<mgrwt>
<rscale>  0 0.15674158E+04</rscale>
<asrwt>0</asrwt>
<pdfrwt beam="1">  1        2 0.75722886E-01 0.15674158E+04</pdfrwt>
<pdfrwt beam="2">  1       -1 0.19197938E+00 0.15674158E+04</pdfrwt>
<totfact> 0.11793844E+01</totfact>
</mgrwt>
</event>
<event>
12    6  0.9533401E-008  0.1439063E+04  0.7818608E-02  0.8926018E-01
          2   -1    0    0  501    0  0.00000000000E+00  0.00000000000E+00  0.39439866057E+03  0.39439866057E+03  0.00000000000E+00 0. -1.
         -1   -1    0    0    0  501 -0.00000000000E+00 -0.00000000000E+00 -0.13126967482E+04  0.13126967482E+04  0.00000000000E+00 0.  1.
         24    2    1    2    0    0 -0.12670918679E+01  0.35011816970E+03 -0.55250460033E+03  0.65717616865E+03  0.63520429619E+02 0.  0.
        254    2    1    2    0    0  0.12670918679E+01 -0.35011816970E+03 -0.36579348727E+03  0.10499192401E+04  0.91975061679E+03 0.  0.
         23    2    4    4    0    0  0.37200796453E+03 -0.25240610289E+03  0.68257496501E+02  0.46372377086E+03  0.91004853655E+02 0.  0.
         23    2    4    4    0    0 -0.37074087266E+03 -0.97712066813E+02 -0.43405098377E+03  0.58619546922E+03  0.90710688235E+02 0.  0.
          2    1    3    3  502    0  0.29123916738E+02  0.19402317832E+03 -0.32423505984E+03  0.37897436626E+03  0.00000000000E+00 0. -1.
         -1    1    3    3    0  502 -0.30391008606E+02  0.15609499138E+03 -0.22826954049E+03  0.27820180239E+03  0.00000000000E+00 0.  1.
         11    1    5    5    0    0  0.15131024746E+03 -0.12627540407E+03  0.71093635733E+02  0.20951031884E+03  0.00000000000E+00 0. -1.
        -11    1    5    5    0    0  0.22069771707E+03 -0.12613069881E+03 -0.28361392318E+01  0.25421345202E+03  0.00000000000E+00 0.  1.
          1    1    6    6  503    0 -0.35487949074E+03 -0.11187762971E+03 -0.41747084306E+03  0.55922979336E+03  0.00000000000E+00 0. -1.
         -1    1    6    6    0  503 -0.15861381917E+02  0.14165562894E+02 -0.16580140706E+02  0.26965675854E+02  0.00000000000E+00 0.  1.
<mgrwt>
<rscale>  0 0.14390634E+04</rscale>
<asrwt>0</asrwt>
<pdfrwt beam="1">  1        2 0.60676717E-01 0.14390634E+04</pdfrwt>
<pdfrwt beam="2">  1       -1 0.20195334E+00 0.14390634E+04</pdfrwt>
<totfact> 0.13090760E+01</totfact>
</mgrwt>
</event>
<event>
12    6  0.9533401E-008  0.1379437E+04  0.7818608E-02  0.8968839E-01
         -1   -1    0    0    0  501 -0.00000000000E+00  0.00000000000E+00  0.77859199498E+03  0.77859199498E+03  0.00000000000E+00 0.  1.
          2   -1    0    0  501    0  0.00000000000E+00 -0.00000000000E+00 -0.61098925037E+03  0.61098925037E+03  0.00000000000E+00 0. -1.
         24    2    1    2    0    0  0.33204003245E+03  0.14042401086E+03 -0.10180569299E+03  0.38291090241E+03  0.79289810729E+02 0.  0.
        254    2    1    2    0    0 -0.33204003245E+03 -0.14042401086E+03  0.26940843761E+03  0.10066703429E+04  0.90046365120E+03 0.  0.
         23    2    4    4    0    0 -0.34185043442E+03 -0.33521722101E+03 -0.17118629347E+03  0.51657319179E+03  0.91163647554E+02 0.  0.
         23    2    4    4    0    0  0.98104019669E+01  0.19479321015E+03  0.44059473108E+03  0.49009715115E+03  0.89615075771E+02 0.  0.
          4    1    3    3  502    0  0.32569992425E+03  0.14071638108E+03 -0.84845042507E+02  0.36480161979E+03  0.00000000000E+00 0. -1.
         -3    1    3    3    0  502  0.63401081981E+01 -0.29237021669E+00 -0.16960650487E+02  0.18109282626E+02  0.00000000000E+00 0.  1.
         11    1    5    5    0    0 -0.13427547975E+03 -0.13560804642E+03 -0.11608212020E+03  0.22337077998E+03  0.00000000000E+00 0.  1.
        -11    1    5    5    0    0 -0.20757495466E+03 -0.19960917459E+03 -0.55104173271E+02  0.29320241182E+03  0.00000000000E+00 0. -1.
          4    1    6    6  503    0 -0.44720517088E+01  0.24647295355E+02  0.10156270157E+02  0.27030320721E+02  0.00000000000E+00 0. -1.
         -4    1    6    6    0  503  0.14282453676E+02  0.17014591479E+03  0.43043846092E+03  0.46306683043E+03  0.00000000000E+00 0.  1.
<mgrwt>
<rscale>  0 0.13794366E+04</rscale>
<asrwt>0</asrwt>
<pdfrwt beam="1">  1        2 0.93998347E-01 0.13794366E+04</pdfrwt>
<pdfrwt beam="2">  1       -1 0.11978338E+00 0.13794366E+04</pdfrwt>
<totfact> 0.33614909E+01</totfact>
</mgrwt>
</event>
<event>
12    6  0.9533401E-008  0.1823197E+04  0.7818608E-02  0.8694060E-01
          2   -1    0    0  501    0  0.00000000000E+00  0.00000000000E+00  0.53636041643E+03  0.53636041643E+03  0.00000000000E+00 0. -1.
         -3   -1    0    0    0  501 -0.00000000000E+00 -0.00000000000E+00 -0.15493532275E+04  0.15493532275E+04  0.00000000000E+00 0.  1.
         24    2    1    2    0    0 -0.97872963869E+02  0.63411621385E+03 -0.65896622337E+03  0.92293677475E+03  0.76767942000E+02 0.  0.
        254    2    1    2    0    0  0.97872963869E+02 -0.63411621385E+03 -0.35402658771E+03  0.11627768692E+04  0.90279163322E+03 0.  0.
         23    2    4    4    0    0 -0.36528310215E+03 -0.19280002889E+03 -0.29083441678E+03  0.51332405641E+03  0.91177481064E+02 0.  0.
         23    2    4    4    0    0  0.46315606602E+03 -0.44131618496E+03 -0.63192170932E+02  0.64945281279E+03  0.92315702710E+02 0.  0.
          4    1    3    3  502    0 -0.50695135116E+02  0.38688434883E+03 -0.34761703730E+03  0.52257736338E+03  0.00000000000E+00 0. -1.
         -3    1    3    3    0  502 -0.47177828753E+02  0.24723186502E+03 -0.31134918607E+03  0.40035941137E+03  0.00000000000E+00 0.  1.
         11    1    5    5    0    0 -0.36937137161E+03 -0.18342184450E+03 -0.28033625701E+03  0.49866541909E+03  0.00000000000E+00 0. -1.
        -11    1    5    5    0    0  0.40882694571E+01 -0.93781843883E+01 -0.10498159774E+02  0.14658637324E+02  0.00000000000E+00 0.  1.
          1    1    6    6  503    0  0.41947684975E+03 -0.39042698492E+03 -0.84123068859E+02  0.57919836736E+03  0.00000000000E+00 0. -1.
         -1    1    6    6    0  503  0.43679216266E+02 -0.50889200039E+02  0.20930897928E+02  0.70254445427E+02  0.00000000000E+00 0.  1.
<mgrwt>
<rscale>  0 0.18231969E+04</rscale>
<asrwt>0</asrwt>
<pdfrwt beam="1">  1        2 0.82516988E-01 0.18231969E+04</pdfrwt>
<pdfrwt beam="2">  1       -3 0.23836203E+00 0.18231969E+04</pdfrwt>
<totfact> 0.28572097E+00</totfact>
</mgrwt>
</event>
<event>
12    6  0.9533401E-008  0.1412675E+04  0.7818608E-02  0.8944694E-01
         -1   -1    0    0    0  501 -0.00000000000E+00  0.00000000000E+00  0.25141430130E+03  0.25141430130E+03  0.00000000000E+00 0.  1.
          2   -1    0    0  501    0  0.00000000000E+00 -0.00000000000E+00 -0.19844256018E+04  0.19844256018E+04  0.00000000000E+00 0. -1.
         24    2    1    2    0    0 -0.36319795780E+03  0.14637772851E+03 -0.73816321964E+03  0.83919179124E+03  0.77580459597E+02 0.  0.
        254    2    1    2    0    0  0.36319795780E+03 -0.14637772851E+03 -0.99484808085E+03  0.13966481118E+04  0.89864567455E+03 0.  0.
         23    2    4    4    0    0 -0.23517615409E+02  0.31688622647E+03 -0.54915946231E+03  0.64055730097E+03  0.88133886901E+02 0.  0.
         23    2    4    4    0    0  0.38671557321E+03 -0.46326395497E+03 -0.44568861854E+03  0.75609081087E+03  0.94194177376E+02 0.  0.
          4    1    3    3  502    0 -0.14519084884E+03  0.53232473908E+02 -0.37341697382E+03  0.40417114592E+03  0.00000000000E+00 0. -1.
         -3    1    3    3    0  502 -0.21800710896E+03  0.93145254598E+02 -0.36474624583E+03  0.43502064532E+03  0.00000000000E+00 0.  1.
         11    1    5    5    0    0  0.48740536454E+01  0.77333753138E+02 -0.21412327241E+03  0.22771262934E+03  0.00000000000E+00 0. -1.
        -11    1    5    5    0    0 -0.28391669054E+02  0.23955247333E+03 -0.33503618991E+03  0.41284467163E+03  0.00000000000E+00 0.  1.
          4    1    6    6  503    0  0.11300699213E+03 -0.78988460516E+02 -0.12023846702E+03  0.18294000688E+03  0.00000000000E+00 0. -1.
         -4    1    6    6    0  503  0.27370858107E+03 -0.38427549446E+03 -0.32545015152E+03  0.57315080399E+03  0.00000000000E+00 0.  1.
<mgrwt>
<rscale>  0 0.14126754E+04</rscale>
<asrwt>0</asrwt>
<pdfrwt beam="1">  1        2 0.30529624E+00 0.14126754E+04</pdfrwt>
<pdfrwt beam="2">  1       -1 0.38679124E-01 0.14126754E+04</pdfrwt>
<totfact> 0.48923106E+01</totfact>
</mgrwt>
</event>
<event>
12    6  0.9533401E-008  0.1931415E+04  0.7818608E-02  0.8639375E-01
         -3   -1    0    0    0  501 -0.00000000000E+00  0.00000000000E+00  0.48366289132E+03  0.48366289132E+03  0.00000000000E+00 0.  1.
          2   -1    0    0  501    0  0.00000000000E+00 -0.00000000000E+00 -0.19281836760E+04  0.19281836760E+04  0.00000000000E+00 0. -1.
         24    2    1    2    0    0  0.37996607959E+03 -0.19895846142E+03 -0.13376916926E+04  0.14070119286E+04  0.79402845629E+02 0.  0.
        254    2    1    2    0    0 -0.37996607959E+03  0.19895846142E+03 -0.10682909212E+03  0.10048346387E+04  0.90239764253E+03 0.  0.
         23    2    4    4    0    0  0.20637654531E+03  0.71708626008E+02 -0.28673580495E+03  0.37175654149E+03  0.90841063435E+02 0.  0.
         23    2    4    4    0    0 -0.58634262490E+03  0.12724983542E+03  0.17990671283E+03  0.63307809723E+03  0.91821879117E+02 0.  0.
          2    1    3    3  502    0  0.35413844860E+03 -0.18372911106E+03 -0.11571183185E+04  0.12239661883E+04  0.00000000000E+00 0. -1.
         -1    1    3    3    0  502  0.25827630987E+02 -0.15229350361E+02 -0.18057337410E+03  0.18304574037E+03  0.00000000000E+00 0.  1.
         11    1    5    5    0    0  0.17015756928E+03  0.20174511632E+02 -0.23125070533E+03  0.28781504134E+03  0.00000000000E+00 0. -1.
        -11    1    5    5    0    0  0.36218976027E+02  0.51534114376E+02 -0.55485099617E+02  0.83941500156E+02  0.00000000000E+00 0.  1.
          1    1    6    6  503    0 -0.48052719570E+03  0.69542518107E+02  0.15785341971E+03  0.51054896900E+03  0.00000000000E+00 0. -1.
         -1    1    6    6    0  503 -0.10581542920E+03  0.57707317310E+02  0.22053293118E+02  0.12252912823E+03  0.00000000000E+00 0.  1.
<mgrwt>
<rscale>  0 0.19314149E+04</rscale>
<asrwt>0</asrwt>
<pdfrwt beam="1">  1        2 0.29664364E+00 0.19314149E+04</pdfrwt>
<pdfrwt beam="2">  1       -3 0.74409675E-01 0.19314149E+04</pdfrwt>
<totfact> 0.74715667E+00</totfact>
</mgrwt>
</event>
<event>
12    6  0.9533401E-008  0.1351331E+04  0.7818608E-02  0.8989821E-01
          4   -1    0    0  501    0  0.00000000000E+00  0.00000000000E+00  0.50163268925E+03  0.50163268925E+03  0.00000000000E+00 0. -1.
         -3   -1    0    0    0  501 -0.00000000000E+00 -0.00000000000E+00 -0.91007562795E+03  0.91007562795E+03  0.00000000000E+00 0.  1.
         24    2    1    2    0    0  0.14151646820E+03 -0.32385982549E+03 -0.26424944421E+03  0.44802738589E+03  0.77386513018E+02 0.  0.
        254    2    1    2    0    0 -0.14151646820E+03  0.32385982549E+03 -0.14419349449E+03  0.96368093132E+03  0.88485991896E+03 0.  0.
         23    2    4    4    0    0 -0.20355561227E+03 -0.17072169310E+03  0.20568426625E+03  0.34811502935E+03  0.91089365443E+02 0.  0.
         23    2    4    4    0    0  0.62039144065E+02  0.49458151860E+03 -0.34987776074E+03  0.61556590196E+03  0.89706177405E+02 0.  0.
          4    1    3    3  502    0  0.47927773458E+02 -0.69311666556E+02 -0.10075942294E+03  0.13135311150E+03  0.00000000000E+00 0. -1.
         -3    1    3    3    0  502  0.93588694744E+02 -0.25454815894E+03 -0.16349002127E+03  0.31667427438E+03  0.00000000000E+00 0.  1.
         11    1    5    5    0    0 -0.91980696972E+02 -0.48415005787E+02  0.33396261518E+02  0.10917770690E+03  0.00000000000E+00 0.  1.
        -11    1    5    5    0    0 -0.11157491529E+03 -0.12230668731E+03  0.17228800473E+03  0.23893732245E+03  0.00000000000E+00 0. -1.
          3    1    6    6  503    0  0.27653924796E+01  0.18483692889E+03 -0.17696389628E+03  0.25590732359E+03  0.00000000000E+00 0. -1.
         -3    1    6    6    0  503  0.59273751586E+02  0.30974458970E+03 -0.17291386446E+03  0.35965857838E+03  0.00000000000E+00 0.  1.
<mgrwt>
<rscale>  0 0.13513307E+04</rscale>
<asrwt>0</asrwt>
<pdfrwt beam="1">  1        4 0.77174260E-01 0.13513307E+04</pdfrwt>
<pdfrwt beam="2">  1       -3 0.14001164E+00 0.13513307E+04</pdfrwt>
<totfact> 0.12953094E+00</totfact>
</mgrwt>
</event>
<event>
12    6  0.9533401E-008  0.2181441E+04  0.7818608E-02  0.8526193E-01
          2   -1    0    0  501    0  0.00000000000E+00  0.00000000000E+00  0.18618742653E+04  0.18618742653E+04  0.00000000000E+00 0. -1.
         -1   -1    0    0    0  501 -0.00000000000E+00 -0.00000000000E+00 -0.63896422935E+03  0.63896422935E+03  0.00000000000E+00 0.  1.
         24    2    1    2    0    0  0.33443936228E+03 -0.20683558934E+03  0.14452722717E+04  0.15001205516E+04  0.83181019947E+02 0.  0.
        254    2    1    2    0    0 -0.33443936228E+03  0.20683558934E+03 -0.22236223572E+03  0.10007179430E+04  0.89295060870E+03 0.  0.
         23    2    4    4    0    0 -0.14516775645E+03  0.48536591424E+03  0.10202532533E+03  0.52432158301E+03  0.88601394963E+02 0.  0.
         23    2    4    4    0    0 -0.18927160583E+03 -0.27853032490E+03 -0.32438756105E+03  0.47639636002E+03  0.91232227933E+02 0.  0.
          4    1    3    3  502    0  0.18609176338E+03 -0.15678284173E+03  0.80423762079E+03  0.84024350908E+03  0.00000000000E+00 0. -1.
         -3    1    3    3    0  502  0.14834759889E+03 -0.50052747608E+02  0.64103465091E+03  0.65987704257E+03  0.00000000000E+00 0.  1.
         11    1    5    5    0    0 -0.11846437918E+03  0.45181832980E+03  0.73540370150E+02  0.47284437009E+03  0.00000000000E+00 0. -1.
        -11    1    5    5    0    0 -0.26703377272E+02  0.33547584431E+02  0.28484955182E+02  0.51477212925E+02  0.00000000000E+00 0.  1.
          3    1    6    6  503    0 -0.19134442523E+03 -0.28241663955E+03 -0.30860140261E+03  0.46000725326E+03  0.00000000000E+00 0. -1.
         -3    1    6    6    0  503  0.20728194002E+01  0.38863146558E+01 -0.15786158442E+02  0.16389106755E+02  0.00000000000E+00 0.  1.
<mgrwt>
<rscale>  0 0.21814409E+04</rscale>
<asrwt>0</asrwt>
<pdfrwt beam="1">  1        2 0.28644219E+00 0.21814409E+04</pdfrwt>
<pdfrwt beam="2">  1       -1 0.98302190E-01 0.21814409E+04</pdfrwt>
<totfact> 0.82348175E+00</totfact>
</mgrwt>
</event>
<event>
12    6  0.9533401E-008  0.1652353E+04  0.7818608E-02  0.8789016E-01
          2   -1    0    0  501    0  0.00000000000E+00  0.00000000000E+00  0.19311435843E+04  0.19311435843E+04  0.00000000000E+00 0. -1.
         -1   -1    0    0    0  501 -0.00000000000E+00 -0.00000000000E+00 -0.35345240029E+03  0.35345240029E+03  0.00000000000E+00 0.  1.
         24    2    1    2    0    0 -0.51800407113E+03  0.16923816549E+03  0.55364158520E+03  0.78096255920E+03  0.80085826675E+02 0.  0.
        254    2    1    2    0    0  0.51800407113E+03 -0.16923816549E+03  0.10240495988E+04  0.15036334253E+04  0.95669541795E+03 0.  0.
         23    2    4    4    0    0  0.31582757195E+03 -0.21663202009E+03  0.11707293156E+04  0.12350378257E+04  0.89637120129E+02 0.  0.
         23    2    4    4    0    0  0.20217649918E+03  0.47393854600E+02 -0.14667971681E+03  0.26859559962E+03  0.86643768016E+02 0.  0.
          2    1    3    3  502    0 -0.22798070219E+03  0.70001657181E+02  0.18696633432E+03  0.30303769196E+03  0.00000000000E+00 0. -1.
         -1    1    3    3    0  502 -0.29002336894E+03  0.99236508313E+02  0.36667525088E+03  0.47792486724E+03  0.00000000000E+00 0.  1.
         11    1    5    5    0    0  0.20133686859E+03 -0.18762922497E+03  0.81418534279E+03  0.85944111673E+03  0.00000000000E+00 0. -1.
        -11    1    5    5    0    0  0.11449070336E+03 -0.29002795125E+02  0.35654397278E+03  0.37559670900E+03  0.00000000000E+00 0.  1.
          3    1    6    6  503    0  0.12202107179E+03  0.21290566240E+02 -0.35081014326E+02  0.12873658275E+03  0.00000000000E+00 0. -1.
         -3    1    6    6    0  503  0.80155427390E+02  0.26103288360E+02 -0.11159870249E+03  0.13985901687E+03  0.00000000000E+00 0.  1.
<mgrwt>
<rscale>  0 0.16523527E+04</rscale>
<asrwt>0</asrwt>
<pdfrwt beam="1">  1        2 0.29709901E+00 0.16523527E+04</pdfrwt>
<pdfrwt beam="2">  1       -1 0.54377293E-01 0.16523527E+04</pdfrwt>
<totfact> 0.27116687E+01</totfact>
</mgrwt>
</event>
<event>
12    6  0.9533401E-008  0.3236519E+04  0.7818608E-02  0.8179239E-01
          2   -1    0    0  501    0  0.00000000000E+00  0.00000000000E+00  0.12145387126E+04  0.12145387126E+04  0.00000000000E+00 0. -1.
         -1   -1    0    0    0  501 -0.00000000000E+00 -0.00000000000E+00 -0.21561794337E+04  0.21561794337E+04  0.00000000000E+00 0.  1.
         24    2    1    2    0    0  0.82606098553E+03 -0.11417601240E+04  0.73781896269E+02  0.14134241596E+04  0.79568550511E+02 0.  0.
        254    2    1    2    0    0 -0.82606098553E+03  0.11417601240E+04 -0.10154226174E+04  0.19572939867E+04  0.90217721425E+03 0.  0.
         23    2    4    4    0    0 -0.42583715895E+03  0.17901913172E+03  0.36874903094E+02  0.47238325273E+03  0.91657206539E+02 0.  0.
         23    2    4    4    0    0 -0.40022382657E+03  0.96274099228E+03 -0.10522975205E+04  0.14849107340E+04  0.10286149283E+03 0.  0.
          2    1    3    3  502    0  0.44299943963E+03 -0.59336532400E+03  0.55535513160E+00  0.74049390251E+03  0.00000000000E+00 0. -1.
         -1    1    3    3    0  502  0.38306154590E+03 -0.54839480001E+03  0.73226541137E+02  0.67293025712E+03  0.00000000000E+00 0.  1.
         11    1    5    5    0    0 -0.89910351709E+02  0.17766927825E+02 -0.24191439658E+02  0.94787978254E+02  0.00000000000E+00 0. -1.
        -11    1    5    5    0    0 -0.33592680725E+03  0.16125220390E+03  0.61066342752E+02  0.37759527447E+03  0.00000000000E+00 0.  1.
          3    1    6    6  503    0 -0.41998565812E+02  0.20530510039E+03 -0.19779167358E+03  0.28815900110E+03  0.00000000000E+00 0. -1.
         -3    1    6    6    0  503 -0.35822526076E+03  0.75743589189E+03 -0.85450584687E+03  0.11967517329E+04  0.00000000000E+00 0.  1.
<mgrwt>
<rscale>  0 0.32365187E+04</rscale>
<asrwt>0</asrwt>
<pdfrwt beam="1">  1        2 0.18685211E+00 0.32365187E+04</pdfrwt>
<pdfrwt beam="2">  1       -1 0.33171991E+00 0.32365187E+04</pdfrwt>
<totfact> 0.36407610E-01</totfact>
</mgrwt>
</event>
<event>
12    6  0.9533401E-008  0.1514921E+04  0.7818608E-02  0.8874591E-01
          2   -1    0    0  501    0  0.00000000000E+00  0.00000000000E+00  0.22632216316E+04  0.22632216316E+04  0.00000000000E+00 0. -1.
         -1   -1    0    0    0  501 -0.00000000000E+00 -0.00000000000E+00 -0.25350867603E+03  0.25350867603E+03  0.00000000000E+00 0.  1.
         24    2    1    2    0    0  0.30095074994E+03  0.17656953722E+03  0.90909113584E+02  0.36911186716E+03  0.78936355255E+02 0.  0.
        254    2    1    2    0    0 -0.30095074994E+03 -0.17656953722E+03  0.19188038419E+04  0.21476184404E+04  0.89928228409E+03 0.  0.
         23    2    4    4    0    0 -0.49108408426E+03 -0.41168284322E+03  0.13434903901E+04  0.14912951527E+04  0.91369924757E+02 0.  0.
         23    2    4    4    0    0  0.19013333432E+03  0.23511330600E+03  0.57531345189E+03  0.65632328772E+03  0.91355014062E+02 0.  0.
          2    1    3    3  502    0  0.15180547094E+01 -0.38145036766E+01 -0.51489434098E+01  0.65853281344E+01  0.00000000000E+00 0. -1.
         -1    1    3    3    0  502  0.29943269523E+03  0.18038404089E+03  0.96058056994E+02  0.36252653902E+03  0.00000000000E+00 0.  1.
         11    1    5    5    0    0 -0.49364834066E+03 -0.41179078109E+03  0.13259542276E+04  0.14735721717E+04  0.00000000000E+00 0. -1.
        -11    1    5    5    0    0  0.25642563985E+01  0.10793786768E+00  0.17536162446E+02  0.17722980979E+02  0.00000000000E+00 0.  1.
          4    1    6    6  503    0  0.19700244265E+03  0.20379969503E+03  0.52584733856E+03  0.59737735275E+03  0.00000000000E+00 0. -1.
         -4    1    6    6    0  503 -0.68691083301E+01  0.31313610976E+02  0.49466113330E+02  0.58945934970E+02  0.00000000000E+00 0.  1.
<mgrwt>
<rscale>  0 0.15149209E+04</rscale>
<asrwt>0</asrwt>
<pdfrwt beam="1">  1        2 0.34818793E+00 0.15149209E+04</pdfrwt>
<pdfrwt beam="2">  1       -1 0.39001336E-01 0.15149209E+04</pdfrwt>
<totfact> 0.33396933E+01</totfact>
</mgrwt>
</event>
<event>
12    6  0.9533401E-008  0.1898388E+04  0.7818608E-02  0.8655659E-01
          2   -1    0    0  501    0  0.00000000000E+00  0.00000000000E+00  0.17361451272E+04  0.17361451272E+04  0.00000000000E+00 0. -1.
         -1   -1    0    0    0  501 -0.00000000000E+00 -0.00000000000E+00 -0.51894810993E+03  0.51894810993E+03  0.00000000000E+00 0.  1.
         24    2    1    2    0    0 -0.16336510481E+03 -0.37291225690E+03  0.12039845808E+04  0.12727851715E+04  0.68202002437E+02 0.  0.
        254    2    1    2    0    0  0.16336510481E+03  0.37291225690E+03  0.13212436472E+02  0.98230806565E+03  0.89386959818E+03 0.  0.
         23    2    4    4    0    0  0.32665146674E+02  0.48138634623E+03  0.34467546421E+03  0.59973998019E+03  0.89927982631E+02 0.  0.
         23    2    4    4    0    0  0.13069995814E+03 -0.10847408934E+03 -0.33146302774E+03  0.38256808546E+03  0.87415640157E+02 0.  0.
          4    1    3    3  502    0 -0.72941287227E+02 -0.17070516734E+03  0.44578490286E+03  0.48289218792E+03  0.00000000000E+00 0. -1.
         -3    1    3    3    0  502 -0.90423817585E+02 -0.20220708956E+03  0.75819967796E+03  0.78989298358E+03  0.00000000000E+00 0.  1.
         11    1    5    5    0    0  0.76437319509E+01  0.45137985714E+03  0.31148446411E+03  0.54847495244E+03  0.00000000000E+00 0.  1.
        -11    1    5    5    0    0  0.25021414723E+02  0.30006489091E+02  0.33191000104E+02  0.51265027750E+02  0.00000000000E+00 0. -1.
          1    1    6    6  503    0 -0.16076076293E+01  0.11514884454E+02 -0.29866711773E+02  0.32049921036E+02  0.00000000000E+00 0. -1.
         -1    1    6    6    0  503  0.13230756577E+03 -0.11998897379E+03 -0.30159631596E+03  0.35051816443E+03  0.00000000000E+00 0.  1.
<mgrwt>
<rscale>  0 0.18983880E+04</rscale>
<asrwt>0</asrwt>
<pdfrwt beam="1">  1        2 0.26709925E+00 0.18983880E+04</pdfrwt>
<pdfrwt beam="2">  1       -1 0.79838172E-01 0.18983880E+04</pdfrwt>
<totfact> 0.15648812E+01</totfact>
</mgrwt>
</event>
<event>
12    6  0.9533401E-008  0.1740959E+04  0.7818608E-02  0.8738343E-01
          2   -1    0    0  501    0  0.00000000000E+00  0.00000000000E+00  0.21171253333E+04  0.21171253333E+04  0.00000000000E+00 0. -1.
         -1   -1    0    0    0  501 -0.00000000000E+00 -0.00000000000E+00 -0.35790709980E+03  0.35790709980E+03  0.00000000000E+00 0.  1.
         24    2    1    2    0    0  0.22210816637E+03  0.36664188629E+03  0.13038596372E+04  0.13748421320E+04  0.79891327107E+02 0.  0.
        254    2    1    2    0    0 -0.22210816637E+03 -0.36664188629E+03  0.45535859631E+03  0.11001903011E+04  0.90515685769E+03 0.  0.
         23    2    4    4    0    0 -0.10758604162E+03 -0.12574297845E+03 -0.26618994389E+03  0.32617650173E+03  0.90266112528E+02 0.  0.
         23    2    4    4    0    0 -0.11452212474E+03 -0.24089890784E+03  0.72154854020E+03  0.77401379935E+03  0.85542181782E+02 0.  0.
          4    1    3    3  502    0  0.95006718329E+02  0.18920712356E+03  0.52800113827E+03  0.56886801119E+03  0.00000000000E+00 0. -1.
         -3    1    3    3    0  502  0.12710144804E+03  0.17743476273E+03  0.77585849893E+03  0.80597412085E+03  0.00000000000E+00 0.  1.
         11    1    5    5    0    0 -0.81676023889E+02 -0.26967970864E+02 -0.11150436976E+03  0.14082424793E+03  0.00000000000E+00 0. -1.
        -11    1    5    5    0    0 -0.25910017733E+02 -0.98775007588E+02 -0.15468557414E+03  0.18535225380E+03  0.00000000000E+00 0.  1.
          1    1    6    6  503    0 -0.72703291147E+00 -0.93725980064E+02  0.22372815379E+03  0.24256828876E+03  0.00000000000E+00 0. -1.
         -1    1    6    6    0  503 -0.11379509183E+03 -0.14717292777E+03  0.49782038641E+03  0.53144551059E+03  0.00000000000E+00 0.  1.
<mgrwt>
<rscale>  0 0.17409586E+04</rscale>
<asrwt>0</asrwt>
<pdfrwt beam="1">  1        2 0.32571158E+00 0.17409586E+04</pdfrwt>
<pdfrwt beam="2">  1       -1 0.55062632E-01 0.17409586E+04</pdfrwt>
<totfact> 0.20702403E+01</totfact>
</mgrwt>
</event>
<event>
12    6  0.9533401E-008  0.1357933E+04  0.7818608E-02  0.8984844E-01
         -1   -1    0    0    0  501 -0.00000000000E+00  0.00000000000E+00  0.19292085366E+03  0.19292085366E+03  0.00000000000E+00 0.  1.
          2   -1    0    0  501    0  0.00000000000E+00 -0.00000000000E+00 -0.23895582839E+04  0.23895582839E+04  0.00000000000E+00 0. -1.
         24    2    1    2    0    0  0.28380595420E+03 -0.53716433311E+02 -0.15956488243E+03  0.33750660360E+03  0.70841237431E+02 0.  0.
        254    2    1    2    0    0 -0.28380595420E+03  0.53716433311E+02 -0.20370725478E+04  0.22449725340E+04  0.89822371288E+03 0.  0.
         23    2    4    4    0    0 -0.47424246139E+03 -0.25990968693E+03 -0.14100783511E+04  0.15129477578E+04  0.90724880713E+02 0.  0.
         23    2    4    4    0    0  0.19043650719E+03  0.31362612024E+03 -0.62699419672E+03  0.73202477620E+03  0.90061888072E+02 0.  0.
          4    1    3    3  502    0  0.80134920161E+02 -0.40679077920E+01 -0.79927964577E+02  0.11325472540E+03  0.00000000000E+00 0. -1.
         -3    1    3    3    0  502  0.20367103403E+03 -0.49648525519E+02 -0.79636917857E+02  0.22425187820E+03  0.00000000000E+00 0.  1.
         11    1    5    5    0    0 -0.43922298723E+03 -0.20881280563E+03 -0.12427680042E+04  0.13345380971E+04  0.00000000000E+00 0.  1.
        -11    1    5    5    0    0 -0.35019474159E+02 -0.51096881300E+02 -0.16731034692E+03  0.17840966071E+03  0.00000000000E+00 0. -1.
          4    1    6    6  503    0  0.19773040296E+03  0.31225222930E+03 -0.62013545097E+03  0.72191879357E+03  0.00000000000E+00 0.  1.
         -4    1    6    6    0  503 -0.72938957642E+01  0.13738909384E+01 -0.68587457551E+01  0.10105982637E+02  0.00000000000E+00 0. -1.
<mgrwt>
<rscale>  0 0.13579332E+04</rscale>
<asrwt>0</asrwt>
<pdfrwt beam="1">  1        2 0.36762433E+00 0.13579332E+04</pdfrwt>
<pdfrwt beam="2">  1       -1 0.29680133E-01 0.13579332E+04</pdfrwt>
<totfact> 0.46745842E+01</totfact>
</mgrwt>
</event>
<event>
12    6  0.9533401E-008  0.1422511E+04  0.7818608E-02  0.8937683E-01
          2   -1    0    0  501    0  0.00000000000E+00  0.00000000000E+00  0.18324552954E+04  0.18324552954E+04  0.00000000000E+00 0. -1.
         -1   -1    0    0    0  501 -0.00000000000E+00 -0.00000000000E+00 -0.27606901343E+03  0.27606901343E+03  0.00000000000E+00 0.  1.
         24    2    1    2    0    0 -0.32710527731E+03  0.15096617581E+03  0.73937061199E+03  0.82634999257E+03  0.79979745271E+02 0.  0.
        254    2    1    2    0    0  0.32710527731E+03 -0.15096617581E+03  0.81701566995E+03  0.12821743162E+04  0.92014549044E+03 0.  0.
         23    2    4    4    0    0  0.28567189291E+03 -0.48323393188E+03  0.72749251652E+03  0.92345425264E+03  0.91645686233E+02 0.  0.
         23    2    4    4    0    0  0.41433384398E+02  0.33226775608E+03  0.89523153432E+02  0.35872006359E+03  0.92450537867E+02 0.  0.
          2    1    3    3  502    0 -0.10020729596E+03  0.29550875227E+02  0.29355914476E+03  0.31159545546E+03  0.00000000000E+00 0. -1.
         -1    1    3    3    0  502 -0.22689798136E+03  0.12141530058E+03  0.44581146723E+03  0.51475453711E+03  0.00000000000E+00 0.  1.
         11    1    5    5    0    0  0.13216430203E+03 -0.16346343978E+03  0.32399712811E+03  0.38621475619E+03  0.00000000000E+00 0. -1.
        -11    1    5    5    0    0  0.15350759089E+03 -0.31977049210E+03  0.40349538841E+03  0.53723949645E+03  0.00000000000E+00 0.  1.
          3    1    6    6  503    0  0.64524490702E+01  0.91715262866E+02  0.68648190236E+02  0.11474274515E+03  0.00000000000E+00 0. -1.
         -3    1    6    6    0  503  0.34980935327E+02  0.24055249321E+03  0.20874963197E+02  0.24397731845E+03  0.00000000000E+00 0.  1.
<mgrwt>
<rscale>  0 0.14225106E+04</rscale>
<asrwt>0</asrwt>
<pdfrwt beam="1">  1        2 0.28191619E+00 0.14225106E+04</pdfrwt>
<pdfrwt beam="2">  1       -1 0.42472157E-01 0.14225106E+04</pdfrwt>
<totfact> 0.49982856E+01</totfact>
</mgrwt>
</event>
<event>
12    6  0.9533401E-008  0.1787286E+04  0.7818608E-02  0.8713090E-01
         -1   -1    0    0    0  501 -0.00000000000E+00  0.00000000000E+00  0.98521040461E+03  0.98521040461E+03  0.00000000000E+00 0.  1.
          2   -1    0    0  501    0  0.00000000000E+00 -0.00000000000E+00 -0.81058607851E+03  0.81058607851E+03  0.00000000000E+00 0. -1.
         24    2    1    2    0    0 -0.62283030931E+03 -0.16202497939E+03 -0.98913697229E+02  0.65640437442E+03  0.83145024563E+02 0.  0.
        254    2    1    2    0    0  0.62283030931E+03  0.16202497939E+03  0.27353802334E+03  0.11393921087E+04  0.89956747330E+03 0.  0.
         23    2    4    4    0    0  0.28389982106E+03 -0.11843143387E+03  0.53206852197E+03  0.62171136854E+03  0.93824307999E+02 0.  0.
         23    2    4    4    0    0  0.33893048825E+03  0.28045641326E+03 -0.25853049863E+03  0.51768074017E+03  0.87324993070E+02 0.  0.
          4    1    3    3  502    0 -0.24152194325E+03 -0.64853523652E+02  0.23487631060E+01  0.25008867485E+03  0.00000000000E+00 0. -1.
         -3    1    3    3    0  502 -0.38130836606E+03 -0.97171455740E+02 -0.10126246033E+03  0.40631569956E+03  0.00000000000E+00 0.  1.
         11    1    5    5    0    0  0.27325461512E+03 -0.86808698869E+02  0.49323095597E+03  0.57050908039E+03  0.00000000000E+00 0. -1.
        -11    1    5    5    0    0  0.10645205943E+02 -0.31622735002E+02  0.38837565997E+02  0.51202288144E+02  0.00000000000E+00 0.  1.
          2    1    6    6  503    0  0.25524344751E+03  0.25183613997E+03 -0.19002939053E+03  0.40581008878E+03  0.00000000000E+00 0. -1.
         -2    1    6    6    0  503  0.83687040736E+02  0.28620273296E+02 -0.68501108104E+02  0.11187065139E+03  0.00000000000E+00 0.  1.
<mgrwt>
<rscale>  0 0.17872860E+04</rscale>
<asrwt>0</asrwt>
<pdfrwt beam="1">  1        2 0.12470555E+00 0.17872860E+04</pdfrwt>
<pdfrwt beam="2">  1       -1 0.15157083E+00 0.17872860E+04</pdfrwt>
<totfact> 0.12385083E+01</totfact>
</mgrwt>
</event>
<event>
12    6  0.9533401E-008  0.2874100E+04  0.7818608E-02  0.8280625E-01
          2   -1    0    0  501    0  0.00000000000E+00  0.00000000000E+00  0.23627963945E+04  0.23627963945E+04  0.00000000000E+00 0. -1.
         -1   -1    0    0    0  501 -0.00000000000E+00 -0.00000000000E+00 -0.87401229949E+03  0.87401229949E+03  0.00000000000E+00 0.  1.
         24    2    1    2    0    0 -0.24391672600E+03 -0.23661064388E+03  0.20771642726E+04  0.21062047457E+04  0.77505157399E+02 0.  0.
        254    2    1    2    0    0  0.24391672600E+03  0.23661064388E+03 -0.58838017761E+03  0.11306039483E+04  0.90365595689E+03 0.  0.
         23    2    4    4    0    0  0.15843286357E+03  0.46553389635E+03 -0.68894723358E+03  0.85125885838E+03  0.90391218702E+02 0.  0.
         23    2    4    4    0    0  0.85483862433E+02 -0.22892325247E+03  0.10056705596E+03  0.27934508989E+03  0.90590287813E+02 0.  0.
          4    1    3    3  502    0 -0.19712107073E+03 -0.18851475898E+03  0.18247741502E+04  0.18450461322E+04  0.00000000000E+00 0. -1.
         -1    1    3    3    0  502 -0.46795655268E+02 -0.48095884902E+02  0.25239012244E+03  0.26115861350E+03  0.00000000000E+00 0.  1.
         11    1    5    5    0    0  0.33993012521E+02  0.69960538675E+02 -0.17022024098E+03  0.18714949188E+03  0.00000000000E+00 0.  1.
        -11    1    5    5    0    0  0.12443985105E+03  0.39557335767E+03 -0.51872699259E+03  0.66410936650E+03  0.00000000000E+00 0. -1.
          4    1    6    6  503    0  0.77301519039E+02 -0.17644451436E+03  0.36392468612E+02  0.19604235069E+03  0.00000000000E+00 0. -1.
         -4    1    6    6    0  503  0.81823433939E+01 -0.52478738108E+02  0.64174587351E+02  0.83302739202E+02  0.00000000000E+00 0.  1.
<mgrwt>
<rscale>  0 0.28741003E+04</rscale>
<asrwt>0</asrwt>
<pdfrwt beam="1">  1        2 0.36350714E+00 0.28741003E+04</pdfrwt>
<pdfrwt beam="2">  1       -1 0.13446343E+00 0.28741003E+04</pdfrwt>
<totfact> 0.19103495E+00</totfact>
</mgrwt>
</event>
<event>
12    6  0.9533401E-008  0.1336146E+04  0.7818608E-02  0.9001383E-01
          2   -1    0    0  501    0  0.00000000000E+00  0.00000000000E+00  0.85478833018E+03  0.85478833018E+03  0.00000000000E+00 0. -1.
         -1   -1    0    0    0  501 -0.00000000000E+00 -0.00000000000E+00 -0.52214239386E+03  0.52214239386E+03  0.00000000000E+00 0.  1.
         24    2    1    2    0    0  0.18021468143E+03 -0.30291163889E+03  0.42261909435E+02  0.36235728013E+03  0.72690694723E+02 0.  0.
        254    2    1    2    0    0 -0.18021468143E+03  0.30291163889E+03  0.29038402688E+03  0.10145734439E+04  0.90598211773E+03 0.  0.
         23    2    4    4    0    0 -0.70006827993E+02  0.51211605780E+02  0.58678959898E+03  0.59999065935E+03  0.90239532930E+02 0.  0.
         23    2    4    4    0    0 -0.11020785343E+03  0.25170003310E+03 -0.29640557210E+03  0.41458278456E+03  0.92325210318E+02 0.  0.
          4    1    3    3  502    0  0.47862937672E+02 -0.12905938654E+03 -0.89432978394E+01  0.13793900330E+03  0.00000000000E+00 0. -1.
         -1    1    3    3    0  502  0.13235174375E+03 -0.17385225235E+03  0.51205207274E+02  0.22441827683E+03  0.00000000000E+00 0.  1.
         11    1    5    5    0    0 -0.70547454535E+02  0.73197968290E+02  0.51375102602E+03  0.52371271002E+03  0.00000000000E+00 0.  1.
        -11    1    5    5    0    0  0.54062654180E+00 -0.21986362509E+02  0.73038572961E+02  0.76277949328E+02  0.00000000000E+00 0. -1.
          1    1    6    6  503    0 -0.11977867155E+03  0.17881114949E+03 -0.23632636769E+03  0.31964121981E+03  0.00000000000E+00 0.  1.
         -1    1    6    6    0  503  0.95708181144E+01  0.72888883615E+02 -0.60079204410E+02  0.94941564747E+02  0.00000000000E+00 0. -1.
<mgrwt>
<rscale>  0 0.13361455E+04</rscale>
<asrwt>0</asrwt>
<pdfrwt beam="1">  1        2 0.13150590E+00 0.13361455E+04</pdfrwt>
<pdfrwt beam="2">  1       -1 0.80329599E-01 0.13361455E+04</pdfrwt>
<totfact> 0.54370973E+01</totfact>
</mgrwt>
</event>
<event>
12    6  0.9704697E-008  0.2173892E+04  0.7818608E-02  0.8529374E-01
         -1   -1    0    0    0  501 -0.00000000000E+00  0.00000000000E+00  0.83125552865E+03  0.83125552865E+03  0.00000000000E+00 0.  1.
          2   -1    0    0  501    0  0.00000000000E+00 -0.00000000000E+00 -0.14212860845E+04  0.14212860845E+04  0.00000000000E+00 0. -1.
         24    2    1    2    0    0  0.55163474704E+03 -0.58583301144E+03  0.16082595066E+03  0.82449972164E+03  0.80209682406E+02 0.  0.
        254    2    1    2    0    0 -0.55163474704E+03  0.58583301144E+03 -0.75085650648E+03  0.14280418915E+04  0.90995436097E+03 0.  0.
         23    2    4    4    0    0 -0.69762747003E+03  0.70968888961E+03 -0.57835326917E+03  0.11546143688E+04  0.91101206283E+02 0.  0.
         23    2    4    4    0    0  0.14599272299E+03 -0.12385587817E+03 -0.17250323731E+03  0.27342752263E+03  0.91384295847E+02 0.  0.
          4    1    3    3  502    0  0.94186832789E+02 -0.11627914223E+03  0.60117016179E+02  0.16126392660E+03  0.00000000000E+00 0. -1.
         -3    1    3    3    0  502  0.45744791425E+03 -0.46955386921E+03  0.10070893448E+03  0.66323579504E+03  0.00000000000E+00 0.  1.
         11    1    5    5    0    0 -0.13041750322E+02  0.10714389647E+01 -0.23051039484E+01  0.13287164375E+02  0.00000000000E+00 0.  1.
        -11    1    5    5    0    0 -0.68458571971E+03  0.70861745064E+03 -0.57604816522E+03  0.11413272045E+04  0.00000000000E+00 0. -1.
          1    1    6    6  503    0  0.13555663279E+03 -0.12190770948E+03 -0.11633741241E+03  0.21626715851E+03  0.00000000000E+00 0. -1.
         -1    1    6    6    0  503  0.10436090199E+02 -0.19481686889E+01 -0.56165824896E+02  0.57160364118E+02  0.00000000000E+00 0.  1.
<mgrwt>
<rscale>  0 0.21738923E+04</rscale>
<asrwt>0</asrwt>
<pdfrwt beam="1">  1        2 0.21865940E+00 0.21738923E+04</pdfrwt>
<pdfrwt beam="2">  1       -1 0.12788547E+00 0.21738923E+04</pdfrwt>
<totfact> 0.77626514E+00</totfact>
</mgrwt>
</event>
<event>
12    6  0.9533401E-008  0.3687899E+04  0.7818608E-02  0.8070649E-01
          2   -1    0    0  501    0  0.00000000000E+00  0.00000000000E+00  0.32788401003E+04  0.32788401003E+04  0.00000000000E+00 0. -1.
         -1   -1    0    0    0  501 -0.00000000000E+00 -0.00000000000E+00 -0.10369976174E+04  0.10369976174E+04  0.00000000000E+00 0.  1.
         24    2    1    2    0    0  0.90617575451E+03 -0.31354469560E+03  0.27216565198E+04  0.28866884466E+04  0.78046151550E+02 0.  0.
        254    2    1    2    0    0 -0.90617575451E+03  0.31354469560E+03 -0.47981403684E+03  0.14291492711E+04  0.94487107844E+03 0.  0.
         23    2    4    4    0    0 -0.47117186012E+03  0.54548459154E+02 -0.71463569879E+03  0.86256967662E+03  0.91344451726E+02 0.  0.
         23    2    4    4    0    0 -0.43500389439E+03  0.25899623644E+03  0.23482166195E+03  0.56657959446E+03  0.97794607788E+02 0.  0.
          4    1    3    3  502    0  0.49660158229E+03 -0.13243219836E+03  0.14201979512E+04  0.15103356049E+04  0.00000000000E+00 0. -1.
         -3    1    3    3    0  502  0.40957417223E+03 -0.18111249724E+03  0.13014585685E+04  0.13763528417E+04  0.00000000000E+00 0.  1.
         11    1    5    5    0    0 -0.27330586056E+02  0.26790168608E+02 -0.53181126485E+02  0.65520273827E+02  0.00000000000E+00 0.  1.
        -11    1    5    5    0    0 -0.44384127406E+03  0.27758290546E+02 -0.66145457231E+03  0.79704940279E+03  0.00000000000E+00 0. -1.
          2    1    6    6  503    0 -0.72449101534E+02  0.59563218709E+02  0.84781789183E+02  0.12643022231E+03  0.00000000000E+00 0. -1.
         -2    1    6    6    0  503 -0.36255479286E+03  0.19943301773E+03  0.15003987277E+03  0.44014937215E+03  0.00000000000E+00 0.  1.
<mgrwt>
<rscale>  0 0.36878988E+04</rscale>
<asrwt>0</asrwt>
<pdfrwt beam="1">  1        2 0.50443694E+00 0.36878988E+04</pdfrwt>
<pdfrwt beam="2">  1       -1 0.15953810E+00 0.36878988E+04</pdfrwt>
<totfact> 0.31101143E-01</totfact>
</mgrwt>
</event>
<event>
12    6  0.9533401E-008  0.3263082E+04  0.7818608E-02  0.8172353E-01
         -1   -1    0    0    0  501 -0.00000000000E+00  0.00000000000E+00  0.10678118477E+04  0.10678118477E+04  0.00000000000E+00 0.  1.
          2   -1    0    0  501    0  0.00000000000E+00 -0.00000000000E+00 -0.24928796327E+04  0.24928796327E+04  0.00000000000E+00 0. -1.
         24    2    1    2    0    0 -0.12145121214E+03 -0.34601351039E+03  0.93606857207E+03  0.10082836303E+04  0.77043891048E+02 0.  0.
        254    2    1    2    0    0  0.12145121214E+03  0.34601351039E+03 -0.23611363571E+04  0.25524078501E+04  0.89741026878E+03 0.  0.
         23    2    4    4    0    0  0.42613824295E+03 -0.69183797930E+02 -0.95119410660E+03  0.10485997562E+04  0.91711614714E+02 0.  0.
         23    2    4    4    0    0 -0.30468703081E+03  0.41519730832E+03 -0.14099422505E+04  0.15038080939E+04  0.90987044027E+02 0.  0.
          2    1    3    3  502    0 -0.25243549473E+02 -0.89794926082E+02  0.15793442682E+03  0.18342205079E+03  0.00000000000E+00 0. -1.
         -1    1    3    3    0  502 -0.96207662668E+02 -0.25621858431E+03  0.77813414525E+03  0.82486157948E+03  0.00000000000E+00 0.  1.
         11    1    5    5    0    0  0.39562851633E+03 -0.37576027889E+02 -0.85417140857E+03  0.94209483388E+03  0.00000000000E+00 0.  1.
        -11    1    5    5    0    0  0.30509726616E+02 -0.31607770041E+02 -0.97022698027E+02  0.10650492232E+03  0.00000000000E+00 0. -1.
          3    1    6    6  503    0 -0.19610855324E+03  0.31743134047E+03 -0.10896911050E+04  0.11518020337E+04  0.00000000000E+00 0. -1.
         -3    1    6    6    0  503 -0.10857847757E+03  0.97765967849E+02 -0.32025114546E+03  0.35200606022E+03  0.00000000000E+00 0.  1.
<mgrwt>
<rscale>  0 0.32630822E+04</rscale>
<asrwt>0</asrwt>
<pdfrwt beam="1">  1        2 0.38351994E+00 0.32630822E+04</pdfrwt>
<pdfrwt beam="2">  1       -1 0.16427875E+00 0.32630822E+04</pdfrwt>
<totfact> 0.90765263E-01</totfact>
</mgrwt>
</event>
<event>
12    6  0.9533401E-008  0.1697356E+04  0.7818608E-02  0.8762874E-01
         -1   -1    0    0    0  501 -0.00000000000E+00  0.00000000000E+00  0.65714198617E+03  0.65714198617E+03  0.00000000000E+00 0.  1.
          2   -1    0    0  501    0  0.00000000000E+00 -0.00000000000E+00 -0.10960410471E+04  0.10960410471E+04  0.00000000000E+00 0. -1.
         24    2    1    2    0    0  0.24121256143E+03 -0.38212396433E+03 -0.58526983718E+03  0.74364896671E+03  0.79188253379E+02 0.  0.
        254    2    1    2    0    0 -0.24121256143E+03  0.38212396433E+03  0.14637077621E+03  0.10095340666E+04  0.89080435764E+03 0.  0.
         23    2    4    4    0    0 -0.14766002420E+03 -0.46305634591E+02 -0.31685611076E+03  0.36543128644E+03  0.95888141315E+02 0.  0.
         23    2    4    4    0    0 -0.93552537226E+02  0.42842959892E+03  0.46322688697E+03  0.64410278015E+03  0.89360193236E+02 0.  0.
          2    1    3    3  502    0  0.56056436061E+02 -0.67482296185E+02 -0.70409128116E+02  0.11248835337E+03  0.00000000000E+00 0. -1.
         -1    1    3    3    0  502  0.18515612537E+03 -0.31464166814E+03 -0.51486070906E+03  0.63116061334E+03  0.00000000000E+00 0.  1.
         11    1    5    5    0    0 -0.10273561505E+03 -0.16624777622E+02 -0.10896129496E+03  0.15067698441E+03  0.00000000000E+00 0.  1.
        -11    1    5    5    0    0 -0.44924409155E+02 -0.29680856970E+02 -0.20789481580E+03  0.21475430204E+03  0.00000000000E+00 0. -1.
          3    1    6    6  503    0 -0.23805020237E+02  0.18829658093E+03  0.14207958044E+03  0.23708413814E+03  0.00000000000E+00 0.  1.
         -3    1    6    6    0  503 -0.69747516989E+02  0.24013301799E+03  0.32114730653E+03  0.40701864201E+03  0.00000000000E+00 0. -1.
<mgrwt>
<rscale>  0 0.16973563E+04</rscale>
<asrwt>0</asrwt>
<pdfrwt beam="1">  1        2 0.16862170E+00 0.16973563E+04</pdfrwt>
<pdfrwt beam="2">  1       -1 0.10109877E+00 0.16973563E+04</pdfrwt>
<totfact> 0.22110048E+01</totfact>
</mgrwt>
</event>
<event>
12    6  0.9533401E-008  0.1404911E+04  0.7818608E-02  0.8950272E-01
         -1   -1    0    0    0  501 -0.00000000000E+00  0.00000000000E+00  0.20066093200E+03  0.20066093200E+03  0.00000000000E+00 0.  1.
          2   -1    0    0  501    0  0.00000000000E+00 -0.00000000000E+00 -0.24590914962E+04  0.24590914962E+04  0.00000000000E+00 0. -1.
         24    2    1    2    0    0  0.37925480372E+03 -0.12058259992E+03 -0.43160558268E+03  0.59267199598E+03  0.81254823037E+02 0.  0.
        254    2    1    2    0    0 -0.37925480372E+03  0.12058259992E+03 -0.18268249815E+04  0.20670804322E+04  0.88156544320E+03 0.  0.
         23    2    4    4    0    0 -0.37101208331E+03 -0.21630908563E+03 -0.38580895859E+03  0.58438442588E+03  0.90647769956E+02 0.  0.
         23    2    4    4    0    0 -0.82427204098E+01  0.33689168555E+03 -0.14410160229E+04  0.14826960063E+04  0.91084129502E+02 0.  0.
          2    1    3    3  502    0  0.25676994110E+03 -0.10382961485E+03 -0.25082790492E+03  0.37366566534E+03  0.00000000000E+00 0. -1.
         -1    1    3    3    0  502  0.12248486262E+03 -0.16752985072E+02 -0.18077767777E+03  0.21900633064E+03  0.00000000000E+00 0.  1.
         11    1    5    5    0    0 -0.19950402655E+03 -0.65872167428E+02 -0.20138227429E+03  0.29102546186E+03  0.00000000000E+00 0.  1.
        -11    1    5    5    0    0 -0.17150805676E+03 -0.15043691820E+03 -0.18442668429E+03  0.29335896402E+03  0.00000000000E+00 0. -1.
          3    1    6    6  503    0 -0.30580195097E+02  0.88295595304E+02 -0.28091777894E+03  0.29605077099E+03  0.00000000000E+00 0. -1.
         -3    1    6    6    0  503  0.22337474687E+02  0.24859609025E+03 -0.11600982440E+04  0.11866452353E+04  0.00000000000E+00 0.  1.
<mgrwt>
<rscale>  0 0.14049108E+04</rscale>
<asrwt>0</asrwt>
<pdfrwt beam="1">  1        2 0.37832174E+00 0.14049108E+04</pdfrwt>
<pdfrwt beam="2">  1       -1 0.30870915E-01 0.14049108E+04</pdfrwt>
<totfact> 0.39653945E+01</totfact>
</mgrwt>
</event>
<event>
12    6  0.9533401E-008  0.2034218E+04  0.7818608E-02  0.8590787E-01
         -1   -1    0    0    0  501 -0.00000000000E+00  0.00000000000E+00  0.85064338791E+03  0.85064338791E+03  0.00000000000E+00 0.  1.
          2   -1    0    0  501    0  0.00000000000E+00 -0.00000000000E+00 -0.12161513651E+04  0.12161513651E+04  0.00000000000E+00 0. -1.
         24    2    1    2    0    0 -0.67750884025E+02  0.79510544500E+03 -0.32420645554E+03  0.86508333706E+03  0.80476725231E+02 0.  0.
        254    2    1    2    0    0  0.67750884025E+02 -0.79510544500E+03 -0.41301521694E+02  0.12017114160E+04  0.89756429332E+03 0.  0.
         23    2    4    4    0    0  0.36545684699E+03 -0.61193359517E+03  0.22377715513E+03  0.75262993245E+03  0.91401138644E+02 0.  0.
         23    2    4    4    0    0 -0.29770596297E+03 -0.18317184982E+03 -0.26507867682E+03  0.44908148353E+03  0.96055749376E+02 0.  0.
          2    1    3    3  502    0 -0.24732832577E+02  0.20110416520E+03 -0.46125050080E+02  0.20780307628E+03  0.00000000000E+00 0. -1.
         -1    1    3    3    0  502 -0.43018051448E+02  0.59400127980E+03 -0.27808140546E+03  0.65728026078E+03  0.00000000000E+00 0.  1.
         11    1    5    5    0    0  0.15287424710E+03 -0.34483752252E+03  0.12031740572E+03  0.39592894626E+03  0.00000000000E+00 0.  1.
        -11    1    5    5    0    0  0.21258259989E+03 -0.26709607265E+03  0.10345974941E+03  0.35670098619E+03  0.00000000000E+00 0. -1.
          4    1    6    6  503    0 -0.15940920224E+03 -0.11878766851E+03 -0.94116051946E+02  0.21995371145E+03  0.00000000000E+00 0. -1.
         -4    1    6    6    0  503 -0.13829676073E+03 -0.64384181313E+02 -0.17096262487E+03  0.22912777207E+03  0.00000000000E+00 0.  1.
<mgrwt>
<rscale>  0 0.20342184E+04</rscale>
<asrwt>0</asrwt>
<pdfrwt beam="1">  1        2 0.18710021E+00 0.20342184E+04</pdfrwt>
<pdfrwt beam="2">  1       -1 0.13086821E+00 0.20342184E+04</pdfrwt>
<totfact> 0.97583771E+00</totfact>
</mgrwt>
</event>
<event>
12    6  0.9533401E-008  0.2799341E+04  0.7818608E-02  0.8303473E-01
          2   -1    0    0  501    0  0.00000000000E+00  0.00000000000E+00  0.20256542132E+04  0.20256542132E+04  0.00000000000E+00 0. -1.
         -1   -1    0    0    0  501 -0.00000000000E+00 -0.00000000000E+00 -0.96713326766E+03  0.96713326766E+03  0.00000000000E+00 0.  1.
         24    2    1    2    0    0 -0.74171524486E+01 -0.12160823588E+04  0.77603068619E+03  0.14447844906E+04  0.79166158927E+02 0.  0.
        254    2    1    2    0    0  0.74171524486E+01  0.12160823588E+04  0.28249025937E+03  0.15480029903E+04  0.91520554731E+03 0.  0.
         23    2    4    4    0    0 -0.40885057648E+03  0.89401524243E+03  0.19999911161E+03  0.10075140733E+04  0.93074784886E+02 0.  0.
         23    2    4    4    0    0  0.41626772892E+03  0.32206711638E+03  0.82491147768E+02  0.54048891706E+03  0.91199947414E+02 0.  0.
          4    1    3    3  502    0 -0.38877578974E+02 -0.63699733749E+03  0.38472928085E+03  0.74518030949E+03  0.00000000000E+00 0. -1.
         -3    1    3    3    0  502  0.31460426526E+02 -0.57908502133E+03  0.39130140533E+03  0.69960418108E+03  0.00000000000E+00 0.  1.
         11    1    5    5    0    0 -0.28446738811E+03  0.52176752828E+03  0.13911676921E+03  0.61034131758E+03  0.00000000000E+00 0. -1.
        -11    1    5    5    0    0 -0.12438318837E+03  0.37224771415E+03  0.60882342395E+02  0.39717275568E+03  0.00000000000E+00 0.  1.
          1    1    6    6  503    0  0.35265250855E+03  0.30797411301E+03  0.82014546272E+02  0.47532960340E+03  0.00000000000E+00 0. -1.
         -1    1    6    6    0  503  0.63615220379E+02  0.14093003371E+02  0.47660149569E+00  0.65159313662E+02  0.00000000000E+00 0.  1.
<mgrwt>
<rscale>  0 0.27993410E+04</rscale>
<asrwt>0</asrwt>
<pdfrwt beam="1">  1        2 0.31163911E+00 0.27993410E+04</pdfrwt>
<pdfrwt beam="2">  1       -1 0.14878973E+00 0.27993410E+04</pdfrwt>
<totfact> 0.22821517E+00</totfact>
</mgrwt>
</event>
<event>
12    6  0.9533401E-008  0.1519156E+04  0.7818608E-02  0.8871813E-01
          2   -1    0    0  501    0  0.00000000000E+00  0.00000000000E+00  0.25942739622E+04  0.25942739622E+04  0.00000000000E+00 0. -1.
         -1   -1    0    0    0  501 -0.00000000000E+00 -0.00000000000E+00 -0.22239696138E+03  0.22239696138E+03  0.00000000000E+00 0.  1.
         24    2    1    2    0    0 -0.43979973011E+03  0.15459672605E+03  0.50939842003E+03  0.69490115472E+03  0.77954564874E+02 0.  0.
        254    2    1    2    0    0  0.43979973011E+03 -0.15459672605E+03  0.18624785808E+04  0.21217697689E+04  0.90319241466E+03 0.  0.
         23    2    4    4    0    0 -0.24402091593E+02  0.32595510001E+03  0.59164752884E+03  0.68293357211E+03  0.97515517954E+02 0.  0.
         23    2    4    4    0    0  0.46420182171E+03 -0.48055182605E+03  0.12708310520E+04  0.14388361968E+04  0.93939606763E+02 0.  0.
          2    1    3    3  502    0 -0.38834482799E+02  0.27070721225E+02  0.84925210576E+02  0.97227734691E+02  0.00000000000E+00 0. -1.
         -1    1    3    3    0  502 -0.40096524731E+03  0.12752600482E+03  0.42447320946E+03  0.59767342003E+03  0.00000000000E+00 0.  1.
         11    1    5    5    0    0 -0.18675390112E+01  0.20014933937E+03  0.44787099617E+03  0.49056261065E+03  0.00000000000E+00 0. -1.
        -11    1    5    5    0    0 -0.22534552582E+02  0.12580576064E+03  0.14377653267E+03  0.19237096147E+03  0.00000000000E+00 0.  1.
          4    1    6    6  503    0  0.44812728148E+03 -0.44870478925E+03  0.11550675812E+04  0.13177007116E+04  0.00000000000E+00 0. -1.
         -4    1    6    6    0  503  0.16074540227E+02 -0.31847036807E+02  0.11576347080E+03  0.12113548518E+03  0.00000000000E+00 0.  1.
<mgrwt>
<rscale>  0 0.15191559E+04</rscale>
<asrwt>0</asrwt>
<pdfrwt beam="1">  1        2 0.39911905E+00 0.15191559E+04</pdfrwt>
<pdfrwt beam="2">  1       -1 0.34214919E-01 0.15191559E+04</pdfrwt>
<totfact> 0.27323865E+01</totfact>
</mgrwt>
</event>
<event>
12    6  0.9533401E-008  0.1550084E+04  0.7818608E-02  0.8851814E-01
         -1   -1    0    0    0  501 -0.00000000000E+00  0.00000000000E+00  0.64291068145E+03  0.64291068145E+03  0.00000000000E+00 0.  1.
          2   -1    0    0  501    0  0.00000000000E+00 -0.00000000000E+00 -0.93432884301E+03  0.93432884301E+03  0.00000000000E+00 0. -1.
         24    2    1    2    0    0 -0.37309030352E+03  0.26183258644E+03  0.13642163709E+03  0.48244135586E+03  0.79913208361E+02 0.  0.
        254    2    1    2    0    0  0.37309030352E+03 -0.26183258644E+03 -0.42783979865E+03  0.10947981686E+04  0.89876774462E+03 0.  0.
         23    2    4    4    0    0  0.41588131633E+02 -0.52423287685E+03 -0.38752324843E+03  0.65959703360E+03  0.91347122488E+02 0.  0.
         23    2    4    4    0    0  0.33150217189E+03  0.26240029041E+03 -0.40316550222E+02  0.43520113501E+03  0.95010532671E+02 0.  0.
          4    1    3    3  502    0 -0.86652847660E+02  0.55112316974E+02 -0.28555247822E+01  0.10273381873E+03  0.00000000000E+00 0. -1.
         -3    1    3    3    0  502 -0.28643745586E+03  0.20672026947E+03  0.13927716187E+03  0.37970753712E+03  0.00000000000E+00 0.  1.
         11    1    5    5    0    0  0.54647587768E+02 -0.42747357438E+03 -0.34933946360E+03  0.55475947623E+03  0.00000000000E+00 0. -1.
        -11    1    5    5    0    0 -0.13059456134E+02 -0.96759302473E+02 -0.38183784830E+02  0.10483755736E+03  0.00000000000E+00 0.  1.
          1    1    6    6  503    0  0.32878495781E+03  0.25423777943E+03 -0.23461285520E+02  0.41627734612E+03  0.00000000000E+00 0. -1.
         -1    1    6    6    0  503  0.27172140748E+01  0.81625109799E+01 -0.16855264701E+02  0.18923788891E+02  0.00000000000E+00 0.  1.
<mgrwt>
<rscale>  0 0.15500839E+04</rscale>
<asrwt>0</asrwt>
<pdfrwt beam="1">  1        2 0.14374290E+00 0.15500839E+04</pdfrwt>
<pdfrwt beam="2">  1       -1 0.98909336E-01 0.15500839E+04</pdfrwt>
<totfact> 0.29858994E+01</totfact>
</mgrwt>
</event>
<event>
12    6  0.9533401E-008  0.1720975E+04  0.7818608E-02  0.8749491E-01
          2   -1    0    0  501    0  0.00000000000E+00  0.00000000000E+00  0.22551917399E+04  0.22551917399E+04  0.00000000000E+00 0. -1.
         -1   -1    0    0    0  501 -0.00000000000E+00 -0.00000000000E+00 -0.32832645907E+03  0.32832645907E+03  0.00000000000E+00 0.  1.
         24    2    1    2    0    0  0.13336561945E+03  0.29529377914E+03 -0.92450912084E+02  0.34662204312E+03  0.81331821458E+02 0.  0.
        254    2    1    2    0    0 -0.13336561945E+03 -0.29529377914E+03  0.20193161929E+04  0.22368961559E+04  0.90613559726E+03 0.  0.
         23    2    4    4    0    0 -0.37120598830E+03  0.10978715300E+03  0.13954000663E+04  0.14510147924E+04  0.91953672913E+02 0.  0.
         23    2    4    4    0    0  0.23784036885E+03 -0.40508093214E+03  0.62391612666E+03  0.78588136351E+03  0.87633222959E+02 0.  0.
          2    1    3    3  502    0 -0.41407187439E+01  0.28425660902E+02  0.83926641434E+01  0.29926586188E+02  0.00000000000E+00 0. -1.
         -1    1    3    3    0  502  0.13750633820E+03  0.26686811823E+03 -0.10084357623E+03  0.31669545693E+03  0.00000000000E+00 0.  1.
         11    1    5    5    0    0 -0.32178455898E+03  0.73746136352E+02  0.10647257923E+04  0.11147308230E+04  0.00000000000E+00 0.  1.
        -11    1    5    5    0    0 -0.49421429321E+02  0.36041016652E+02  0.33067427396E+03  0.33628396931E+03  0.00000000000E+00 0. -1.
          3    1    6    6  503    0 -0.64205027024E+01 -0.18619039478E+02  0.36991487474E+02  0.41907775312E+02  0.00000000000E+00 0. -1.
         -3    1    6    6    0  503  0.24426087155E+03 -0.38646189266E+03  0.58692463918E+03  0.74397358819E+03  0.00000000000E+00 0.  1.
<mgrwt>
<rscale>  0 0.17209754E+04</rscale>
<asrwt>0</asrwt>
<pdfrwt beam="1">  1        2 0.34695257E+00 0.17209754E+04</pdfrwt>
<pdfrwt beam="2">  1       -1 0.50511764E-01 0.17209754E+04</pdfrwt>
<totfact> 0.20482563E+01</totfact>
</mgrwt>
</event>
<event>
12    6  0.9533401E-008  0.2320015E+04  0.7818608E-02  0.8470071E-01
          2   -1    0    0  501    0  0.00000000000E+00  0.00000000000E+00  0.12861813308E+04  0.12861813308E+04  0.00000000000E+00 0. -1.
         -1   -1    0    0    0  501 -0.00000000000E+00 -0.00000000000E+00 -0.10462112463E+04  0.10462112463E+04  0.00000000000E+00 0.  1.
         24    2    1    2    0    0  0.67349394750E+03  0.71677436276E+03 -0.72098133566E+01  0.98667608721E+03  0.78218509588E+02 0.  0.
        254    2    1    2    0    0 -0.67349394750E+03 -0.71677436276E+03  0.24717989785E+03  0.13457164900E+04  0.88458769213E+03 0.  0.
         23    2    4    4    0    0 -0.63518612102E+03 -0.83476911387E+03 -0.10983366483E+01  0.10530874932E+04  0.93226499615E+02 0.  0.
         23    2    4    4    0    0 -0.38307826476E+02  0.11799475111E+03  0.24827823450E+03  0.29262899675E+03  0.92732934585E+02 0.  0.
          2    1    3    3  502    0  0.32851493487E+03  0.30108475341E+03 -0.23522574064E+02  0.44623693556E+03  0.00000000000E+00 0. -1.
         -1    1    3    3    0  502  0.34497901262E+03  0.41568960935E+03  0.16312760708E+02  0.54043915165E+03  0.00000000000E+00 0.  1.
         11    1    5    5    0    0 -0.45757139749E+03 -0.57089184508E+03  0.37928919007E+02  0.73261701146E+03  0.00000000000E+00 0. -1.
        -11    1    5    5    0    0 -0.17761472353E+03 -0.26387726878E+03 -0.39027255655E+02  0.32047048176E+03  0.00000000000E+00 0.  1.
          1    1    6    6  503    0 -0.55189207611E+02  0.55061465098E+02  0.18937163190E+03  0.20479069448E+03  0.00000000000E+00 0. -1.
         -1    1    6    6    0  503  0.16881381135E+02  0.62933286013E+02  0.58906602598E+02  0.87838302278E+02  0.00000000000E+00 0.  1.
<mgrwt>
<rscale>  0 0.23200150E+04</rscale>
<asrwt>0</asrwt>
<pdfrwt beam="1">  1        2 0.19787405E+00 0.23200150E+04</pdfrwt>
<pdfrwt beam="2">  1       -1 0.16095558E+00 0.23200150E+04</pdfrwt>
<totfact> 0.49935115E+00</totfact>
</mgrwt>
</event>
<event>
12    6  0.9533401E-008  0.1374294E+04  0.7818608E-02  0.8972639E-01
          2   -1    0    0  501    0  0.00000000000E+00  0.00000000000E+00  0.90984217028E+03  0.90984217028E+03  0.00000000000E+00 0. -1.
         -1   -1    0    0    0  501 -0.00000000000E+00 -0.00000000000E+00 -0.51895912139E+03  0.51895912139E+03  0.00000000000E+00 0.  1.
         24    2    1    2    0    0  0.36711481386E+03 -0.13049104477E+03  0.14272859621E+03  0.42254700479E+03  0.79833074354E+02 0.  0.
        254    2    1    2    0    0 -0.36711481386E+03  0.13049104477E+03  0.24815445268E+03  0.10062542869E+04  0.89396076992E+03 0.  0.
         23    2    4    4    0    0 -0.30068006006E+03 -0.34992429786E+03  0.40922382958E+02  0.47244862790E+03  0.93153377975E+02 0.  0.
         23    2    4    4    0    0 -0.66434753802E+02  0.48041534263E+03  0.20723206972E+03  0.53380565898E+03  0.82406752670E+02 0.  0.
          2    1    3    3  502    0  0.20646277337E+03 -0.97513694792E+02  0.11691986153E+03  0.25652690206E+03  0.00000000000E+00 0. -1.
         -1    1    3    3    0  502  0.16065204049E+03 -0.32977349981E+02  0.25808734674E+02  0.16602010273E+03  0.00000000000E+00 0.  1.
         11    1    5    5    0    0 -0.25830550579E+03 -0.31754136083E+03  0.72917908378E+01  0.40939885243E+03  0.00000000000E+00 0. -1.
        -11    1    5    5    0    0 -0.42374554267E+02 -0.32382937028E+02  0.33630592120E+02  0.63049775466E+02  0.00000000000E+00 0.  1.
          1    1    6    6  503    0 -0.26650492802E+02  0.29208567428E+03  0.16577448467E+03  0.33690572814E+03  0.00000000000E+00 0. -1.
         -1    1    6    6    0  503 -0.39784261001E+02  0.18832966835E+03  0.41457585051E+02  0.19689993084E+03  0.00000000000E+00 0.  1.
<mgrwt>
<rscale>  0 0.13742938E+04</rscale>
<asrwt>0</asrwt>
<pdfrwt beam="1">  1        2 0.13997572E+00 0.13742938E+04</pdfrwt>
<pdfrwt beam="2">  1       -1 0.79839865E-01 0.13742938E+04</pdfrwt>
<totfact> 0.50355488E+01</totfact>
</mgrwt>
</event>
<event>
12    6  0.9533401E-008  0.1987667E+04  0.7818608E-02  0.8612409E-01
         -1   -1    0    0    0  501 -0.00000000000E+00  0.00000000000E+00  0.58247119776E+03  0.58247119776E+03  0.00000000000E+00 0.  1.
          2   -1    0    0  501    0  0.00000000000E+00 -0.00000000000E+00 -0.16957142171E+04  0.16957142171E+04  0.00000000000E+00 0. -1.
         24    2    1    2    0    0  0.30041693579E+03  0.65398801612E+03 -0.82722508944E+03  0.10993982756E+04  0.80153347969E+02 0.  0.
        254    2    1    2    0    0 -0.30041693579E+03 -0.65398801612E+03 -0.28601792990E+03  0.11787871393E+04  0.88869691291E+03 0.  0.
         23    2    4    4    0    0 -0.54241263072E+03 -0.63660140059E+03 -0.75577666169E+02  0.84501365752E+03  0.94145061403E+02 0.  0.
         23    2    4    4    0    0  0.24199569493E+03 -0.17386615532E+02 -0.21044026373E+03  0.33377348178E+03  0.90859351609E+02 0.  0.
          4    1    3    3  502    0  0.13706021680E+03  0.37077751005E+03 -0.49209081597E+03  0.63120110595E+03  0.00000000000E+00 0. -1.
         -3    1    3    3    0  502  0.16335671900E+03  0.28321050607E+03 -0.33513427347E+03  0.46819716963E+03  0.00000000000E+00 0.  1.
         11    1    5    5    0    0 -0.28700825727E+03 -0.40417256743E+03 -0.29056159350E+02  0.49656164210E+03  0.00000000000E+00 0. -1.
        -11    1    5    5    0    0 -0.25540437345E+03 -0.23242883315E+03 -0.46521506820E+02  0.34845201543E+03  0.00000000000E+00 0.  1.
          1    1    6    6  503    0  0.73404304880E+02  0.35466459241E+02 -0.79406973286E+02  0.11380478510E+03  0.00000000000E+00 0. -1.
         -1    1    6    6    0  503  0.16859139005E+03 -0.52853074773E+02 -0.13103329045E+03  0.21996869667E+03  0.00000000000E+00 0.  1.
<mgrwt>
<rscale>  0 0.19876667E+04</rscale>
<asrwt>0</asrwt>
<pdfrwt beam="1">  1        2 0.26087911E+00 0.19876667E+04</pdfrwt>
<pdfrwt beam="2">  1       -1 0.89610955E-01 0.19876667E+04</pdfrwt>
<totfact> 0.12737815E+01</totfact>
</mgrwt>
</event>
<event>
12    6  0.9533401E-008  0.1933476E+04  0.7818608E-02  0.8638370E-01
          2   -1    0    0  501    0  0.00000000000E+00  0.00000000000E+00  0.23037077815E+04  0.23037077815E+04  0.00000000000E+00 0. -1.
         -1   -1    0    0    0  501 -0.00000000000E+00 -0.00000000000E+00 -0.40568624710E+03  0.40568624710E+03  0.00000000000E+00 0.  1.
         24    2    1    2    0    0  0.29397099770E+03  0.66024919761E+03  0.10990718926E+04  0.13175879139E+04  0.75702940710E+02 0.  0.
        254    2    1    2    0    0 -0.29397099770E+03 -0.66024919761E+03  0.79894964180E+03  0.13918061147E+04  0.88116728290E+03 0.  0.
         23    2    4    4    0    0  0.14681104212E+03 -0.41029955124E+03  0.75361162342E+03  0.87529818217E+03  0.91198820793E+02 0.  0.
         23    2    4    4    0    0 -0.44078203982E+03 -0.24994964637E+03  0.45338018379E+02  0.51650793257E+03  0.89225983573E+02 0.  0.
          4    1    3    3  502    0  0.78896536230E+02  0.25141350777E+03  0.36283081390E+03  0.44841901703E+03  0.00000000000E+00 0. -1.
         -3    1    3    3    0  502  0.21507446147E+03  0.40883568984E+03  0.73624107873E+03  0.86916889686E+03  0.00000000000E+00 0.  1.
         11    1    5    5    0    0  0.12723978797E+03 -0.38392572773E+03  0.64050020129E+03  0.75751530407E+03  0.00000000000E+00 0. -1.
        -11    1    5    5    0    0  0.19571254155E+02 -0.26373823516E+02  0.11311142213E+03  0.11778287810E+03  0.00000000000E+00 0.  1.
          3    1    6    6  503    0 -0.17115986958E+03 -0.48420906114E+02  0.17929104249E+02  0.17877846035E+03  0.00000000000E+00 0. -1.
         -3    1    6    6    0  503 -0.26962217024E+03 -0.20152874025E+03  0.27408914130E+02  0.33772947222E+03  0.00000000000E+00 0.  1.
<mgrwt>
<rscale>  0 0.19334762E+04</rscale>
<asrwt>0</asrwt>
<pdfrwt beam="1">  1        2 0.35441657E+00 0.19334762E+04</pdfrwt>
<pdfrwt beam="2">  1       -1 0.62413270E-01 0.19334762E+04</pdfrwt>
<totfact> 0.12495891E+01</totfact>
</mgrwt>
</event>
<event>
12    6  0.9533401E-008  0.1424920E+04  0.7818608E-02  0.8935975E-01
         -1   -1    0    0    0  501 -0.00000000000E+00  0.00000000000E+00  0.17180508393E+03  0.17180508393E+03  0.00000000000E+00 0.  1.
          2   -1    0    0  501    0  0.00000000000E+00 -0.00000000000E+00 -0.29545083395E+04  0.29545083395E+04  0.00000000000E+00 0. -1.
         24    2    1    2    0    0  0.20353486630E+03  0.16003822214E+03 -0.11530049349E+03  0.29329487488E+03  0.75425496297E+02 0.  0.
        254    2    1    2    0    0 -0.20353486630E+03 -0.16003822214E+03 -0.26674027621E+04  0.28330185485E+04  0.91865005684E+03 0.  0.
         23    2    4    4    0    0 -0.50653436440E+03 -0.97163729865E+02 -0.94049113290E+03  0.10765926873E+04  0.92251777631E+02 0.  0.
         23    2    4    4    0    0  0.30299949810E+03 -0.62874492271E+02 -0.17269116292E+04  0.17564258613E+04  0.83941250879E+02 0.  0.
          4    1    3    3  502    0  0.40897319992E+02  0.75683522051E+02 -0.44736584963E+02  0.96963644356E+02  0.00000000000E+00 0. -1.
         -3    1    3    3    0  502  0.16263754630E+03  0.84354700085E+02 -0.70563908530E+02  0.19633123053E+03  0.00000000000E+00 0.  1.
         11    1    5    5    0    0 -0.30466866768E+03 -0.93592274893E+02 -0.63355501881E+03  0.70920693232E+03  0.00000000000E+00 0.  1.
        -11    1    5    5    0    0 -0.20186569671E+03 -0.35714549721E+01 -0.30693611409E+03  0.36738575494E+03  0.00000000000E+00 0. -1.
          1    1    6    6  503    0  0.37889022017E+02 -0.35044792909E+02 -0.36957165617E+03  0.37315804231E+03  0.00000000000E+00 0. -1.
         -1    1    6    6    0  503  0.26511047608E+03 -0.27829699362E+02 -0.13573399730E+04  0.13832678190E+04  0.00000000000E+00 0.  1.
<mgrwt>
<rscale>  0 0.14249204E+04</rscale>
<asrwt>0</asrwt>
<pdfrwt beam="1">  1        2 0.45453972E+00 0.14249204E+04</pdfrwt>
<pdfrwt beam="2">  1       -1 0.26431553E-01 0.14249204E+04</pdfrwt>
<totfact> 0.26385066E+01</totfact>
</mgrwt>
</event>
<event>
12    6  0.9533401E-008  0.1821401E+04  0.7818608E-02  0.8695001E-01
          2   -1    0    0  501    0  0.00000000000E+00  0.00000000000E+00  0.35990426776E+04  0.35990426776E+04  0.00000000000E+00 0. -1.
         -1   -1    0    0    0  501 -0.00000000000E+00 -0.00000000000E+00 -0.23044327149E+03  0.23044327149E+03  0.00000000000E+00 0.  1.
         24    2    1    2    0    0 -0.56061011723E+03 -0.38511283213E+03  0.11778873732E+04  0.13625692035E+04  0.81120734031E+02 0.  0.
        254    2    1    2    0    0  0.56061011723E+03  0.38511283213E+03  0.21907120329E+04  0.24669167456E+04  0.90766922458E+03 0.  0.
         23    2    4    4    0    0  0.22078988000E+03  0.62638384722E+03  0.16262357204E+04  0.17590589553E+04  0.92416961333E+02 0.  0.
         23    2    4    4    0    0  0.33982023724E+03 -0.24127101509E+03  0.56447631256E+03  0.70785779029E+03  0.93486081645E+02 0.  0.
          4    1    3    3  502    0 -0.37610810781E+03 -0.28824166210E+03  0.76037361058E+03  0.89594006060E+03  0.00000000000E+00 0. -1.
         -3    1    3    3    0  502 -0.18450200943E+03 -0.96871170032E+02  0.41751376261E+03  0.46662914293E+03  0.00000000000E+00 0.  1.
         11    1    5    5    0    0  0.11328755488E+03  0.44324473469E+03  0.10725679187E+04  0.11660625648E+04  0.00000000000E+00 0.  1.
        -11    1    5    5    0    0  0.10750232512E+03  0.18313911253E+03  0.55366780171E+03  0.59299639045E+03  0.00000000000E+00 0. -1.
          4    1    6    6  503    0  0.81088897531E+02 -0.31716523038E+02  0.17500112977E+03  0.19546545106E+03  0.00000000000E+00 0. -1.
         -4    1    6    6    0  503  0.25873133971E+03 -0.20955449206E+03  0.38947518280E+03  0.51239233923E+03  0.00000000000E+00 0.  1.
<mgrwt>
<rscale>  0 0.18214007E+04</rscale>
<asrwt>0</asrwt>
<pdfrwt beam="1">  1        2 0.55369883E+00 0.18214007E+04</pdfrwt>
<pdfrwt beam="2">  1       -1 0.35452814E-01 0.18214007E+04</pdfrwt>
<totfact> 0.56762881E+00</totfact>
</mgrwt>
</event>
<event>
12    6  0.9533401E-008  0.1697403E+04  0.7818608E-02  0.8762847E-01
          2   -1    0    0  501    0  0.00000000000E+00  0.00000000000E+00  0.16331736657E+04  0.16331736657E+04  0.00000000000E+00 0. -1.
         -1   -1    0    0    0  501 -0.00000000000E+00 -0.00000000000E+00 -0.44103938119E+03  0.44103938119E+03  0.00000000000E+00 0.  1.
         24    2    1    2    0    0 -0.38145083833E+03 -0.29582379500E+03 -0.20851216550E+02  0.48990155491E+03  0.80946281684E+02 0.  0.
        254    2    1    2    0    0  0.38145083833E+03  0.29582379500E+03  0.12129855011E+04  0.15843114920E+04  0.89760382021E+03 0.  0.
         23    2    4    4    0    0 -0.12914174772E+03  0.39007062189E+03  0.83612269190E+03  0.93617847818E+03  0.92175409071E+02 0.  0.
         23    2    4    4    0    0  0.51059258605E+03 -0.94246826891E+02  0.37686280916E+03  0.64813301379E+03  0.91997681068E+02 0.  0.
          4    1    3    3  502    0 -0.12055269375E+02 -0.27988154199E+02  0.11278980432E+02  0.32494333271E+02  0.00000000000E+00 0. -1.
         -3    1    3    3    0  502 -0.36939556896E+03 -0.26783564080E+03 -0.32130196982E+02  0.45740722164E+03  0.00000000000E+00 0.  1.
         11    1    5    5    0    0 -0.41914348944E+02  0.32676673076E+02  0.99855572680E+02  0.11311813739E+03  0.00000000000E+00 0.  1.
        -11    1    5    5    0    0 -0.87227398772E+02  0.35739394882E+03  0.73626711922E+03  0.82306034079E+03  0.00000000000E+00 0. -1.
          2    1    6    6  503    0  0.37655670266E+03 -0.60507444242E+02  0.32302321171E+03  0.49980005645E+03  0.00000000000E+00 0. -1.
         -2    1    6    6    0  503  0.13403588339E+03 -0.33739382649E+02  0.53839597454E+02  0.14833295734E+03  0.00000000000E+00 0.  1.
<mgrwt>
<rscale>  0 0.16974026E+04</rscale>
<asrwt>0</asrwt>
<pdfrwt beam="1">  1        2 0.25125748E+00 0.16974026E+04</pdfrwt>
<pdfrwt beam="2">  1       -1 0.67852213E-01 0.16974026E+04</pdfrwt>
<totfact> 0.25480383E+01</totfact>
</mgrwt>
</event>
<event>
12    6  0.9533401E-008  0.2594253E+04  0.7818608E-02  0.8370156E-01
          2   -1    0    0  501    0  0.00000000000E+00  0.00000000000E+00  0.20355365648E+04  0.20355365648E+04  0.00000000000E+00 0. -1.
         -1   -1    0    0    0  501 -0.00000000000E+00 -0.00000000000E+00 -0.82658138652E+03  0.82658138652E+03  0.00000000000E+00 0.  1.
         24    2    1    2    0    0  0.69660675159E+03 -0.93058754457E+02  0.15233719036E+04  0.16796225537E+04  0.80926314043E+02 0.  0.
        254    2    1    2    0    0 -0.69660675159E+03  0.93058754457E+02 -0.31441672526E+03  0.11824953976E+04  0.89750576049E+03 0.  0.
         23    2    4    4    0    0 -0.70409702600E+03  0.28561130174E+02  0.13115577164E+03  0.72216868701E+03  0.88076193680E+02 0.  0.
         23    2    4    4    0    0  0.74902744096E+01  0.64497624283E+02 -0.44557249689E+03  0.46032671060E+03  0.95654496777E+02 0.  0.
          4    1    3    3  502    0  0.20004657987E+03 -0.24097443771E+02  0.35417663045E+03  0.40748055963E+03  0.00000000000E+00 0. -1.
         -3    1    3    3    0  502  0.49656017172E+03 -0.68961310686E+02  0.11691952731E+04  0.12721419941E+04  0.00000000000E+00 0.  1.
         11    1    5    5    0    0 -0.21381110649E+03  0.38811285419E+01  0.81132967132E+02  0.22871993960E+03  0.00000000000E+00 0.  1.
        -11    1    5    5    0    0 -0.49028591951E+03  0.24680001632E+02  0.50022804505E+02  0.49344874741E+03  0.00000000000E+00 0. -1.
          2    1    6    6  503    0  0.28454712580E+02  0.82299339543E+02 -0.36282046089E+03  0.37312402603E+03  0.00000000000E+00 0. -1.
         -2    1    6    6    0  503 -0.20964438170E+02 -0.17801715260E+02 -0.82752036003E+02  0.87202684572E+02  0.00000000000E+00 0.  1.
<mgrwt>
<rscale>  0 0.25942526E+04</rscale>
<asrwt>0</asrwt>
<pdfrwt beam="1">  1        2 0.31315947E+00 0.25942526E+04</pdfrwt>
<pdfrwt beam="2">  1       -1 0.12716637E+00 0.25942526E+04</pdfrwt>
<totfact> 0.34454724E+00</totfact>
</mgrwt>
</event>
<event>
12    6  0.9533401E-008  0.1460310E+04  0.7818608E-02  0.8911284E-01
          4   -1    0    0  501    0  0.00000000000E+00  0.00000000000E+00  0.30608645943E+03  0.30608645943E+03  0.00000000000E+00 0. -1.
         -3   -1    0    0    0  501 -0.00000000000E+00 -0.00000000000E+00 -0.17417517610E+04  0.17417517610E+04  0.00000000000E+00 0.  1.
         24    2    1    2    0    0  0.21014556298E+03 -0.22160031177E+03  0.22697621102E+02  0.31660925237E+03  0.80364052070E+02 0.  0.
        254    2    1    2    0    0 -0.21014556298E+03  0.22160031177E+03 -0.14583629227E+04  0.17312289681E+04  0.88151203611E+03 0.  0.
         23    2    4    4    0    0 -0.11985931364E+01 -0.25494426209E+03 -0.98578602126E+03  0.10224226690E+04  0.92606808103E+02 0.  0.
         23    2    4    4    0    0 -0.20894696984E+03  0.47654457387E+03 -0.47257690143E+03  0.70880629911E+03  0.91235271710E+02 0.  0.
          2    1    3    3  502    0  0.10115039170E+03 -0.10462940334E+03 -0.29369586998E+02  0.14846308101E+03  0.00000000000E+00 0. -1.
         -1    1    3    3    0  502  0.10899517128E+03 -0.11697090844E+03  0.52067208100E+02  0.16814617136E+03  0.00000000000E+00 0.  1.
         11    1    5    5    0    0  0.34456619518E+02 -0.20679632176E+03 -0.71584676288E+03  0.74591458307E+03  0.00000000000E+00 0.  1.
        -11    1    5    5    0    0 -0.35655212654E+02 -0.48147940334E+02 -0.26993925838E+03  0.27650808589E+03  0.00000000000E+00 0. -1.
          4    1    6    6  503    0 -0.18119897599E+02  0.78525022591E+02 -0.37002040356E+02  0.88677284873E+02  0.00000000000E+00 0. -1.
         -4    1    6    6    0  503 -0.19082707224E+03  0.39801955127E+03 -0.43557486107E+03  0.62012901424E+03  0.00000000000E+00 0.  1.
<mgrwt>
<rscale>  0 0.14603104E+04</rscale>
<asrwt>0</asrwt>
<pdfrwt beam="1">  1        4 0.47090223E-01 0.14603104E+04</pdfrwt>
<pdfrwt beam="2">  1       -3 0.26796182E+00 0.14603104E+04</pdfrwt>
<totfact> 0.56123515E-01</totfact>
</mgrwt>
</event>
<event>
12    6  0.9533401E-008  0.2314531E+04  0.7818608E-02  0.8472214E-01
         -1   -1    0    0    0  501 -0.00000000000E+00  0.00000000000E+00  0.62905243091E+03  0.62905243091E+03  0.00000000000E+00 0.  1.
          2   -1    0    0  501    0  0.00000000000E+00 -0.00000000000E+00 -0.21290176501E+04  0.21290176501E+04  0.00000000000E+00 0. -1.
         24    2    1    2    0    0  0.13622540909E+03  0.63371364326E+03  0.23343278453E+03  0.69760212298E+03  0.10957879978E+03 0.  0.
        254    2    1    2    0    0 -0.13622540909E+03 -0.63371364326E+03 -0.17333980038E+04  0.20604679581E+04  0.90593003212E+03 0.  0.
         23    2    4    4    0    0 -0.19197978522E+03  0.14916272889E+03 -0.17109969432E+03  0.30975714200E+03  0.86997839096E+02 0.  0.
         23    2    4    4    0    0  0.55754376129E+02 -0.78287637215E+03 -0.15622983094E+04  0.17507108161E+04  0.90600161686E+02 0.  0.
          2    1    3    3  502    0 -0.14471805888E+02  0.15035559587E+03  0.56531835763E+02  0.16128263028E+03  0.00000000000E+00 0. -1.
         -1    1    3    3    0  502  0.15069721498E+03  0.48335804739E+03  0.17690094877E+03  0.53631949270E+03  0.00000000000E+00 0.  1.
         11    1    5    5    0    0 -0.11310416392E+03  0.10469693068E+03 -0.57530440513E+02  0.16451064031E+03  0.00000000000E+00 0. -1.
        -11    1    5    5    0    0 -0.78875621300E+02  0.44465798207E+02 -0.11356925380E+03  0.14524650170E+03  0.00000000000E+00 0.  1.
          2    1    6    6  503    0 -0.19093357376E+02 -0.56892366670E+02 -0.10792779705E+03  0.12348970426E+03  0.00000000000E+00 0. -1.
         -2    1    6    6    0  503  0.74847733505E+02 -0.72598400548E+03 -0.14543705124E+04  0.16272211118E+04  0.00000000000E+00 0.  1.
<mgrwt>
<rscale>  0 0.23145313E+04</rscale>
<asrwt>0</asrwt>
<pdfrwt beam="1">  1        2 0.32754118E+00 0.23145313E+04</pdfrwt>
<pdfrwt beam="2">  1       -1 0.96777297E-01 0.23145313E+04</pdfrwt>
<totfact> 0.59888588E+00</totfact>
</mgrwt>
</event>
<event>
12    6  0.9533401E-008  0.1955783E+04  0.7818608E-02  0.8627577E-01
         -1   -1    0    0    0  501 -0.00000000000E+00  0.00000000000E+00  0.19251851355E+04  0.19251851355E+04  0.00000000000E+00 0.  1.
          2   -1    0    0  501    0  0.00000000000E+00 -0.00000000000E+00 -0.49671657150E+03  0.49671657150E+03  0.00000000000E+00 0. -1.
         24    2    1    2    0    0 -0.42598731086E+03  0.16883203544E+03  0.13278960645E+04  0.14070346654E+04  0.80431003509E+02 0.  0.
        254    2    1    2    0    0  0.42598731086E+03 -0.16883203544E+03  0.10057249949E+03  0.10148670416E+04  0.89992824117E+03 0.  0.
         23    2    4    4    0    0  0.18580182549E+02  0.68325888064E+02  0.42113370504E+03  0.43750107236E+03  0.95078602392E+02 0.  0.
         23    2    4    4    0    0  0.40740712831E+03 -0.23715792350E+03 -0.32056120555E+03  0.57736596923E+03  0.91474187846E+02 0.  0.
          4    1    3    3  502    0 -0.78236832757E+02 -0.28531698537E+00  0.20511951721E+03  0.21953382369E+03  0.00000000000E+00 0. -1.
         -3    1    3    3    0  502 -0.34775047810E+03  0.16911735242E+03  0.11227765473E+04  0.11875008417E+04  0.00000000000E+00 0.  1.
         11    1    5    5    0    0  0.20162468225E+02  0.60632176151E+02  0.42426174515E+03  0.42904640112E+03  0.00000000000E+00 0. -1.
        -11    1    5    5    0    0 -0.15822856753E+01  0.76937119127E+01 -0.31280401115E+01  0.84546712469E+01  0.00000000000E+00 0.  1.
          1    1    6    6  503    0  0.37331698242E+03 -0.19370247584E+03 -0.25583638353E+03  0.49227885761E+03  0.00000000000E+00 0. -1.
         -1    1    6    6    0  503  0.34090145888E+02 -0.43455447655E+02 -0.64724822026E+02  0.85087111620E+02  0.00000000000E+00 0.  1.
<mgrwt>
<rscale>  0 0.19557826E+04</rscale>
<asrwt>0</asrwt>
<pdfrwt beam="1">  1        2 0.76417935E-01 0.19557826E+04</pdfrwt>
<pdfrwt beam="2">  1       -1 0.29618232E+00 0.19557826E+04</pdfrwt>
<totfact> 0.23126567E+00</totfact>
</mgrwt>
</event>
<event>
12    6  0.9533401E-008  0.1659783E+04  0.7818608E-02  0.8784640E-01
          2   -1    0    0  501    0  0.00000000000E+00  0.00000000000E+00  0.22564212158E+04  0.22564212158E+04  0.00000000000E+00 0. -1.
         -3   -1    0    0    0  501 -0.00000000000E+00 -0.00000000000E+00 -0.30522681181E+03  0.30522681181E+03  0.00000000000E+00 0.  1.
         24    2    1    2    0    0 -0.32383689168E+02 -0.44401331061E+03  0.12849570746E+04  0.13620935563E+04  0.77379901315E+02 0.  0.
        254    2    1    2    0    0  0.32383689168E+02  0.44401331061E+03  0.66623732934E+03  0.11995544713E+04  0.89267139938E+03 0.  0.
         23    2    4    4    0    0  0.30309364046E+03 -0.16337832620E+02 -0.29491024451E+02  0.31852588530E+03  0.91958356983E+02 0.  0.
         23    2    4    4    0    0 -0.27070995129E+03  0.46035114323E+03  0.69572835379E+03  0.88102858599E+03  0.83464808591E+02 0.  0.
          2    1    3    3  502    0 -0.13193226889E+02 -0.21627656083E+03  0.50952923385E+03  0.55368732345E+03  0.00000000000E+00 0. -1.
         -1    1    3    3    0  502 -0.19190462279E+02 -0.22773674978E+03  0.77542784079E+03  0.80840623285E+03  0.00000000000E+00 0.  1.
         11    1    5    5    0    0  0.96600190911E+02  0.34886891794E+02  0.57819470048E+01  0.10286944646E+03  0.00000000000E+00 0. -1.
        -11    1    5    5    0    0  0.20649344955E+03 -0.51224724415E+02 -0.35272971456E+02  0.21565643884E+03  0.00000000000E+00 0.  1.
          2    1    6    6  503    0 -0.11070857155E+03  0.26466696327E+03  0.34482248665E+03  0.44856163073E+03  0.00000000000E+00 0.  1.
         -2    1    6    6    0  503 -0.16000137974E+03  0.19568417996E+03  0.35090586713E+03  0.43246695526E+03  0.00000000000E+00 0. -1.
<mgrwt>
<rscale>  0 0.16597834E+04</rscale>
<asrwt>0</asrwt>
<pdfrwt beam="1">  1        2 0.34714171E+00 0.16597834E+04</pdfrwt>
<pdfrwt beam="2">  1       -3 0.46957973E-01 0.16597834E+04</pdfrwt>
<totfact> 0.13308618E+01</totfact>
</mgrwt>
</event>
<event>
12    6  0.9533401E-008  0.1747017E+04  0.7818608E-02  0.8734994E-01
          2   -1    0    0  501    0  0.00000000000E+00  0.00000000000E+00  0.59664583942E+03  0.59664583942E+03  0.00000000000E+00 0. -1.
         -1   -1    0    0    0  501 -0.00000000000E+00 -0.00000000000E+00 -0.12788442666E+04  0.12788442666E+04  0.00000000000E+00 0.  1.
         24    2    1    2    0    0  0.41515680804E+03 -0.21653193549E+03 -0.71272464837E+03  0.85653836942E+03  0.80251476977E+02 0.  0.
        254    2    1    2    0    0 -0.41515680804E+03  0.21653193549E+03  0.30526221200E+02  0.10189517366E+04  0.90448302192E+03 0.  0.
         23    2    4    4    0    0  0.35220598740E+02 -0.29683055587E+03  0.90752614983E+02  0.32705569174E+03  0.96853078945E+02 0.  0.
         23    2    4    4    0    0 -0.45037740678E+03  0.51336249136E+03 -0.60226393783E+02  0.69189604483E+03  0.93338428692E+02 0.  0.
          4    1    3    3  502    0  0.19771536592E+03 -0.95381328134E+02 -0.40576026077E+03  0.46133540174E+03  0.00000000000E+00 0. -1.
         -3    1    3    3    0  502  0.21744144212E+03 -0.12115060736E+03 -0.30696438760E+03  0.39520296769E+03  0.00000000000E+00 0.  1.
         11    1    5    5    0    0  0.43050120877E+02 -0.13029255117E+03 -0.28417001613E-01  0.13722048902E+03  0.00000000000E+00 0.  1.
        -11    1    5    5    0    0 -0.78295221368E+01 -0.16653800469E+03  0.90781031984E+02  0.18983520272E+03  0.00000000000E+00 0. -1.
          3    1    6    6  503    0 -0.27379617921E+03  0.34153355761E+03  0.21470611543E+01  0.43773751107E+03  0.00000000000E+00 0. -1.
         -3    1    6    6    0  503 -0.17658122757E+03  0.17182893375E+03 -0.62373454937E+02  0.25415853376E+03  0.00000000000E+00 0.  1.
<mgrwt>
<rscale>  0 0.17470170E+04</rscale>
<asrwt>0</asrwt>
<pdfrwt beam="1">  1        2 0.91791668E-01 0.17470170E+04</pdfrwt>
<pdfrwt beam="2">  1       -1 0.19674527E+00 0.17470170E+04</pdfrwt>
<totfact> 0.85712823E+00</totfact>
</mgrwt>
</event>
<event>
12    6  0.9533401E-008  0.3092578E+04  0.7818608E-02  0.8217778E-01
          2   -1    0    0  501    0  0.00000000000E+00  0.00000000000E+00  0.14021048660E+04  0.14021048660E+04  0.00000000000E+00 0. -1.
         -1   -1    0    0    0  501 -0.00000000000E+00 -0.00000000000E+00 -0.17052997155E+04  0.17052997155E+04  0.00000000000E+00 0.  1.
         24    2    1    2    0    0  0.35735300458E+03  0.27418821530E+03  0.12085916518E+04  0.12923986505E+04  0.81976483075E+02 0.  0.
        254    2    1    2    0    0 -0.35735300458E+03 -0.27418821530E+03 -0.15117865013E+04  0.18150059310E+04  0.89770137401E+03 0.  0.
         23    2    4    4    0    0  0.69639455617E+02 -0.49324634306E+03 -0.65574182269E+03  0.82931290644E+03  0.98086441691E+02 0.  0.
         23    2    4    4    0    0 -0.42699246019E+03  0.21905812776E+03 -0.85604467861E+03  0.98569302460E+03  0.92028379151E+02 0.  0.
          4    1    3    3  502    0  0.32742591877E+03  0.26076609618E+03  0.10481473964E+04  0.11286361919E+04  0.00000000000E+00 0. -1.
         -3    1    3    3    0  502  0.29927085807E+02  0.13422119122E+02  0.16044425538E+03  0.16376245855E+03  0.00000000000E+00 0.  1.
         11    1    5    5    0    0  0.93340897013E+02 -0.42929854297E+03 -0.56001890681E+03  0.71178011917E+03  0.00000000000E+00 0. -1.
        -11    1    5    5    0    0 -0.23701441397E+02 -0.63947800089E+02 -0.95722915875E+02  0.11753278727E+03  0.00000000000E+00 0.  1.
          1    1    6    6  503    0 -0.39360320747E+03  0.21471383488E+03 -0.82910607099E+03  0.94257222151E+03  0.00000000000E+00 0. -1.
         -1    1    6    6    0  503 -0.33389252729E+02  0.43442928829E+01 -0.26938607620E+02  0.43120803088E+02  0.00000000000E+00 0.  1.
<mgrwt>
<rscale>  0 0.30925776E+04</rscale>
<asrwt>0</asrwt>
<pdfrwt beam="1">  1        2 0.21570844E+00 0.30925776E+04</pdfrwt>
<pdfrwt beam="2">  1       -1 0.26235380E+00 0.30925776E+04</pdfrwt>
<totfact> 0.80864804E-01</totfact>
</mgrwt>
</event>
<event>
12    6  0.9533401E-008  0.1944836E+04  0.7818608E-02  0.8632855E-01
          2   -1    0    0  501    0  0.00000000000E+00  0.00000000000E+00  0.28588374754E+04  0.28588374754E+04  0.00000000000E+00 0. -1.
         -1   -1    0    0    0  501 -0.00000000000E+00 -0.00000000000E+00 -0.33076272459E+03  0.33076272459E+03  0.00000000000E+00 0.  1.
         24    2    1    2    0    0 -0.37244822488E+03 -0.25052969179E+03  0.20017487463E+04  0.20530932024E+04  0.81919763109E+02 0.  0.
        254    2    1    2    0    0  0.37244822488E+03  0.25052969179E+03  0.52632600447E+03  0.11365069976E+04  0.90174624252E+03 0.  0.
         23    2    4    4    0    0  0.57052664070E+03  0.27987685297E+03  0.90587541875E+02  0.64845449104E+03  0.91953377485E+02 0.  0.
         23    2    4    4    0    0 -0.19807841581E+03 -0.29347161189E+02  0.43573846259E+03  0.48805250655E+03  0.90724454731E+02 0.  0.
          4    1    3    3  502    0 -0.34121213245E+03 -0.19642209566E+03  0.17128062796E+04  0.17574733883E+04  0.00000000000E+00 0. -1.
         -3    1    3    3    0  502 -0.31236092435E+02 -0.54107596126E+02  0.28894246668E+03  0.29561981409E+03  0.00000000000E+00 0.  1.
         11    1    5    5    0    0  0.31902847856E+03  0.20423033510E+03  0.38941497436E+02  0.38079606108E+03  0.00000000000E+00 0.  1.
        -11    1    5    5    0    0  0.25149816214E+03  0.75646517871E+02  0.51646044439E+02  0.26765842996E+03  0.00000000000E+00 0. -1.
          1    1    6    6  503    0 -0.12428822445E+03  0.50488923589E+01  0.34187214187E+03  0.36379886673E+03  0.00000000000E+00 0. -1.
         -1    1    6    6    0  503 -0.73790191366E+02 -0.34396053548E+02  0.93866320723E+02  0.12425363982E+03  0.00000000000E+00 0.  1.
<mgrwt>
<rscale>  0 0.19448361E+04</rscale>
<asrwt>0</asrwt>
<pdfrwt beam="1">  1        2 0.43982113E+00 0.19448361E+04</pdfrwt>
<pdfrwt beam="2">  1       -1 0.50886575E-01 0.19448361E+04</pdfrwt>
<totfact> 0.87976849E+00</totfact>
</mgrwt>
</event>
<event>
12    6  0.9533401E-008  0.1857055E+04  0.7818608E-02  0.8676533E-01
          2   -1    0    0  501    0  0.00000000000E+00  0.00000000000E+00  0.16713850409E+04  0.16713850409E+04  0.00000000000E+00 0. -1.
         -1   -1    0    0    0  501 -0.00000000000E+00 -0.00000000000E+00 -0.51583764458E+03  0.51583764458E+03  0.00000000000E+00 0.  1.
         24    2    1    2    0    0  0.19671596830E+03 -0.39106677413E+03 -0.22556580507E+03  0.49878177323E+03  0.79201836294E+02 0.  0.
        254    2    1    2    0    0 -0.19671596830E+03  0.39106677413E+03  0.13811132014E+04  0.16884409123E+04  0.86702286309E+03 0.  0.
         23    2    4    4    0    0 -0.29169468176E+03  0.53873829202E+03  0.13570234639E+04  0.14911679617E+04  0.82124744198E+02 0.  0.
         23    2    4    4    0    0  0.94978713460E+02 -0.14767151789E+03  0.24089737506E+02  0.19727295062E+03  0.86651418849E+02 0.  0.
          4    1    3    3  502    0  0.33356107967E+01  0.23403988949E+00  0.43229995631E+01  0.54652904113E+01  0.00000000000E+00 0. -1.
         -3    1    3    3    0  502  0.19338035750E+03 -0.39130081402E+03 -0.22988880463E+03  0.49331648282E+03  0.00000000000E+00 0.  1.
         11    1    5    5    0    0 -0.25081724735E+01  0.19658920134E+01 -0.28848518952E+00  0.31998256624E+01  0.00000000000E+00 0. -1.
        -11    1    5    5    0    0 -0.28918650929E+03  0.53677240001E+03  0.13573119491E+04  0.14879681360E+04  0.00000000000E+00 0.  1.
          4    1    6    6  503    0  0.65758010268E+02 -0.70827706449E+02 -0.27164924934E+02  0.10039229583E+03  0.00000000000E+00 0. -1.
         -4    1    6    6    0  503  0.29220703193E+02 -0.76843811438E+02  0.51254662439E+02  0.96880654793E+02  0.00000000000E+00 0.  1.
<mgrwt>
<rscale>  0 0.18570550E+04</rscale>
<asrwt>0</asrwt>
<pdfrwt beam="1">  1        2 0.25713616E+00 0.18570550E+04</pdfrwt>
<pdfrwt beam="2">  1       -1 0.79359639E-01 0.18570550E+04</pdfrwt>
<totfact> 0.17281295E+01</totfact>
</mgrwt>
</event>
<event>
12    6  0.9533401E-008  0.1291760E+04  0.7818608E-02  0.9036126E-01
         -3   -1    0    0    0  501 -0.00000000000E+00  0.00000000000E+00  0.24838402042E+03  0.24838402042E+03  0.00000000000E+00 0.  1.
          2   -1    0    0  501    0  0.00000000000E+00 -0.00000000000E+00 -0.16794990182E+04  0.16794990182E+04  0.00000000000E+00 0. -1.
         24    2    1    2    0    0  0.99373771088E+02  0.13597012187E+03  0.42966172742E+02  0.18952328844E+03  0.75564306649E+02 0.  0.
        254    2    1    2    0    0 -0.99373771088E+02 -0.13597012187E+03 -0.14740811706E+04  0.17383597502E+04  0.90587874649E+03 0.  0.
         23    2    4    4    0    0  0.18818188204E+03  0.28488446014E+03 -0.33690736261E+03  0.48904997454E+03  0.95350565035E+02 0.  0.
         23    2    4    4    0    0 -0.28755565313E+03 -0.42085458201E+03 -0.11371738080E+04  0.12493097757E+04  0.88339194471E+02 0.  0.
          2    1    3    3  502    0  0.80937885673E+01  0.86315884350E+01 -0.17885788153E+02  0.21445632426E+02  0.00000000000E+00 0. -1.
         -1    1    3    3    0  502  0.91279982521E+02  0.12733853344E+03  0.60851960895E+02  0.16807765602E+03  0.00000000000E+00 0.  1.
         11    1    5    5    0    0  0.20546998363E+02  0.99961707446E+02 -0.70799779613E+02  0.12420600183E+03  0.00000000000E+00 0.  1.
        -11    1    5    5    0    0  0.16763488368E+03  0.18492275269E+03 -0.26610758300E+03  0.36484397271E+03  0.00000000000E+00 0. -1.
          2    1    6    6  503    0 -0.22077349644E+03 -0.27171197029E+03 -0.70177227067E+03  0.78425292566E+03  0.00000000000E+00 0. -1.
         -2    1    6    6    0  503 -0.66782156686E+02 -0.14914261172E+03 -0.43540153729E+03  0.46505685003E+03  0.00000000000E+00 0.  1.
<mgrwt>
<rscale>  0 0.12917596E+04</rscale>
<asrwt>0</asrwt>
<pdfrwt beam="1">  1        2 0.25838446E+00 0.12917596E+04</pdfrwt>
<pdfrwt beam="2">  1       -3 0.38212927E-01 0.12917596E+04</pdfrwt>
<totfact> 0.43193602E+01</totfact>
</mgrwt>
</event>
<event>
12    6  0.9533401E-008  0.2438896E+04  0.7818608E-02  0.8425083E-01
         -1   -1    0    0    0  501 -0.00000000000E+00  0.00000000000E+00  0.98778090220E+03  0.98778090220E+03  0.00000000000E+00 0.  1.
          2   -1    0    0  501    0  0.00000000000E+00 -0.00000000000E+00 -0.15054484615E+04  0.15054484615E+04  0.00000000000E+00 0. -1.
         24    2    1    2    0    0 -0.52104566161E+03  0.22441925738E+03  0.68229238626E+03  0.89090790076E+03  0.79632924787E+02 0.  0.
        254    2    1    2    0    0  0.52104566161E+03 -0.22441925738E+03 -0.11999599455E+04  0.16023214629E+04  0.89759546291E+03 0.  0.
         23    2    4    4    0    0  0.26892213854E+03  0.24108758432E+03 -0.92884733977E+03  0.10007242713E+04  0.90825913879E+02 0.  0.
         23    2    4    4    0    0  0.25212352307E+03 -0.46550684171E+03 -0.27111260577E+03  0.60159719163E+03  0.90300860487E+02 0.  0.
          2    1    3    3  502    0 -0.22203978997E+03  0.82683434174E+02  0.34389658148E+03  0.41761594482E+03  0.00000000000E+00 0. -1.
         -1    1    3    3    0  502 -0.29900587164E+03  0.14173582321E+03  0.33839580478E+03  0.47329195593E+03  0.00000000000E+00 0.  1.
         11    1    5    5    0    0  0.23415702679E+03  0.23778979013E+03 -0.87564679477E+03  0.93708633897E+03  0.00000000000E+00 0. -1.
        -11    1    5    5    0    0  0.34765111757E+02  0.32977941962E+01 -0.53200544998E+02  0.63637932321E+02  0.00000000000E+00 0.  1.
          3    1    6    6  503    0  0.25846984468E+03 -0.44549611723E+03 -0.25281766365E+03  0.57375101057E+03  0.00000000000E+00 0. -1.
         -3    1    6    6    0  503 -0.63463216161E+01 -0.20010724475E+02 -0.18294942121E+02  0.27846181054E+02  0.00000000000E+00 0.  1.
<mgrwt>
<rscale>  0 0.24388958E+04</rscale>
<asrwt>0</asrwt>
<pdfrwt beam="1">  1        2 0.23160745E+00 0.24388958E+04</pdfrwt>
<pdfrwt beam="2">  1       -1 0.15196629E+00 0.24388958E+04</pdfrwt>
<totfact> 0.43344962E+00</totfact>
</mgrwt>
</event>
<event>
12    6  0.9533401E-008  0.2825194E+04  0.7818608E-02  0.8295489E-01
          2   -1    0    0  501    0  0.00000000000E+00  0.00000000000E+00  0.13965729830E+04  0.13965729830E+04  0.00000000000E+00 0. -1.
         -1   -1    0    0    0  501 -0.00000000000E+00 -0.00000000000E+00 -0.14288046287E+04  0.14288046287E+04  0.00000000000E+00 0.  1.
         24    2    1    2    0    0  0.94509776717E+03  0.58610602275E+03  0.59443427039E+03  0.12633278934E+04  0.76910369571E+02 0.  0.
        254    2    1    2    0    0 -0.94509776717E+03 -0.58610602275E+03 -0.62666591612E+03  0.15620497184E+04  0.90031055354E+03 0.  0.
         23    2    4    4    0    0 -0.24284982191E+03 -0.19115472791E+03 -0.67684566194E+03  0.74956037272E+03  0.90578895285E+02 0.  0.
         23    2    4    4    0    0 -0.70224794526E+03 -0.39495129484E+03  0.50179745814E+02  0.81248934565E+03  0.92099011834E+02 0.  0.
          4    1    3    3  502    0  0.80297510000E+03  0.46778516549E+03  0.50987863811E+03  0.10599849989E+04  0.00000000000E+00 0. -1.
         -1    1    3    3    0  502  0.14212266717E+03  0.11832085726E+03  0.84555632280E+02  0.20334289448E+03  0.00000000000E+00 0.  1.
         11    1    5    5    0    0 -0.54691187334E+02 -0.12222002112E+02 -0.71256990994E+02  0.90653527637E+02  0.00000000000E+00 0. -1.
        -11    1    5    5    0    0 -0.18815863457E+03 -0.17893272580E+03 -0.60558867094E+03  0.65890684508E+03  0.00000000000E+00 0.  1.
          2    1    6    6  503    0 -0.17155445389E+02 -0.53642074379E+01  0.15292461180E+02  0.23599648237E+02  0.00000000000E+00 0. -1.
         -2    1    6    6    0  503 -0.68509249987E+03 -0.38958708741E+03  0.34887284633E+02  0.78888969741E+03  0.00000000000E+00 0.  1.
<mgrwt>
<rscale>  0 0.28251938E+04</rscale>
<asrwt>0</asrwt>
<pdfrwt beam="1">  1        2 0.21485738E+00 0.28251938E+04</pdfrwt>
<pdfrwt beam="2">  1       -1 0.21981610E+00 0.28251938E+04</pdfrwt>
<totfact> 0.15867243E+00</totfact>
</mgrwt>
</event>
<event>
12    6  0.9533401E-008  0.2185657E+04  0.7818608E-02  0.8524422E-01
         -1   -1    0    0    0  501 -0.00000000000E+00  0.00000000000E+00  0.21238194258E+04  0.21238194258E+04  0.00000000000E+00 0.  1.
          2   -1    0    0  501    0  0.00000000000E+00 -0.00000000000E+00 -0.56232354652E+03  0.56232354652E+03  0.00000000000E+00 0. -1.
         24    2    1    2    0    0 -0.10082689139E+03 -0.44209107735E+03 -0.31529353631E+03  0.55791782945E+03  0.79067741066E+02 0.  0.
        254    2    1    2    0    0  0.10082689139E+03  0.44209107735E+03  0.18767894155E+04  0.21282251428E+04  0.89520565546E+03 0.  0.
         23    2    4    4    0    0 -0.15119275660E+03 -0.10194319397E+03  0.58888234800E+02  0.21186400199E+03  0.90370718118E+02 0.  0.
         23    2    4    4    0    0  0.25201964799E+03  0.54403427132E+03  0.18179011807E+04  0.19163611408E+04  0.90488274594E+02 0.  0.
          2    1    3    3  502    0 -0.10531386627E+03 -0.34364146356E+03 -0.22351431466E+03  0.42324828973E+03  0.00000000000E+00 0. -1.
         -1    1    3    3    0  502  0.44869748861E+01 -0.98449613791E+02 -0.91779221657E+02  0.13466953972E+03  0.00000000000E+00 0.  1.
         11    1    5    5    0    0 -0.97084905193E+02 -0.11135092999E+03  0.34134014394E+02  0.15162334703E+03  0.00000000000E+00 0.  1.
        -11    1    5    5    0    0 -0.54107851410E+02  0.94077360215E+01  0.24754220406E+02  0.60240654953E+02  0.00000000000E+00 0. -1.
          4    1    6    6  503    0  0.24206656762E+03  0.45227974963E+03  0.15797106937E+04  0.16609151305E+04  0.00000000000E+00 0. -1.
         -4    1    6    6    0  503  0.99530803734E+01  0.91754521685E+02  0.23819048708E+03  0.25544601033E+03  0.00000000000E+00 0.  1.
<mgrwt>
<rscale>  0 0.21856566E+04</rscale>
<asrwt>0</asrwt>
<pdfrwt beam="1">  1        2 0.86511316E-01 0.21856566E+04</pdfrwt>
<pdfrwt beam="2">  1       -1 0.32674145E+00 0.21856566E+04</pdfrwt>
<totfact> 0.12396627E+00</totfact>
</mgrwt>
</event>
<event>
12    6  0.9533401E-008  0.1686407E+04  0.7818608E-02  0.8769155E-01
          2   -1    0    0  501    0  0.00000000000E+00  0.00000000000E+00  0.77334168144E+03  0.77334168144E+03  0.00000000000E+00 0. -1.
         -1   -1    0    0    0  501 -0.00000000000E+00 -0.00000000000E+00 -0.91937646642E+03  0.91937646642E+03  0.00000000000E+00 0.  1.
         24    2    1    2    0    0 -0.50103525333E+03 -0.26850363202E+03  0.13450877462E+03  0.58979266254E+03  0.81438620160E+02 0.  0.
        254    2    1    2    0    0  0.50103525333E+03  0.26850363202E+03 -0.28054355960E+03  0.11029254853E+04  0.90255715157E+03 0.  0.
         23    2    4    4    0    0  0.34766988981E+03 -0.21572979828E+03 -0.39308397072E+03  0.57485560937E+03  0.92359436089E+02 0.  0.
         23    2    4    4    0    0  0.15336536352E+03  0.48423343031E+03  0.11254041112E+03  0.52806987595E+03  0.90495856260E+02 0.  0.
          2    1    3    3  502    0 -0.19386416627E+03 -0.10907189000E+03  0.12348242074E+02  0.22278346266E+03  0.00000000000E+00 0. -1.
         -1    1    3    3    0  502 -0.30717108706E+03 -0.15943174202E+03  0.12216053254E+03  0.36700919988E+03  0.00000000000E+00 0.  1.
         11    1    5    5    0    0  0.20920678760E+03 -0.96826114806E+02 -0.26845885943E+03  0.35385439901E+03  0.00000000000E+00 0. -1.
        -11    1    5    5    0    0  0.13846310221E+03 -0.11890368348E+03 -0.12462511129E+03  0.22100121036E+03  0.00000000000E+00 0.  1.
          1    1    6    6  503    0  0.28471896132E+02  0.15015052231E+03 -0.39094779262E+01  0.15287613364E+03  0.00000000000E+00 0. -1.
         -1    1    6    6    0  503  0.12489346739E+03  0.33408290800E+03  0.11644988905E+03  0.37519374231E+03  0.00000000000E+00 0.  1.
<mgrwt>
<rscale>  0 0.16864070E+04</rscale>
<asrwt>0</asrwt>
<pdfrwt beam="1">  1        2 0.11897564E+00 0.16864070E+04</pdfrwt>
<pdfrwt beam="2">  1       -1 0.14144253E+00 0.16864070E+04</pdfrwt>
<totfact> 0.15989007E+01</totfact>
</mgrwt>
</event>
<event>
12    6  0.9533401E-008  0.1695177E+04  0.7818608E-02  0.8764120E-01
          2   -1    0    0  501    0  0.00000000000E+00  0.00000000000E+00  0.24998084693E+04  0.24998084693E+04  0.00000000000E+00 0. -1.
         -1   -1    0    0    0  501 -0.00000000000E+00 -0.00000000000E+00 -0.28738443384E+03  0.28738443384E+03  0.00000000000E+00 0.  1.
         24    2    1    2    0    0  0.38043788950E+03 -0.45025820759E+03  0.57523409564E+03  0.82749216216E+03  0.79897261359E+02 0.  0.
        254    2    1    2    0    0 -0.38043788950E+03  0.45025820759E+03  0.16371899399E+04  0.19597007410E+04  0.90142700975E+03 0.  0.
         23    2    4    4    0    0 -0.56894776724E+03  0.34856215244E+03  0.61672751386E+03  0.91301020867E+03  0.89653102737E+02 0.  0.
         23    2    4    4    0    0  0.18850987773E+03  0.10169605515E+03  0.10204624260E+04  0.10466905323E+04  0.91320567189E+02 0.  0.
          4    1    3    3  502    0  0.37708741222E+03 -0.44093309102E+03  0.57600108416E+03  0.81755376347E+03  0.00000000000E+00 0. -1.
         -3    1    3    3    0  502  0.33504772778E+01 -0.93251165744E+01 -0.76698851647E+00  0.99383986889E+01  0.00000000000E+00 0.  1.
         11    1    5    5    0    0 -0.26999868373E+03  0.21463175883E+03  0.29499551064E+03  0.45385948532E+03  0.00000000000E+00 0.  1.
        -11    1    5    5    0    0 -0.29894908350E+03  0.13393039361E+03  0.32173200322E+03  0.45915072336E+03  0.00000000000E+00 0. -1.
          3    1    6    6  503    0  0.29830603117E+02  0.14969344870E+02  0.54196495117E+02  0.63649086805E+02  0.00000000000E+00 0. -1.
         -3    1    6    6    0  503  0.15867927462E+03  0.86726710283E+02  0.96626593088E+03  0.98304144554E+03  0.00000000000E+00 0.  1.
<mgrwt>
<rscale>  0 0.16951767E+04</rscale>
<asrwt>0</asrwt>
<pdfrwt beam="1">  1        2 0.38458591E+00 0.16951767E+04</pdfrwt>
<pdfrwt beam="2">  1       -1 0.44212991E-01 0.16951767E+04</pdfrwt>
<totfact> 0.19135376E+01</totfact>
</mgrwt>
</event>
<event>
12    6  0.1015574E-007  0.2404914E+04  0.7818608E-02  0.8437666E-01
         -1   -1    0    0    0  501 -0.00000000000E+00  0.00000000000E+00  0.11149493142E+04  0.11149493142E+04  0.00000000000E+00 0.  1.
          2   -1    0    0  501    0  0.00000000000E+00 -0.00000000000E+00 -0.12968325821E+04  0.12968325821E+04  0.00000000000E+00 0. -1.
         24    2    1    2    0    0  0.97833125576E+02  0.41265202644E+03  0.87316516794E+03  0.97395275685E+03  0.79457829639E+02 0.  0.
        254    2    1    2    0    0 -0.97833125576E+02 -0.41265202644E+03 -0.10550484358E+04  0.14378291394E+04  0.87998432764E+03 0.  0.
         23    2    4    4    0    0 -0.24056780241E+03 -0.16282468054E+03 -0.10918232752E+04  0.11338048849E+04  0.95135212508E+02 0.  0.
         23    2    4    4    0    0  0.14273467683E+03 -0.24982734589E+03  0.36774839348E+02  0.30402425454E+03  0.91057497290E+02 0.  0.
          2    1    3    3  502    0 -0.13767434891E+02  0.37079706067E+02  0.86734625471E+02  0.95327551741E+02  0.00000000000E+00 0. -1.
         -3    1    3    3    0  502  0.11160056047E+03  0.37557232037E+03  0.78643054247E+03  0.87862520511E+03  0.00000000000E+00 0.  1.
         11    1    5    5    0    0 -0.86038055252E+01 -0.24967094164E+02 -0.40076123647E+02  0.47994551223E+02  0.00000000000E+00 0. -1.
        -11    1    5    5    0    0 -0.23196399688E+03 -0.13785758638E+03 -0.10517471515E+04  0.10858103337E+04  0.00000000000E+00 0.  1.
          4    1    6    6  503    0  0.15299568239E+03 -0.24529412881E+03  0.41095926135E+02  0.29200301986E+03  0.00000000000E+00 0.  1.
         -4    1    6    6    0  503 -0.10261005563E+02 -0.45332170835E+01 -0.43210867869E+01  0.12021234683E+02  0.00000000000E+00 0. -1.
<mgrwt>
<rscale>  0 0.24049138E+04</rscale>
<asrwt>0</asrwt>
<pdfrwt beam="1">  1        2 0.19951270E+00 0.24049138E+04</pdfrwt>
<pdfrwt beam="2">  1       -1 0.17153066E+00 0.24049138E+04</pdfrwt>
<totfact> 0.40777345E+00</totfact>
</mgrwt>
</event>
<event>
12    6  0.9533401E-008  0.1068337E+04  0.7818608E-02  0.9236615E-01
          2   -1    0    0  501    0  0.00000000000E+00  0.00000000000E+00  0.16243280159E+03  0.16243280159E+03  0.00000000000E+00 0. -1.
         -1   -1    0    0    0  501 -0.00000000000E+00 -0.00000000000E+00 -0.17566388021E+04  0.17566388021E+04  0.00000000000E+00 0.  1.
         24    2    1    2    0    0 -0.42272873076E+02  0.10074819454E+03 -0.99289606118E+02  0.17358540445E+03  0.91303188627E+02 0.  0.
        254    2    1    2    0    0  0.42272873076E+02 -0.10074819454E+03 -0.14949163944E+04  0.17454861992E+04  0.89443269787E+03 0.  0.
         23    2    4    4    0    0  0.80793124565E+02 -0.12746893809E+03  0.60535467053E+02  0.18665466880E+03  0.91649132333E+02 0.  0.
         23    2    4    4    0    0 -0.38520251489E+02  0.26720743546E+02 -0.15554518614E+04  0.15588315304E+04  0.91254803358E+02 0.  0.
          4    1    3    3  502    0 -0.37458075543E+02  0.10501642170E+03 -0.47160321905E+02  0.12106053119E+03  0.00000000000E+00 0. -1.
         -3    1    3    3    0  502 -0.48147975326E+01 -0.42682271568E+01 -0.52129284213E+02  0.52524873259E+02  0.00000000000E+00 0.  1.
         11    1    5    5    0    0 -0.10466212533E+02 -0.43287687709E+02  0.41826485215E+02  0.61096811516E+02  0.00000000000E+00 0.  1.
        -11    1    5    5    0    0  0.91259337098E+02 -0.84181250382E+02  0.18708981838E+02  0.12555785728E+03  0.00000000000E+00 0. -1.
          1    1    6    6  503    0 -0.68588029679E+02  0.19770002492E+02 -0.10246245767E+04  0.10271079272E+04  0.00000000000E+00 0. -1.
         -1    1    6    6    0  503  0.30067778190E+02  0.69507410540E+01 -0.53082728470E+03  0.53172360326E+03  0.00000000000E+00 0.  1.
<mgrwt>
<rscale>  0 0.10683366E+04</rscale>
<asrwt>0</asrwt>
<pdfrwt beam="1">  1        2 0.24989659E-01 0.10683366E+04</pdfrwt>
<pdfrwt beam="2">  1       -1 0.27025215E+00 0.10683366E+04</pdfrwt>
<totfact> 0.12992976E+01</totfact>
</mgrwt>
</event>
<event>
12    6  0.9533401E-008  0.1551519E+04  0.7818608E-02  0.8850898E-01
          2   -1    0    0  501    0  0.00000000000E+00  0.00000000000E+00  0.10053411306E+04  0.10053411306E+04  0.00000000000E+00 0. -1.
         -1   -1    0    0    0  501 -0.00000000000E+00 -0.00000000000E+00 -0.59860576801E+03  0.59860576801E+03  0.00000000000E+00 0.  1.
         24    2    1    2    0    0 -0.17607753891E+03 -0.30910290941E+03 -0.24432471893E+03  0.43830020998E+03  0.76580659913E+02 0.  0.
        254    2    1    2    0    0  0.17607753891E+03  0.30910290941E+03  0.65106008152E+03  0.11656466886E+04  0.89905787614E+03 0.  0.
         23    2    4    4    0    0  0.47122465140E+03  0.42195933428E+03  0.43950089455E+03  0.77549612308E+03  0.90171218974E+02 0.  0.
         23    2    4    4    0    0 -0.29514711249E+03 -0.11285642487E+03  0.21155918698E+03  0.39015056555E+03  0.87245536048E+02 0.  0.
          4    1    3    3  502    0 -0.38777906257E+01 -0.47505711906E+02 -0.14451884736E+02  0.49806494518E+02  0.00000000000E+00 0. -1.
         -3    1    3    3    0  502 -0.17219974829E+03 -0.26159719750E+03 -0.22987283420E+03  0.38849371546E+03  0.00000000000E+00 0.  1.
         11    1    5    5    0    0  0.32065065852E+03  0.33570948030E+03  0.29870671218E+03  0.55203568714E+03  0.00000000000E+00 0. -1.
        -11    1    5    5    0    0  0.15057399288E+03  0.86249853983E+02  0.14079418237E+03  0.22346043594E+03  0.00000000000E+00 0.  1.
          1    1    6    6  503    0 -0.10581663848E+03 -0.35780845922E+02  0.12645289946E+03  0.16872393339E+03  0.00000000000E+00 0. -1.
         -1    1    6    6    0  503 -0.18933047400E+03 -0.77075578951E+02  0.85106287513E+02  0.22142663216E+03  0.00000000000E+00 0.  1.
<mgrwt>
<rscale>  0 0.15515193E+04</rscale>
<asrwt>0</asrwt>
<pdfrwt beam="1">  1        2 0.15466787E+00 0.15515193E+04</pdfrwt>
<pdfrwt beam="2">  1       -1 0.92093195E-01 0.15515193E+04</pdfrwt>
<totfact> 0.31506454E+01</totfact>
</mgrwt>
</event>
<event>
12    6  0.9533401E-008  0.1589422E+04  0.7818608E-02  0.8827073E-01
         -1   -1    0    0    0  501 -0.00000000000E+00  0.00000000000E+00  0.60268806260E+03  0.60268806260E+03  0.00000000000E+00 0.  1.
          2   -1    0    0  501    0  0.00000000000E+00 -0.00000000000E+00 -0.10479146845E+04  0.10479146845E+04  0.00000000000E+00 0. -1.
         24    2    1    2    0    0 -0.20197849335E+03 -0.25087378979E+03  0.28999255301E+03  0.44086632313E+03  0.80836030897E+02 0.  0.
        254    2    1    2    0    0  0.20197849335E+03  0.25087378979E+03 -0.73521917489E+03  0.12097364240E+04  0.90508674178E+03 0.  0.
         23    2    4    4    0    0  0.41673331550E+03  0.11105260279E+03 -0.81488124034E+03  0.92608695539E+03  0.87213968190E+02 0.  0.
         23    2    4    4    0    0 -0.21475482215E+03  0.13982118700E+03  0.79662065450E+02  0.28364946857E+03  0.91876974126E+02 0.  0.
          2    1    3    3  502    0  0.44657446618E+01 -0.27346826530E+02  0.21569531342E+02  0.35114619163E+02  0.00000000000E+00 0. -1.
         -1    1    3    3    0  502 -0.20644423801E+03 -0.22352696326E+03  0.26842302167E+03  0.40575170397E+03  0.00000000000E+00 0.  1.
         11    1    5    5    0    0  0.27979903273E+03  0.80606940318E+02 -0.62978566706E+03  0.69384073387E+03  0.00000000000E+00 0. -1.
        -11    1    5    5    0    0  0.13693428277E+03  0.30445662469E+02 -0.18509557328E+03  0.23224622152E+03  0.00000000000E+00 0.  1.
          4    1    6    6  503    0 -0.36619553718E+02 -0.34065315820E+01  0.34964510411E+02  0.50745572814E+02  0.00000000000E+00 0. -1.
         -4    1    6    6    0  503 -0.17813526844E+03  0.14322771858E+03  0.44697555039E+02  0.23290389575E+03  0.00000000000E+00 0.  1.
<mgrwt>
<rscale>  0 0.15894221E+04</rscale>
<asrwt>0</asrwt>
<pdfrwt beam="1">  1        2 0.16121764E+00 0.15894221E+04</pdfrwt>
<pdfrwt beam="2">  1       -1 0.92721241E-01 0.15894221E+04</pdfrwt>
<totfact> 0.29068477E+01</totfact>
</mgrwt>
</event>
<event>
12    6  0.9533401E-008  0.1793436E+04  0.7818608E-02  0.8709798E-01
          2   -1    0    0  501    0  0.00000000000E+00  0.00000000000E+00  0.11410150684E+04  0.11410150684E+04  0.00000000000E+00 0. -1.
         -1   -1    0    0    0  501 -0.00000000000E+00 -0.00000000000E+00 -0.70472645013E+03  0.70472645013E+03  0.00000000000E+00 0.  1.
         24    2    1    2    0    0 -0.39397188776E+02  0.17328776267E+03 -0.50357307138E+03  0.53995205090E+03  0.79884866350E+02 0.  0.
        254    2    1    2    0    0  0.39397188776E+02 -0.17328776267E+03  0.93986168970E+03  0.13057894677E+04  0.88891245405E+03 0.  0.
         23    2    4    4    0    0 -0.31179703339E+03  0.16489687356E+03  0.20298677148E+03  0.41758657609E+03  0.93629857400E+02 0.  0.
         23    2    4    4    0    0  0.35119422216E+03 -0.33818463622E+03  0.73687491822E+03  0.88820289159E+03  0.90628371199E+02 0.  0.
          4    1    3    3  502    0 -0.40117668439E+02  0.42639709966E+02 -0.10137724444E+03  0.11706800535E+03  0.00000000000E+00 0. -1.
         -3    1    3    3    0  502  0.72047966277E+00  0.13064805270E+03 -0.40219582694E+03  0.42288404554E+03  0.00000000000E+00 0.  1.
         11    1    5    5    0    0 -0.22670353422E+03  0.71922052180E+02  0.11738788625E+03  0.26523044669E+03  0.00000000000E+00 0.  1.
        -11    1    5    5    0    0 -0.85093499170E+02  0.92974821378E+02  0.85598885236E+02  0.15235612940E+03  0.00000000000E+00 0. -1.
          2    1    6    6  503    0  0.24623892336E+03 -0.28452072374E+03  0.52796919176E+03  0.64833410913E+03  0.00000000000E+00 0. -1.
         -2    1    6    6    0  503  0.10495529880E+03 -0.53663912483E+02  0.20890572646E+03  0.23986878246E+03  0.00000000000E+00 0.  1.
<mgrwt>
<rscale>  0 0.17934364E+04</rscale>
<asrwt>0</asrwt>
<pdfrwt beam="1">  1        2 0.17554078E+00 0.17934364E+04</pdfrwt>
<pdfrwt beam="2">  1       -1 0.10841945E+00 0.17934364E+04</pdfrwt>
<totfact> 0.17492251E+01</totfact>
</mgrwt>
</event>
<event>
12    6  0.9533401E-008  0.1627576E+04  0.7818608E-02  0.8803784E-01
         -1   -1    0    0    0  501 -0.00000000000E+00  0.00000000000E+00  0.79467445500E+03  0.79467445500E+03  0.00000000000E+00 0.  1.
          2   -1    0    0  501    0  0.00000000000E+00 -0.00000000000E+00 -0.83336161269E+03  0.83336161269E+03  0.00000000000E+00 0. -1.
         24    2    1    2    0    0  0.10273565723E+03  0.23265858311E+03  0.47785069390E+03  0.54616082320E+03  0.72565333173E+02 0.  0.
        254    2    1    2    0    0 -0.10273565723E+03 -0.23265858311E+03 -0.51653785159E+03  0.10818752445E+04  0.91594653826E+03 0.  0.
         23    2    4    4    0    0 -0.45828639461E+03  0.69289043128E+02 -0.30508216823E+03  0.56227070167E+03  0.90806506408E+02 0.  0.
         23    2    4    4    0    0  0.35555073738E+03 -0.30194762624E+03 -0.21145568336E+03  0.51960454282E+03  0.87673707856E+02 0.  0.
          4    1    3    3  502    0 -0.92574774788E+01  0.44408941241E+02  0.77217054170E+02  0.89556286245E+02  0.00000000000E+00 0. -1.
         -3    1    3    3    0  502  0.11199313471E+03  0.18824964187E+03  0.40063363973E+03  0.45660453695E+03  0.00000000000E+00 0.  1.
         11    1    5    5    0    0 -0.37676843983E+03  0.46886977120E+02 -0.28668185399E+03  0.47575133346E+03  0.00000000000E+00 0.  1.
        -11    1    5    5    0    0 -0.81517954778E+02  0.22402066007E+02 -0.18400314238E+02  0.86519368217E+02  0.00000000000E+00 0. -1.
          2    1    6    6  503    0  0.12526704210E+03 -0.55781013094E+02 -0.51335868724E+02  0.14641968678E+03  0.00000000000E+00 0. -1.
         -2    1    6    6    0  503  0.23028369528E+03 -0.24616661315E+03 -0.16011981464E+03  0.37318485604E+03  0.00000000000E+00 0.  1.
<mgrwt>
<rscale>  0 0.16275763E+04</rscale>
<asrwt>0</asrwt>
<pdfrwt beam="1">  1        2 0.12820948E+00 0.16275763E+04</pdfrwt>
<pdfrwt beam="2">  1       -1 0.12225761E+00 0.16275763E+04</pdfrwt>
<totfact> 0.21064268E+01</totfact>
</mgrwt>
</event>
<event>
12    6  0.9533401E-008  0.2091155E+04  0.7818608E-02  0.8565150E-01
         -1   -1    0    0    0  501 -0.00000000000E+00  0.00000000000E+00  0.14018233959E+04  0.14018233959E+04  0.00000000000E+00 0.  1.
          2   -1    0    0  501    0  0.00000000000E+00 -0.00000000000E+00 -0.77986442711E+03  0.77986442711E+03  0.00000000000E+00 0. -1.
         24    2    1    2    0    0  0.34026249732E+02 -0.47975930297E+03 -0.47850061689E+03  0.68320578284E+03  0.80501719781E+02 0.  0.
        254    2    1    2    0    0 -0.34026249732E+02  0.47975930297E+03  0.11004595857E+04  0.14984820401E+04  0.89616424305E+03 0.  0.
         23    2    4    4    0    0  0.27607667542E+03 -0.61936005222E+02  0.94209109676E+02  0.31083101173E+03  0.87670759378E+02 0.  0.
         23    2    4    4    0    0 -0.31010292515E+03  0.54169530819E+03  0.10062504760E+04  0.11876510284E+04  0.91527666846E+02 0.  0.
          2    1    3    3  502    0  0.50784944972E+02 -0.42372971894E+03 -0.39680437039E+03  0.58273466836E+03  0.00000000000E+00 0. -1.
         -1    1    3    3    0  502 -0.16758695241E+02 -0.56029584028E+02 -0.81696246505E+02  0.10047111448E+03  0.00000000000E+00 0.  1.
         11    1    5    5    0    0  0.74398935177E+02  0.18785563993E+02  0.41740870290E+02  0.87352156370E+02  0.00000000000E+00 0. -1.
        -11    1    5    5    0    0  0.20167774024E+03 -0.80721569215E+02  0.52468239387E+02  0.22347885536E+03  0.00000000000E+00 0.  1.
          2    1    6    6  503    0 -0.94110471373E+02  0.19692941667E+03  0.27773733575E+03  0.35323646986E+03  0.00000000000E+00 0. -1.
         -2    1    6    6    0  503 -0.21599245378E+03  0.34476589152E+03  0.72851314023E+03  0.83441455856E+03  0.00000000000E+00 0.  1.
<mgrwt>
<rscale>  0 0.20911549E+04</rscale>
<asrwt>0</asrwt>
<pdfrwt beam="1">  1        2 0.11997914E+00 0.20911549E+04</pdfrwt>
<pdfrwt beam="2">  1       -1 0.21566514E+00 0.20911549E+04</pdfrwt>
<totfact> 0.44127523E+00</totfact>
</mgrwt>
</event>
<event>
12    6  0.9533401E-008  0.1461013E+04  0.7818608E-02  0.8910801E-01
          2   -1    0    0  501    0  0.00000000000E+00  0.00000000000E+00  0.19373326459E+04  0.19373326459E+04  0.00000000000E+00 0. -1.
         -1   -1    0    0    0  501 -0.00000000000E+00 -0.00000000000E+00 -0.27545093552E+03  0.27545093552E+03  0.00000000000E+00 0.  1.
         24    2    1    2    0    0  0.10255369714E+03  0.15870214492E+03 -0.98108332836E+02  0.22845594663E+03  0.82844691925E+02 0.  0.
        254    2    1    2    0    0 -0.10255369714E+03 -0.15870214492E+03  0.17599900432E+04  0.19843276348E+04  0.89682081734E+03 0.  0.
         23    2    4    4    0    0 -0.42586438334E+03  0.14931119119E+03  0.83877246735E+03  0.95676683754E+03  0.90604771539E+02 0.  0.
         23    2    4    4    0    0  0.32331068620E+03 -0.30801333610E+03  0.92121757590E+03  0.10275607973E+04  0.88528836867E+02 0.  0.
          4    1    3    3  502    0  0.60223147712E+01  0.63426475615E+02 -0.60135162025E+02  0.87609496037E+02  0.00000000000E+00 0. -1.
         -3    1    3    3    0  502  0.96531382368E+02  0.95275669302E+02 -0.37973170811E+02  0.14084645059E+03  0.00000000000E+00 0.  1.
         11    1    5    5    0    0 -0.57737961105E+02  0.22269978964E+02  0.60727071026E+02  0.86702948456E+02  0.00000000000E+00 0.  1.
        -11    1    5    5    0    0 -0.36812642223E+03  0.12704121222E+03  0.77804539633E+03  0.87006388909E+03  0.00000000000E+00 0. -1.
          1    1    6    6  503    0  0.17026184644E+03 -0.10763683621E+03  0.36588077664E+03  0.41766437193E+03  0.00000000000E+00 0. -1.
         -1    1    6    6    0  503  0.15304883976E+03 -0.20037649989E+03  0.55533679926E+03  0.60989642536E+03  0.00000000000E+00 0.  1.
<mgrwt>
<rscale>  0 0.14610135E+04</rscale>
<asrwt>0</asrwt>
<pdfrwt beam="1">  1        2 0.29805117E+00 0.14610135E+04</pdfrwt>
<pdfrwt beam="2">  1       -1 0.42377068E-01 0.14610135E+04</pdfrwt>
<totfact> 0.43774715E+01</totfact>
</mgrwt>
</event>
<event>
12    6  0.9533401E-008  0.2499561E+04  0.7818608E-02  0.8403142E-01
          2   -1    0    0  501    0  0.00000000000E+00  0.00000000000E+00  0.30226014006E+04  0.30226014006E+04  0.00000000000E+00 0. -1.
         -1   -1    0    0    0  501 -0.00000000000E+00 -0.00000000000E+00 -0.51675736907E+03  0.51675736907E+03  0.00000000000E+00 0.  1.
         24    2    1    2    0    0 -0.97343880428E+03 -0.17139651954E+03  0.45622870842E+03  0.10915560866E+04  0.79938621799E+02 0.  0.
        254    2    1    2    0    0  0.97343880428E+03  0.17139651954E+03  0.20496153231E+04  0.24478026831E+04  0.90213919652E+03 0.  0.
         23    2    4    4    0    0  0.26850297695E+02 -0.36117088738E+02 -0.63808301715E+02  0.12092650529E+03  0.92338170484E+02 0.  0.
         23    2    4    4    0    0  0.94658850658E+03  0.20751360827E+03  0.21134236249E+04  0.23268761778E+04  0.93282529444E+02 0.  0.
          2    1    3    3  502    0 -0.86854478775E+02 -0.31682755936E+02  0.61669643281E+02  0.11113344415E+03  0.00000000000E+00 0. -1.
         -1    1    3    3    0  502 -0.88658432550E+03 -0.13971376360E+03  0.39455906514E+03  0.98042264246E+03  0.00000000000E+00 0.  1.
         11    1    5    5    0    0  0.37974254555E+02 -0.95607184561E+01 -0.79146227035E+02  0.88303887798E+02  0.00000000000E+00 0.  1.
        -11    1    5    5    0    0 -0.11123956860E+02 -0.26556370282E+02  0.15337925320E+02  0.32622617490E+02  0.00000000000E+00 0. -1.
          4    1    6    6  503    0  0.24019225497E+03  0.59078651197E+02  0.44784471611E+03  0.51161264265E+03  0.00000000000E+00 0. -1.
         -4    1    6    6    0  503  0.70639625162E+03  0.14843495708E+03  0.16655789087E+04  0.18152635351E+04  0.00000000000E+00 0.  1.
<mgrwt>
<rscale>  0 0.24995612E+04</rscale>
<asrwt>0</asrwt>
<pdfrwt beam="1">  1        2 0.46501559E+00 0.24995612E+04</pdfrwt>
<pdfrwt beam="2">  1       -1 0.79501135E-01 0.24995612E+04</pdfrwt>
<totfact> 0.27025354E+00</totfact>
</mgrwt>
</event>
<event>
12    6  0.9533401E-008  0.1893963E+04  0.7818608E-02  0.8657867E-01
          2   -1    0    0  501    0  0.00000000000E+00  0.00000000000E+00  0.21336017132E+04  0.21336017132E+04  0.00000000000E+00 0. -1.
         -1   -1    0    0    0  501 -0.00000000000E+00 -0.00000000000E+00 -0.42031007211E+03  0.42031007211E+03  0.00000000000E+00 0.  1.
         24    2    1    2    0    0  0.58747093450E+03  0.27797188991E+03  0.11245561011E+04  0.13015175281E+04  0.83252512336E+02 0.  0.
        254    2    1    2    0    0 -0.58747093450E+03 -0.27797188991E+03  0.58873554000E+03  0.12523942573E+04  0.89414281250E+03 0.  0.
         23    2    4    4    0    0  0.12185715179E+03  0.14063219157E+03 -0.38854703081E+02  0.21179945442E+03  0.93395621909E+02 0.  0.
         23    2    4    4    0    0 -0.70932808630E+03 -0.41860408148E+03  0.62759024308E+03  0.10405948029E+04  0.10291899474E+03 0.  0.
          2    1    3    3  502    0  0.57579797830E+03  0.27102837873E+03  0.11179945118E+04  0.12864336059E+04  0.00000000000E+00 0. -1.
         -1    1    3    3    0  502  0.11672956200E+02  0.69435111813E+01  0.65615893028E+01  0.15083922174E+02  0.00000000000E+00 0.  1.
         11    1    5    5    0    0  0.81044597436E+02  0.14563430356E+03 -0.36487959948E+02  0.17061344720E+03  0.00000000000E+00 0.  1.
        -11    1    5    5    0    0  0.40812554358E+02 -0.50021119822E+01 -0.23667431336E+01  0.41186007218E+02  0.00000000000E+00 0. -1.
          4    1    6    6  503    0 -0.92490289946E+02 -0.57597162831E+02  0.42564854222E+02  0.11697715040E+03  0.00000000000E+00 0. -1.
         -4    1    6    6    0  503 -0.61683779635E+03 -0.36100691865E+03  0.58502538886E+03  0.92361765246E+03  0.00000000000E+00 0.  1.
<mgrwt>
<rscale>  0 0.18939633E+04</rscale>
<asrwt>0</asrwt>
<pdfrwt beam="1">  1        2 0.32824641E+00 0.18939633E+04</pdfrwt>
<pdfrwt beam="2">  1       -1 0.64663089E-01 0.18939633E+04</pdfrwt>
<totfact> 0.14559097E+01</totfact>
</mgrwt>
</event>
<event>
12    6  0.9533401E-008  0.2336682E+04  0.7818608E-02  0.8463597E-01
         -1   -1    0    0    0  501 -0.00000000000E+00  0.00000000000E+00  0.75664872395E+03  0.75664872395E+03  0.00000000000E+00 0.  1.
          2   -1    0    0  501    0  0.00000000000E+00 -0.00000000000E+00 -0.18040343499E+04  0.18040343499E+04  0.00000000000E+00 0. -1.
         24    2    1    2    0    0 -0.33769609687E+03  0.32703455077E+03 -0.14109949301E+04  0.14892839431E+04  0.77908402027E+02 0.  0.
        254    2    1    2    0    0  0.33769609687E+03 -0.32703455077E+03  0.36360930414E+03  0.10713991308E+04  0.89145617960E+03 0.  0.
         23    2    4    4    0    0  0.27183493540E+03 -0.41171282930E+03 -0.16127567211E+03  0.52787335733E+03  0.96118432415E+02 0.  0.
         23    2    4    4    0    0  0.65861161466E+02  0.84678278528E+02  0.52488497624E+03  0.54352577345E+03  0.91694736375E+02 0.  0.
          2    1    3    3  502    0 -0.12423756679E+03  0.75374184162E+02 -0.48139002661E+03  0.50284450714E+03  0.00000000000E+00 0. -1.
         -1    1    3    3    0  502 -0.21345853008E+03  0.25166036661E+03 -0.92960490346E+03  0.98643943591E+03  0.00000000000E+00 0.  1.
         11    1    5    5    0    0  0.18960500207E+03 -0.29372358040E+03 -0.67156749387E+02  0.35599666779E+03  0.00000000000E+00 0. -1.
        -11    1    5    5    0    0  0.82229933331E+02 -0.11798924890E+03 -0.94118922718E+02  0.17187668953E+03  0.00000000000E+00 0.  1.
          2    1    6    6  503    0 -0.55362626121E+01  0.54822181315E+02  0.13110507884E+03  0.14221344333E+03  0.00000000000E+00 0. -1.
         -2    1    6    6    0  503  0.71397424078E+02  0.29856097213E+02  0.39377989740E+03  0.40131233012E+03  0.00000000000E+00 0.  1.
<mgrwt>
<rscale>  0 0.23366817E+04</rscale>
<asrwt>0</asrwt>
<pdfrwt beam="1">  1        2 0.27754374E+00 0.23366817E+04</pdfrwt>
<pdfrwt beam="2">  1       -1 0.11640750E+00 0.23366817E+04</pdfrwt>
<totfact> 0.58882102E+00</totfact>
</mgrwt>
</event>
<event>
12    6  0.9533401E-008  0.3064131E+04  0.7818608E-02  0.8225651E-01
          2   -1    0    0  501    0  0.00000000000E+00  0.00000000000E+00  0.11000193074E+04  0.11000193074E+04  0.00000000000E+00 0. -1.
         -1   -1    0    0    0  501 -0.00000000000E+00 -0.00000000000E+00 -0.21338038499E+04  0.21338038499E+04  0.00000000000E+00 0.  1.
         24    2    1    2    0    0  0.12144642543E+04  0.52977904584E+03 -0.23668074892E+01  0.13277783528E+04  0.86026100986E+02 0.  0.
        254    2    1    2    0    0 -0.12144642543E+04 -0.52977904584E+03 -0.10314177350E+04  0.19060448045E+04  0.90199500580E+03 0.  0.
         23    2    4    4    0    0 -0.10994310645E+04 -0.59056502887E+02 -0.64274379048E+03  0.12781576981E+04  0.91275323781E+02 0.  0.
         23    2    4    4    0    0 -0.11503318974E+03 -0.47072254295E+03 -0.38867394452E+03  0.62788710646E+03  0.91446356568E+02 0.  0.
          4    1    3    3  502    0  0.86368747430E+03  0.35698004967E+03 -0.36467541852E+02  0.93526503770E+03  0.00000000000E+00 0. -1.
         -3    1    3    3    0  502  0.35077677996E+03  0.17279899617E+03  0.34100734362E+02  0.39251331509E+03  0.00000000000E+00 0.  1.
         11    1    5    5    0    0 -0.79659609686E+03 -0.29875288030E+01 -0.45231598830E+03  0.91605896105E+03  0.00000000000E+00 0. -1.
        -11    1    5    5    0    0 -0.30283496767E+03 -0.56068974084E+02 -0.19042780219E+03  0.36209873701E+03  0.00000000000E+00 0.  1.
          2    1    6    6  503    0 -0.17267031472E+02 -0.26211468530E+03 -0.20203302425E+03  0.33139040649E+03  0.00000000000E+00 0. -1.
         -2    1    6    6    0  503 -0.97766158264E+02 -0.20860785765E+03 -0.18664092027E+03  0.29649669998E+03  0.00000000000E+00 0.  1.
<mgrwt>
<rscale>  0 0.30641315E+04</rscale>
<asrwt>0</asrwt>
<pdfrwt beam="1">  1        2 0.16923374E+00 0.30641315E+04</pdfrwt>
<pdfrwt beam="2">  1       -1 0.32827752E+00 0.30641315E+04</pdfrwt>
<totfact> 0.45659317E-01</totfact>
</mgrwt>
</event>
<event>
12    6  0.9533401E-008  0.1910371E+04  0.7818608E-02  0.8649711E-01
          2   -1    0    0  501    0  0.00000000000E+00  0.00000000000E+00  0.24750376891E+04  0.24750376891E+04  0.00000000000E+00 0. -1.
         -1   -1    0    0    0  501 -0.00000000000E+00 -0.00000000000E+00 -0.36863242336E+03  0.36863242336E+03  0.00000000000E+00 0.  1.
         24    2    1    2    0    0 -0.53750079380E+03 -0.50286713343E+03  0.92990471764E+03  0.11883736510E+04  0.75674918978E+02 0.  0.
        254    2    1    2    0    0  0.53750079380E+03  0.50286713343E+03  0.11765005481E+04  0.16552964614E+04  0.90225848751E+03 0.  0.
         23    2    4    4    0    0  0.13456310965E+03 -0.19537188405E+03  0.62400706522E+03  0.67397949045E+03  0.92661386475E+02 0.  0.
         23    2    4    4    0    0  0.40293768415E+03  0.69823901748E+03  0.55249348287E+03  0.98131697096E+03  0.88529351319E+02 0.  0.
          2    1    3    3  502    0 -0.13231648433E+03 -0.13578447084E+03  0.29294952967E+03  0.34894770593E+03  0.00000000000E+00 0. -1.
         -1    1    3    3    0  502 -0.40518430947E+03 -0.36708266259E+03  0.63695518797E+03  0.83942594510E+03  0.00000000000E+00 0.  1.
         11    1    5    5    0    0  0.12193190292E+03 -0.20105542425E+03  0.61211018802E+03  0.65572063781E+03  0.00000000000E+00 0.  1.
        -11    1    5    5    0    0  0.12631206732E+02  0.56835401974E+01  0.11896877205E+02  0.18258852645E+02  0.00000000000E+00 0. -1.
          1    1    6    6  503    0  0.76372453313E+02  0.11916613872E+03  0.13916404847E+03  0.19849421308E+03  0.00000000000E+00 0. -1.
         -1    1    6    6    0  503  0.32656523084E+03  0.57907287876E+03  0.41332943440E+03  0.78282275787E+03  0.00000000000E+00 0.  1.
<mgrwt>
<rscale>  0 0.19103708E+04</rscale>
<asrwt>0</asrwt>
<pdfrwt beam="1">  1        2 0.38077502E+00 0.19103708E+04</pdfrwt>
<pdfrwt beam="2">  1       -1 0.56712682E-01 0.19103708E+04</pdfrwt>
<totfact> 0.12075639E+01</totfact>
</mgrwt>
</event>
<event>
12    6  0.9533401E-008  0.1768643E+04  0.7818608E-02  0.8723155E-01
          2   -1    0    0  501    0  0.00000000000E+00  0.00000000000E+00  0.60063364305E+03  0.60063364305E+03  0.00000000000E+00 0. -1.
         -1   -1    0    0    0  501 -0.00000000000E+00 -0.00000000000E+00 -0.13019991362E+04  0.13019991362E+04  0.00000000000E+00 0.  1.
         24    2    1    2    0    0  0.40979326712E+03  0.10715476302E+03  0.25858026561E+03  0.50279964676E+03  0.80815010998E+02 0.  0.
        254    2    1    2    0    0 -0.40979326712E+03 -0.10715476302E+03 -0.95994575879E+03  0.13998331325E+04  0.92661981097E+03 0.  0.
         23    2    4    4    0    0 -0.21915746166E+03  0.23776216504E+03 -0.93583644490E+03  0.99444642856E+03  0.92590537116E+02 0.  0.
         23    2    4    4    0    0 -0.19063580546E+03 -0.34491692805E+03 -0.24109313894E+02  0.40538670396E+03  0.91909864271E+02 0.  0.
          2    1    3    3  502    0  0.28101958377E+03  0.34591736026E+02  0.16154622447E+03  0.32598432064E+03  0.00000000000E+00 0. -1.
         -1    1    3    3    0  502  0.12877368335E+03  0.72563026992E+02  0.97034041137E+02  0.17681532612E+03  0.00000000000E+00 0.  1.
         11    1    5    5    0    0 -0.97329143760E+02  0.17217761486E+03 -0.53320564925E+03  0.56870586218E+03  0.00000000000E+00 0.  1.
        -11    1    5    5    0    0 -0.12182831790E+03  0.65584550180E+02 -0.40263079564E+03  0.42574056638E+03  0.00000000000E+00 0. -1.
          4    1    6    6  503    0 -0.71239455784E+02 -0.13963700471E+03  0.35097037499E+02  0.16064045315E+03  0.00000000000E+00 0. -1.
         -4    1    6    6    0  503 -0.11939634968E+03 -0.20527992334E+03 -0.59206351393E+02  0.24474625082E+03  0.00000000000E+00 0.  1.
<mgrwt>
<rscale>  0 0.17686430E+04</rscale>
<asrwt>0</asrwt>
<pdfrwt beam="1">  1        2 0.92405176E-01 0.17686430E+04</pdfrwt>
<pdfrwt beam="2">  1       -1 0.20030756E+00 0.17686430E+04</pdfrwt>
<totfact> 0.80188633E+00</totfact>
</mgrwt>
</event>
<event>
12    6  0.9533401E-008  0.1686403E+04  0.7818608E-02  0.8769157E-01
         -1   -1    0    0    0  501 -0.00000000000E+00  0.00000000000E+00  0.32664826147E+03  0.32664826147E+03  0.00000000000E+00 0.  1.
          2   -1    0    0  501    0  0.00000000000E+00 -0.00000000000E+00 -0.21766190443E+04  0.21766190443E+04  0.00000000000E+00 0. -1.
         24    2    1    2    0    0 -0.10776276263E+02 -0.53773296833E+03 -0.27769211527E+03  0.61072186999E+03  0.81212180354E+02 0.  0.
        254    2    1    2    0    0  0.10776276263E+02  0.53773296833E+03 -0.15722786675E+04  0.18925454358E+04  0.90575666967E+03 0.  0.
         23    2    4    4    0    0 -0.69736259676E+02  0.19464448826E+03 -0.15053716819E+04  0.15223132964E+04  0.92435107792E+02 0.  0.
         23    2    4    4    0    0  0.80512535939E+02  0.34308848007E+03 -0.66906985658E+02  0.37023213933E+03  0.91669616905E+02 0.  0.
          2    1    3    3  502    0 -0.38898390124E+02 -0.27782538691E+03 -0.11770510817E+03  0.30422774833E+03  0.00000000000E+00 0. -1.
         -1    1    3    3    0  502  0.28122113862E+02 -0.25990758142E+03 -0.15998700711E+03  0.30649412166E+03  0.00000000000E+00 0.  1.
         11    1    5    5    0    0 -0.18923775392E+02  0.10645749007E+02 -0.50464685175E+02  0.54937470790E+02  0.00000000000E+00 0. -1.
        -11    1    5    5    0    0 -0.50812484284E+02  0.18399873925E+03 -0.14549069967E+04  0.14673758256E+04  0.00000000000E+00 0.  1.
          1    1    6    6  503    0  0.30958783923E+02  0.22251750911E+02  0.26688201778E+01  0.38219227121E+02  0.00000000000E+00 0. -1.
         -1    1    6    6    0  503  0.49553752016E+02  0.32083672916E+03 -0.69575805835E+02  0.33201291221E+03  0.00000000000E+00 0.  1.
<mgrwt>
<rscale>  0 0.16864031E+04</rscale>
<asrwt>0</asrwt>
<pdfrwt beam="1">  1        2 0.33486447E+00 0.16864031E+04</pdfrwt>
<pdfrwt beam="2">  1       -1 0.50253578E-01 0.16864031E+04</pdfrwt>
<totfact> 0.22965135E+01</totfact>
</mgrwt>
</event>
<event>
12    6  0.9533401E-008  0.1655724E+04  0.7818608E-02  0.8787027E-01
         -1   -1    0    0    0  501 -0.00000000000E+00  0.00000000000E+00  0.23160137729E+03  0.23160137729E+03  0.00000000000E+00 0.  1.
          2   -1    0    0  501    0  0.00000000000E+00 -0.00000000000E+00 -0.29592041810E+04  0.29592041810E+04  0.00000000000E+00 0. -1.
         24    2    1    2    0    0 -0.45726040306E+03  0.25752312079E+03 -0.49281806075E+03  0.72434754886E+03  0.80028098735E+02 0.  0.
        254    2    1    2    0    0  0.45726040306E+03 -0.25752312079E+03 -0.22347847430E+04  0.24664580095E+04  0.90207928196E+03 0.  0.
         23    2    4    4    0    0  0.32454790147E+02  0.26728712671E+03 -0.11561490448E+04  0.11906173012E+04  0.91614533129E+02 0.  0.
         23    2    4    4    0    0  0.42480561292E+03 -0.52481024750E+03 -0.10786356982E+04  0.12758407083E+04  0.91809251840E+02 0.  0.
          2    1    3    3  502    0 -0.19088848740E+03  0.70849170512E+02 -0.22052393624E+03  0.30014800689E+03  0.00000000000E+00 0. -1.
         -1    1    3    3    0  502 -0.26637191566E+03  0.18667395028E+03 -0.27229412451E+03  0.42419954197E+03  0.00000000000E+00 0.  1.
         11    1    5    5    0    0  0.42020914213E+02  0.58538660035E+02 -0.22287068901E+03  0.23423039079E+03  0.00000000000E+00 0. -1.
        -11    1    5    5    0    0 -0.95661240661E+01  0.20874846667E+03 -0.93327835575E+03  0.95638691040E+03  0.00000000000E+00 0.  1.
          3    1    6    6  503    0  0.24584889184E+02 -0.64376740689E+02 -0.14526810092E+03  0.16078433587E+03  0.00000000000E+00 0. -1.
         -3    1    6    6    0  503  0.40022072373E+03 -0.46043350681E+03 -0.93336759733E+03  0.11150563724E+04  0.00000000000E+00 0.  1.
<mgrwt>
<rscale>  0 0.16557243E+04</rscale>
<asrwt>0</asrwt>
<pdfrwt beam="1">  1        2 0.45526217E+00 0.16557243E+04</pdfrwt>
<pdfrwt beam="2">  1       -1 0.35630982E-01 0.16557243E+04</pdfrwt>
<totfact> 0.15160248E+01</totfact>
</mgrwt>
</event>
<event>
12    6  0.9533401E-008  0.1715485E+04  0.7818608E-02  0.8752582E-01
          2   -1    0    0  501    0  0.00000000000E+00  0.00000000000E+00  0.29816901569E+04  0.29816901569E+04  0.00000000000E+00 0. -1.
         -1   -1    0    0    0  501 -0.00000000000E+00 -0.00000000000E+00 -0.24674668209E+03  0.24674668209E+03  0.00000000000E+00 0.  1.
         24    2    1    2    0    0 -0.49811498139E+03 -0.25650379457E+03  0.50381384936E+03  0.75783178805E+03  0.81042537347E+02 0.  0.
        254    2    1    2    0    0  0.49811498139E+03  0.25650379457E+03  0.22311296255E+04  0.24706050510E+04  0.90113105645E+03 0.  0.
         23    2    4    4    0    0  0.42320839465E+03  0.56577050833E+03  0.12996970615E+04  0.14821534566E+04  0.91459301916E+02 0.  0.
         23    2    4    4    0    0  0.74906586737E+02 -0.30926671376E+03  0.93143256396E+03  0.98845159433E+03  0.90625802965E+02 0.  0.
          2    1    3    3  502    0 -0.25758067298E+03 -0.88347160655E+02  0.22986780989E+03  0.35635969737E+03  0.00000000000E+00 0. -1.
         -1    1    3    3    0  502 -0.24053430841E+03 -0.16815663391E+03  0.27394603947E+03  0.40147209068E+03  0.00000000000E+00 0.  1.
         11    1    5    5    0    0  0.41256480771E+03  0.56656361735E+03  0.12878582585E+04  0.14662138135E+04  0.00000000000E+00 0.  1.
        -11    1    5    5    0    0  0.10643586940E+02 -0.79310901706E+00  0.11838803026E+02  0.15939643094E+02  0.00000000000E+00 0. -1.
          3    1    6    6  503    0  0.33970989449E+02 -0.93457919539E+02  0.18082373262E+03  0.20636286760E+03  0.00000000000E+00 0. -1.
         -3    1    6    6    0  503  0.40935597288E+02 -0.21580879422E+03  0.75060883134E+03  0.78208872673E+03  0.00000000000E+00 0.  1.
<mgrwt>
<rscale>  0 0.17154849E+04</rscale>
<asrwt>0</asrwt>
<pdfrwt beam="1">  1        2 0.45872154E+00 0.17154849E+04</pdfrwt>
<pdfrwt beam="2">  1       -1 0.37961030E-01 0.17154849E+04</pdfrwt>
<totfact> 0.13022513E+01</totfact>
</mgrwt>
</event>
<event>
12    6  0.9533401E-008  0.2086411E+04  0.7818608E-02  0.8567253E-01
          2   -1    0    0  501    0  0.00000000000E+00  0.00000000000E+00  0.20402591419E+04  0.20402591419E+04  0.00000000000E+00 0. -1.
         -1   -1    0    0    0  501 -0.00000000000E+00 -0.00000000000E+00 -0.53340169179E+03  0.53340169179E+03  0.00000000000E+00 0.  1.
         24    2    1    2    0    0 -0.41044239590E+03 -0.22192600548E+03 -0.25386865239E+03  0.53718505709E+03  0.80027374248E+02 0.  0.
        254    2    1    2    0    0  0.41044239590E+03  0.22192600548E+03  0.17607261025E+04  0.20364757766E+04  0.91069372920E+03 0.  0.
         23    2    4    4    0    0  0.21570753124E+03  0.54248378582E+03  0.13481743398E+04  0.14720106451E+04  0.91776314107E+02 0.  0.
         23    2    4    4    0    0  0.19473486466E+03 -0.32055778034E+03  0.41255176267E+03  0.56446513149E+03  0.87994146043E+02 0.  0.
          4    1    3    3  502    0 -0.15235508002E+02  0.10102571571E+01  0.33051231543E+01  0.15622585019E+02  0.00000000000E+00 0. -1.
         -3    1    3    3    0  502 -0.39520688790E+03 -0.22293626264E+03 -0.25717377554E+03  0.52156247207E+03  0.00000000000E+00 0.  1.
         11    1    5    5    0    0  0.18928984751E+03  0.50554022340E+03  0.11765278071E+04  0.12944571236E+04  0.00000000000E+00 0. -1.
        -11    1    5    5    0    0  0.26417683730E+02  0.36943562416E+02  0.17164653273E+03  0.17755352155E+03  0.00000000000E+00 0.  1.
          1    1    6    6  503    0  0.18205667194E+03 -0.22979891633E+03  0.30257348403E+03  0.42131091486E+03  0.00000000000E+00 0. -1.
         -1    1    6    6    0  503  0.12678192728E+02 -0.90758864006E+02  0.10997827864E+03  0.14315421663E+03  0.00000000000E+00 0.  1.
<mgrwt>
<rscale>  0 0.20864110E+04</rscale>
<asrwt>0</asrwt>
<pdfrwt beam="1">  1        2 0.31388602E+00 0.20864110E+04</pdfrwt>
<pdfrwt beam="2">  1       -1 0.82061800E-01 0.20864110E+04</pdfrwt>
<totfact> 0.98430647E+00</totfact>
</mgrwt>
</event>
<event>
12    6  0.9533401E-008  0.1529023E+04  0.7818608E-02  0.8865379E-01
         -1   -1    0    0    0  501 -0.00000000000E+00  0.00000000000E+00  0.21010788596E+03  0.21010788596E+03  0.00000000000E+00 0.  1.
          2   -1    0    0  501    0  0.00000000000E+00 -0.00000000000E+00 -0.27817990133E+04  0.27817990133E+04  0.00000000000E+00 0. -1.
         24    2    1    2    0    0 -0.24464481523E+03  0.26769381552E+03 -0.18628680604E+03  0.41658714709E+03  0.85621332238E+02 0.  0.
        254    2    1    2    0    0  0.24464481523E+03 -0.26769381552E+03 -0.23854043213E+04  0.25753197522E+04  0.90033715097E+03 0.  0.
         23    2    4    4    0    0 -0.50638683494E+02 -0.27277949816E+03 -0.21912714960E+04  0.22106332221E+04  0.90860017998E+02 0.  0.
         23    2    4    4    0    0  0.29528349872E+03  0.50856826499E+01 -0.19413282534E+03  0.36468653005E+03  0.89947220875E+02 0.  0.
          2    1    3    3  502    0 -0.13134015722E+02  0.56611132823E+02 -0.41766342338E+02  0.71566403297E+02  0.00000000000E+00 0. -1.
         -1    1    3    3    0  502 -0.23151079950E+03  0.21108268269E+03 -0.14452046370E+03  0.34502074379E+03  0.00000000000E+00 0.  1.
         11    1    5    5    0    0 -0.56454570400E+02 -0.27544699907E+03 -0.20470712726E+04  0.20662911129E+04  0.00000000000E+00 0. -1.
        -11    1    5    5    0    0  0.58158869061E+01  0.26675009037E+01 -0.14420022333E+03  0.14434210928E+03  0.00000000000E+00 0.  1.
          4    1    6    6  503    0  0.18400915225E+03 -0.46630406612E+00 -0.67451808795E+02  0.19598298922E+03  0.00000000000E+00 0. -1.
         -4    1    6    6    0  503  0.11127434647E+03  0.55519867161E+01 -0.12668101654E+03  0.16870354083E+03  0.00000000000E+00 0.  1.
<mgrwt>
<rscale>  0 0.15290231E+04</rscale>
<asrwt>0</asrwt>
<pdfrwt beam="1">  1        2 0.42796906E+00 0.15290231E+04</pdfrwt>
<pdfrwt beam="2">  1       -1 0.32324291E-01 0.15290231E+04</pdfrwt>
<totfact> 0.23399024E+01</totfact>
</mgrwt>
</event>
<event>
12    6  0.9533401E-008  0.1608747E+04  0.7818608E-02  0.8815192E-01
          2   -1    0    0  501    0  0.00000000000E+00  0.00000000000E+00  0.16428000848E+04  0.16428000848E+04  0.00000000000E+00 0. -1.
         -1   -1    0    0    0  501 -0.00000000000E+00 -0.00000000000E+00 -0.39384991200E+03  0.39384991200E+03  0.00000000000E+00 0.  1.
         24    2    1    2    0    0 -0.98486717683E+02 -0.45870128530E+03  0.76523218691E+03  0.90113341141E+03  0.79715886652E+02 0.  0.
        254    2    1    2    0    0  0.98486717683E+02  0.45870128530E+03  0.48371798590E+03  0.11355165854E+04  0.91395203547E+03 0.  0.
         23    2    4    4    0    0 -0.26857466248E+03  0.54404768800E+03  0.41803963871E+03  0.74221876331E+03  0.89505960351E+02 0.  0.
         23    2    4    4    0    0  0.36706138016E+03 -0.85346402702E+02  0.65678347191E+02  0.39329782208E+03  0.91386357335E+02 0.  0.
          2    1    3    3  502    0 -0.83808223843E+02 -0.44712890179E+03  0.74924919411E+03  0.87654003222E+03  0.00000000000E+00 0. -1.
         -1    1    3    3    0  502 -0.14678493840E+02 -0.11572383501E+02  0.15982992800E+02  0.24593379193E+02  0.00000000000E+00 0.  1.
         11    1    5    5    0    0 -0.28162419141E+02  0.10748409384E+03  0.10983457494E+03  0.15623567497E+03  0.00000000000E+00 0. -1.
        -11    1    5    5    0    0 -0.24041224334E+03  0.43656359416E+03  0.30820506376E+03  0.58598308834E+03  0.00000000000E+00 0.  1.
          2    1    6    6  503    0  0.29745546879E+03 -0.88605367645E+02  0.83431058464E+02  0.32138980787E+03  0.00000000000E+00 0.  1.
         -2    1    6    6    0  503  0.69605911369E+02  0.32589649424E+01 -0.17752711273E+02  0.71908014210E+02  0.00000000000E+00 0. -1.
<mgrwt>
<rscale>  0 0.16087469E+04</rscale>
<asrwt>0</asrwt>
<pdfrwt beam="1">  1        2 0.25273847E+00 0.16087469E+04</pdfrwt>
<pdfrwt beam="2">  1       -1 0.60592295E-01 0.16087469E+04</pdfrwt>
<totfact> 0.31825469E+01</totfact>
</mgrwt>
</event>
<event>
12    6  0.9533401E-008  0.2461930E+04  0.7818608E-02  0.8416675E-01
         -1   -1    0    0    0  501 -0.00000000000E+00  0.00000000000E+00  0.51762126238E+03  0.51762126238E+03  0.00000000000E+00 0.  1.
          2   -1    0    0  501    0  0.00000000000E+00 -0.00000000000E+00 -0.29273821395E+04  0.29273821395E+04  0.00000000000E+00 0. -1.
         24    2    1    2    0    0  0.59943619153E+03  0.44097987447E+03 -0.21011878489E+04  0.22306283572E+04  0.83219552548E+02 0.  0.
        254    2    1    2    0    0 -0.59943619153E+03 -0.44097987447E+03 -0.30857302820E+03  0.12143750447E+04  0.90868170341E+03 0.  0.
         23    2    4    4    0    0 -0.74009937749E+03 -0.92402102784E+02 -0.34269057343E+03  0.82605452273E+03  0.92973158756E+02 0.  0.
         23    2    4    4    0    0  0.14066318596E+03 -0.34857777169E+03  0.34117545226E+02  0.38832052199E+03  0.91302935936E+02 0.  0.
          2    1    3    3  502    0  0.51211024288E+03  0.39409816708E+03 -0.17410776248E+04  0.18571272336E+04  0.00000000000E+00 0. -1.
         -3    1    3    3    0  502  0.87325948651E+02  0.46881707388E+02 -0.36011022410E+03  0.37350112356E+03  0.00000000000E+00 0.  1.
         11    1    5    5    0    0 -0.61829911961E+03 -0.41757285679E+02 -0.28285681729E+03  0.68120881623E+03  0.00000000000E+00 0.  1.
        -11    1    5    5    0    0 -0.12180025788E+03 -0.50644817105E+02 -0.59833756134E+02  0.14484570650E+03  0.00000000000E+00 0. -1.
          1    1    6    6  503    0  0.74634578962E+02 -0.77028415660E+02  0.13456432942E+02  0.10809612751E+03  0.00000000000E+00 0. -1.
         -1    1    6    6    0  503  0.66028606997E+02 -0.27154935603E+03  0.20661112284E+02  0.28022439448E+03  0.00000000000E+00 0.  1.
<mgrwt>
<rscale>  0 0.24619303E+04</rscale>
<asrwt>0</asrwt>
<pdfrwt beam="1">  1        2 0.45036647E+00 0.24619303E+04</pdfrwt>
<pdfrwt beam="2">  1       -1 0.79634042E-01 0.24619303E+04</pdfrwt>
<totfact> 0.30977728E+00</totfact>
</mgrwt>
</event>
<event>
12    6  0.9533401E-008  0.1384254E+04  0.7818608E-02  0.8965296E-01
          2   -1    0    0  501    0  0.00000000000E+00  0.00000000000E+00  0.14119640022E+04  0.14119640022E+04  0.00000000000E+00 0. -1.
         -1   -1    0    0    0  501 -0.00000000000E+00 -0.00000000000E+00 -0.33927194641E+03  0.33927194641E+03  0.00000000000E+00 0.  1.
         24    2    1    2    0    0  0.11649514497E+03  0.37397073965E+03  0.22168449241E+03  0.45726931625E+03  0.80783540980E+02 0.  0.
        254    2    1    2    0    0 -0.11649514497E+03 -0.37397073965E+03  0.85100756332E+03  0.12939666323E+04  0.89258643267E+03 0.  0.
         23    2    4    4    0    0  0.33492149915E+03 -0.25903913716E+02  0.13556245726E+03  0.37493587389E+03  0.96728001999E+02 0.  0.
         23    2    4    4    0    0 -0.45141664412E+03 -0.34806682594E+03  0.71544510606E+03  0.91903075842E+03  0.88477868559E+02 0.  0.
          2    1    3    3  502    0  0.32974750432E+01 -0.30679405883E+01 -0.14905654676E+01  0.47441950347E+01  0.00000000000E+00 0. -1.
         -1    1    3    3    0  502  0.11319766993E+03  0.37703868024E+03  0.22317505788E+03  0.45252512122E+03  0.00000000000E+00 0.  1.
         11    1    5    5    0    0  0.16224802950E+03 -0.58364897986E+02  0.50115577175E+02  0.17956184302E+03  0.00000000000E+00 0. -1.
        -11    1    5    5    0    0  0.17267346965E+03  0.32460984270E+02  0.85446880085E+02  0.19537403087E+03  0.00000000000E+00 0.  1.
          2    1    6    6  503    0 -0.21479174528E+03 -0.12055926255E+03  0.34753267568E+03  0.42596829729E+03  0.00000000000E+00 0. -1.
         -2    1    6    6    0  503 -0.23662489885E+03 -0.22750756338E+03  0.36791243038E+03  0.49306246113E+03  0.00000000000E+00 0.  1.
<mgrwt>
<rscale>  0 0.13842540E+04</rscale>
<asrwt>0</asrwt>
<pdfrwt beam="1">  1        2 0.21722523E+00 0.13842540E+04</pdfrwt>
<pdfrwt beam="2">  1       -1 0.52195685E-01 0.13842540E+04</pdfrwt>
<totfact> 0.58467246E+01</totfact>
</mgrwt>
</event>
<event>
12    6  0.9533401E-008  0.2659533E+04  0.7818608E-02  0.8348256E-01
          2   -1    0    0  501    0  0.00000000000E+00  0.00000000000E+00  0.10850593262E+04  0.10850593262E+04  0.00000000000E+00 0. -1.
         -1   -1    0    0    0  501 -0.00000000000E+00 -0.00000000000E+00 -0.16296611681E+04  0.16296611681E+04  0.00000000000E+00 0.  1.
         24    2    1    2    0    0 -0.15793627964E+03  0.68331072294E+03  0.72158197602E+03  0.10096505440E+04  0.82802537967E+02 0.  0.
        254    2    1    2    0    0  0.15793627964E+03 -0.68331072294E+03 -0.12661838179E+04  0.17050699504E+04  0.90121288413E+03 0.  0.
         23    2    4    4    0    0 -0.33045117568E+03 -0.67265436618E+02 -0.36938072624E+03  0.50902283895E+03  0.94548988273E+02 0.  0.
         23    2    4    4    0    0  0.48838745532E+03 -0.61604528632E+03 -0.89680309169E+03  0.11960471115E+04  0.90767870287E+02 0.  0.
          2    1    3    3  502    0 -0.13885408054E+03  0.42358236499E+03  0.45774503263E+03  0.63893113127E+03  0.00000000000E+00 0. -1.
         -1    1    3    3    0  502 -0.19082199096E+02  0.25972835795E+03  0.26383694339E+03  0.37071941269E+03  0.00000000000E+00 0.  1.
         11    1    5    5    0    0 -0.15172770102E+03 -0.69551825046E+02 -0.21955419554E+03  0.27579484478E+03  0.00000000000E+00 0.  1.
        -11    1    5    5    0    0 -0.17872347465E+03  0.22863884273E+01 -0.14982653069E+03  0.23322799417E+03  0.00000000000E+00 0. -1.
          2    1    6    6  503    0  0.47539952088E+03 -0.60419326149E+03 -0.89245484301E+03  0.11779345688E+04  0.00000000000E+00 0. -1.
         -2    1    6    6    0  503  0.12987934441E+02 -0.11852024832E+02 -0.43482486868E+01  0.18112542624E+02  0.00000000000E+00 0.  1.
<mgrwt>
<rscale>  0 0.26595331E+04</rscale>
<asrwt>0</asrwt>
<pdfrwt beam="1">  1        2 0.16693220E+00 0.26595331E+04</pdfrwt>
<pdfrwt beam="2">  1       -1 0.25071710E+00 0.26595331E+04</pdfrwt>
<totfact> 0.15398937E+00</totfact>
</mgrwt>
</event>
<event>
12    6  0.9533401E-008  0.1829233E+04  0.7818608E-02  0.8690906E-01
         -1   -1    0    0    0  501 -0.00000000000E+00  0.00000000000E+00  0.41951349584E+03  0.41951349584E+03  0.00000000000E+00 0.  1.
          2   -1    0    0  501    0  0.00000000000E+00 -0.00000000000E+00 -0.19940326214E+04  0.19940326214E+04  0.00000000000E+00 0. -1.
         24    2    1    2    0    0  0.28188579544E+03  0.13173203705E+03 -0.14110779811E+04  0.14472021742E+04  0.80250439327E+02 0.  0.
        254    2    1    2    0    0 -0.28188579544E+03 -0.13173203705E+03 -0.16344114451E+03  0.96634394310E+03  0.90016369477E+03 0.  0.
         23    2    4    4    0    0 -0.42776332651E+02 -0.76068474463E+02  0.35958957170E+03  0.38144472248E+03  0.92623910490E+02 0.  0.
         23    2    4    4    0    0 -0.23910946279E+03 -0.55663562585E+02 -0.52303071621E+03  0.58489922061E+03  0.90962633999E+02 0.  0.
          4    1    3    3  502    0  0.13152050639E+03  0.44655435319E+02 -0.46502292932E+03  0.48532265175E+03  0.00000000000E+00 0. -1.
         -3    1    3    3    0  502  0.15036528904E+03  0.87076601729E+02 -0.94605505176E+03  0.96187952244E+03  0.00000000000E+00 0.  1.
         11    1    5    5    0    0 -0.20768463075E+01 -0.10580399096E+02 -0.26391371569E+01  0.11100593703E+02  0.00000000000E+00 0. -1.
        -11    1    5    5    0    0 -0.40699486343E+02 -0.65488075367E+02  0.36222870885E+03  0.37034412878E+03  0.00000000000E+00 0.  1.
          3    1    6    6  503    0  0.45658212146E+01 -0.88836692416E+00 -0.47892072053E+02  0.48117423920E+02  0.00000000000E+00 0. -1.
         -3    1    6    6    0  503 -0.24367528400E+03 -0.54775195661E+02 -0.47513864416E+03  0.53678179669E+03  0.00000000000E+00 0.  1.
<mgrwt>
<rscale>  0 0.18292333E+04</rscale>
<asrwt>0</asrwt>
<pdfrwt beam="1">  1        2 0.30677425E+00 0.18292333E+04</pdfrwt>
<pdfrwt beam="2">  1       -1 0.64540537E-01 0.18292333E+04</pdfrwt>
<totfact> 0.17578515E+01</totfact>
</mgrwt>
</event>
<event>
12    6  0.9533401E-008  0.1951104E+04  0.7818608E-02  0.8629828E-01
          2   -1    0    0  501    0  0.00000000000E+00  0.00000000000E+00  0.16501790709E+04  0.16501790709E+04  0.00000000000E+00 0. -1.
         -1   -1    0    0    0  501 -0.00000000000E+00 -0.00000000000E+00 -0.57672651385E+03  0.57672651385E+03  0.00000000000E+00 0.  1.
         24    2    1    2    0    0  0.65731879808E+03 -0.27404246274E+03  0.10037211341E+03  0.72340622717E+03  0.77940584113E+02 0.  0.
        254    2    1    2    0    0 -0.65731879808E+03  0.27404246274E+03  0.97308044369E+03  0.15034993576E+04  0.89802978503E+03 0.  0.
         23    2    4    4    0    0 -0.37101827844E+02  0.41043853778E+03  0.67561055420E+03  0.79636767740E+03  0.88969195430E+02 0.  0.
         23    2    4    4    0    0 -0.62021697024E+03 -0.13639607504E+03  0.29746988949E+03  0.70713168023E+03  0.90960972790E+02 0.  0.
          2    1    3    3  502    0  0.89513758404E+02 -0.58564437689E+02 -0.46747582661E+01  0.10707175010E+03  0.00000000000E+00 0. -1.
         -1    1    3    3    0  502  0.56780503968E+03 -0.21547802505E+03  0.10504687167E+03  0.61633447706E+03  0.00000000000E+00 0.  1.
         11    1    5    5    0    0 -0.13370980980E+02  0.37727874348E+03  0.63547399139E+03  0.73915169427E+03  0.00000000000E+00 0.  1.
        -11    1    5    5    0    0 -0.23730846864E+02  0.33159794306E+02  0.40136562816E+02  0.57215983134E+02  0.00000000000E+00 0. -1.
          1    1    6    6  503    0 -0.12539232116E+02 -0.18631871352E+02  0.84297221418E+01  0.23988313561E+02  0.00000000000E+00 0. -1.
         -1    1    6    6    0  503 -0.60767773812E+03 -0.11776420369E+03  0.28904016735E+03  0.68314336667E+03  0.00000000000E+00 0.  1.
<mgrwt>
<rscale>  0 0.19511043E+04</rscale>
<asrwt>0</asrwt>
<pdfrwt beam="1">  1        2 0.25387370E+00 0.19511043E+04</pdfrwt>
<pdfrwt beam="2">  1       -1 0.88727156E-01 0.19511043E+04</pdfrwt>
<totfact> 0.13844891E+01</totfact>
</mgrwt>
</event>
<event>
12    6  0.9533401E-008  0.1231381E+04  0.7818608E-02  0.9085824E-01
         -1   -1    0    0    0  501 -0.00000000000E+00  0.00000000000E+00  0.10887417051E+03  0.10887417051E+03  0.00000000000E+00 0.  1.
          2   -1    0    0  501    0  0.00000000000E+00 -0.00000000000E+00 -0.34817674948E+04  0.34817674948E+04  0.00000000000E+00 0. -1.
         24    2    1    2    0    0 -0.26393782911E+03 -0.38267798480E+02 -0.10564853883E+04  0.10925172954E+04  0.79404427555E+02 0.  0.
        254    2    1    2    0    0  0.26393782911E+03  0.38267798480E+02 -0.23164079360E+04  0.24981243699E+04  0.89652219122E+03 0.  0.
         23    2    4    4    0    0 -0.61718368361E+02  0.11623036848E+03 -0.20611639919E+04  0.20675234779E+04  0.94539273841E+02 0.  0.
         23    2    4    4    0    0  0.32565619747E+03 -0.77962570000E+02 -0.25524394404E+03  0.43060089199E+03  0.90208291964E+02 0.  0.
          4    1    3    3  502    0 -0.69829624493E+02 -0.21566263653E+02 -0.43851058704E+03  0.44455912445E+03  0.00000000000E+00 0. -1.
         -3    1    3    3    0  502 -0.19410820462E+03 -0.16701534827E+02 -0.61797480124E+03  0.64795817098E+03  0.00000000000E+00 0.  1.
         11    1    5    5    0    0 -0.42962528254E+02  0.12546540738E+03 -0.14641992781E+04  0.14701928014E+04  0.00000000000E+00 0.  1.
        -11    1    5    5    0    0 -0.18755840107E+02 -0.92350389009E+01 -0.59696471383E+03  0.59733067646E+03  0.00000000000E+00 0. -1.
          4    1    6    6  503    0  0.17798669512E+03 -0.49844931868E+01 -0.99804371781E+02  0.20412011522E+03  0.00000000000E+00 0. -1.
         -4    1    6    6    0  503  0.14766950235E+03 -0.72978076813E+02 -0.15543957226E+03  0.22648077677E+03  0.00000000000E+00 0.  1.
<mgrwt>
<rscale>  0 0.12313806E+04</rscale>
<asrwt>0</asrwt>
<pdfrwt beam="1">  1        2 0.53565661E+00 0.12313806E+04</pdfrwt>
<pdfrwt beam="2">  1       -1 0.16749870E-01 0.12313806E+04</pdfrwt>
<totfact> 0.26401737E+01</totfact>
</mgrwt>
</event>
<event>
12    6  0.9533401E-008  0.1749338E+04  0.7818608E-02  0.8733715E-01
          2   -1    0    0  501    0  0.00000000000E+00  0.00000000000E+00  0.27775190888E+04  0.27775190888E+04  0.00000000000E+00 0. -1.
         -1   -1    0    0    0  501 -0.00000000000E+00 -0.00000000000E+00 -0.27544217788E+03  0.27544217788E+03  0.00000000000E+00 0.  1.
         24    2    1    2    0    0  0.21319936531E+03  0.60370574781E+03  0.96804613643E+03  0.11632670692E+04  0.78500654359E+02 0.  0.
        254    2    1    2    0    0 -0.21319936531E+03 -0.60370574781E+03  0.15340307745E+04  0.18896941975E+04  0.89876534400E+03 0.  0.
         23    2    4    4    0    0  0.52173614080E+02 -0.91694211339E+02 -0.88490972521E+02  0.16528388613E+03  0.91423172103E+02 0.  0.
         23    2    4    4    0    0 -0.26537297939E+03 -0.51201153647E+03  0.16225217470E+04  0.17244103113E+04  0.91844818523E+02 0.  0.
          4    1    3    3  502    0  0.20505713053E+03  0.60252575254E+03  0.95083974115E+03  0.11441948796E+04  0.00000000000E+00 0. -1.
         -3    1    3    3    0  502  0.81422347840E+01  0.11799952666E+01  0.17206395274E+02  0.19072189555E+02  0.00000000000E+00 0.  1.
         11    1    5    5    0    0 -0.94847887650E+01 -0.63329414458E+02 -0.70144492953E+02  0.94978028223E+02  0.00000000000E+00 0. -1.
        -11    1    5    5    0    0  0.61658402845E+02 -0.28364796881E+02 -0.18346479568E+02  0.70305857907E+02  0.00000000000E+00 0.  1.
          1    1    6    6  503    0 -0.38932397567E+02 -0.10485641668E+03  0.42452950856E+03  0.43901697386E+03  0.00000000000E+00 0. -1.
         -1    1    6    6    0  503 -0.22644058183E+03 -0.40715511979E+03  0.11979922384E+04  0.12853933375E+04  0.00000000000E+00 0.  1.
<mgrwt>
<rscale>  0 0.17493381E+04</rscale>
<asrwt>0</asrwt>
<pdfrwt beam="1">  1        2 0.42731061E+00 0.17493381E+04</pdfrwt>
<pdfrwt beam="2">  1       -1 0.42375722E-01 0.17493381E+04</pdfrwt>
<totfact> 0.14142316E+01</totfact>
</mgrwt>
</event>
<event>
12    6  0.1835683E-007  0.2228551E+04  0.7818608E-02  0.8506638E-01
         -1   -1    0    0    0  501 -0.00000000000E+00  0.00000000000E+00  0.60723483999E+03  0.60723483999E+03  0.00000000000E+00 0.  1.
          2   -1    0    0  501    0  0.00000000000E+00 -0.00000000000E+00 -0.20446946508E+04  0.20446946508E+04  0.00000000000E+00 0. -1.
         24    2    1    2    0    0  0.17198701390E+03 -0.55037123698E+03  0.27327109565E+03  0.64312899471E+03  0.80310526552E+02 0.  0.
        254    2    1    2    0    0 -0.17198701390E+03  0.55037123698E+03 -0.17107309065E+04  0.20088004961E+04  0.88101712092E+03 0.  0.
         23    2    4    4    0    0  0.31795980426E+03  0.28458957569E+03 -0.10655705060E+04  0.11514098935E+04  0.90634298357E+02 0.  0.
         23    2    4    4    0    0 -0.48994681816E+03  0.26578166129E+03 -0.64516040054E+03  0.85739060259E+03  0.90547925921E+02 0.  0.
          4    1    3    3  502    0  0.15142141410E+02 -0.71623201193E+01  0.67181071130E+01  0.18047610344E+02  0.00000000000E+00 0. -1.
         -3    1    3    3    0  502  0.15684487249E+03 -0.54320891686E+03  0.26655298853E+03  0.62508138437E+03  0.00000000000E+00 0.  1.
         11    1    5    5    0    0  0.82701944631E+01  0.34873643409E+02 -0.58458078306E+02  0.68570504156E+02  0.00000000000E+00 0. -1.
        -11    1    5    5    0    0  0.30968960980E+03  0.24971593228E+03 -0.10071124276E+04  0.10828393894E+04  0.00000000000E+00 0.  1.
          1    1    6    6  503    0 -0.71347495602E+01  0.85752360786E+01  0.46727683715E+00  0.11165020051E+02  0.00000000000E+00 0. -1.
         -1    1    6    6    0  503 -0.48281206860E+03  0.25720642521E+03 -0.64562767737E+03  0.84622558254E+03  0.00000000000E+00 0.  1.
<mgrwt>
<rscale>  0 0.22285509E+04</rscale>
<asrwt>0</asrwt>
<pdfrwt beam="1">  1        2 0.31456841E+00 0.22285509E+04</pdfrwt>
<pdfrwt beam="2">  1       -1 0.93420744E-01 0.22285509E+04</pdfrwt>
<totfact> 0.72793360E+00</totfact>
</mgrwt>
</event>
<event>
12    6  0.9533401E-008  0.1727579E+04  0.7818608E-02  0.8745789E-01
          2   -1    0    0  501    0  0.00000000000E+00  0.00000000000E+00  0.98547308404E+03  0.98547308404E+03  0.00000000000E+00 0. -1.
         -1   -1    0    0    0  501 -0.00000000000E+00 -0.00000000000E+00 -0.75713133571E+03  0.75713133571E+03  0.00000000000E+00 0.  1.
         24    2    1    2    0    0 -0.23040827818E+03  0.56228921147E+03 -0.74364579635E+02  0.61737308894E+03  0.79764078661E+02 0.  0.
        254    2    1    2    0    0  0.23040827818E+03 -0.56228921147E+03  0.30270632797E+03  0.11252313308E+04  0.89736129561E+03 0.  0.
         23    2    4    4    0    0  0.10413359823E+03 -0.15389776436E+03  0.57489397357E+03  0.61167864288E+03  0.95495304370E+02 0.  0.
         23    2    4    4    0    0  0.12627467995E+03 -0.40839144711E+03 -0.27218764560E+03  0.51355268793E+03  0.83194831507E+02 0.  0.
          2    1    3    3  502    0 -0.65628330803E+02  0.20507355705E+03  0.79420149013E+01  0.21546535036E+03  0.00000000000E+00 0. -1.
         -1    1    3    3    0  502 -0.16477994738E+03  0.35721565442E+03 -0.82306594536E+02  0.40190773857E+03  0.00000000000E+00 0.  1.
         11    1    5    5    0    0  0.81425221305E+02 -0.36664132602E+02  0.25957329954E+03  0.27450432259E+03  0.00000000000E+00 0. -1.
        -11    1    5    5    0    0  0.22708376930E+02 -0.11723363176E+03  0.31532067403E+03  0.33717432029E+03  0.00000000000E+00 0.  1.
          1    1    6    6  503    0  0.43865680816E+02 -0.27499456896E+03 -0.16629497192E+03  0.32434584720E+03  0.00000000000E+00 0. -1.
         -1    1    6    6    0  503  0.82408999131E+02 -0.13339687816E+03 -0.10589267368E+03  0.18920684073E+03  0.00000000000E+00 0.  1.
<mgrwt>
<rscale>  0 0.17275793E+04</rscale>
<asrwt>0</asrwt>
<pdfrwt beam="1">  1        2 0.15161124E+00 0.17275793E+04</pdfrwt>
<pdfrwt beam="2">  1       -1 0.11648174E+00 0.17275793E+04</pdfrwt>
<totfact> 0.18561092E+01</totfact>
</mgrwt>
</event>
<event>
12    6  0.9533401E-008  0.1787925E+04  0.7818608E-02  0.8712747E-01
          2   -1    0    0  501    0  0.00000000000E+00  0.00000000000E+00  0.24483279191E+04  0.24483279191E+04  0.00000000000E+00 0. -1.
         -1   -1    0    0    0  501 -0.00000000000E+00 -0.00000000000E+00 -0.32641415006E+03  0.32641415006E+03  0.00000000000E+00 0.  1.
         24    2    1    2    0    0 -0.37950475297E+03  0.64060028745E+02 -0.47375479770E+02  0.39590291691E+03  0.79794352704E+02 0.  0.
        254    2    1    2    0    0  0.37950475297E+03 -0.64060028745E+02  0.21692892488E+04  0.23788391522E+04  0.89718020622E+03 0.  0.
         23    2    4    4    0    0 -0.26195132412E+03 -0.16023768236E+03  0.75464062963E+03  0.81970314741E+03  0.90200659238E+02 0.  0.
         23    2    4    4    0    0  0.64145607709E+03  0.96177653615E+02  0.14146486191E+04  0.15591360048E+04  0.94648433301E+02 0.  0.
          4    1    3    3  502    0 -0.78341239313E+02 -0.13077694967E+02  0.90474760812E+01  0.79938931105E+02  0.00000000000E+00 0. -1.
         -3    1    3    3    0  502 -0.30116351365E+03  0.77137723713E+02 -0.56422955851E+02  0.31596398580E+03  0.00000000000E+00 0.  1.
         11    1    5    5    0    0 -0.14128099913E+02 -0.72435548421E+01  0.70257343224E+01  0.17361832757E+02  0.00000000000E+00 0.  1.
        -11    1    5    5    0    0 -0.24782322421E+03 -0.15299412752E+03  0.74761489531E+03  0.80234131466E+03  0.00000000000E+00 0. -1.
          4    1    6    6  503    0  0.24582994193E+03  0.75017882264E+02  0.49415624103E+03  0.55700128685E+03  0.00000000000E+00 0. -1.
         -4    1    6    6    0  503  0.39562613516E+03  0.21159771350E+02  0.92049237812E+03  0.10021347180E+04  0.00000000000E+00 0.  1.
<mgrwt>
<rscale>  0 0.17879249E+04</rscale>
<asrwt>0</asrwt>
<pdfrwt beam="1">  1        2 0.37666582E+00 0.17879249E+04</pdfrwt>
<pdfrwt beam="2">  1       -1 0.50217563E-01 0.17879249E+04</pdfrwt>
<totfact> 0.15989086E+01</totfact>
</mgrwt>
</event>
<event>
12    6  0.9533401E-008  0.4198242E+04  0.7818608E-02  0.7965707E-01
         -1   -1    0    0    0  501 -0.00000000000E+00  0.00000000000E+00  0.13710713779E+04  0.13710713779E+04  0.00000000000E+00 0.  1.
          2   -1    0    0  501    0  0.00000000000E+00 -0.00000000000E+00 -0.32137713184E+04  0.32137713184E+04  0.00000000000E+00 0. -1.
         24    2    1    2    0    0  0.93545558089E+03 -0.17603737158E+04 -0.68850204405E+03  0.21105498302E+04  0.79954724862E+02 0.  0.
        254    2    1    2    0    0 -0.93545558089E+03  0.17603737158E+04 -0.11541978965E+04  0.24742928661E+04  0.90330484321E+03 0.  0.
         23    2    4    4    0    0 -0.13624216877E+03 -0.75743110922E+02 -0.10449301322E+03  0.21152830102E+03  0.97603713659E+02 0.  0.
         23    2    4    4    0    0 -0.79921341212E+03  0.18361168267E+04 -0.10497048833E+04  0.22627645651E+04  0.90310881979E+02 0.  0.
          4    1    3    3  502    0  0.31559657688E+03 -0.51834175796E+03 -0.21979608379E+03  0.64543760026E+03  0.00000000000E+00 0. -1.
         -3    1    3    3    0  502  0.61985900401E+03 -0.12420319579E+04 -0.46870596026E+03  0.14651122300E+04  0.00000000000E+00 0.  1.
         11    1    5    5    0    0 -0.17763403354E+02 -0.34049497347E+02  0.11985013325E+02  0.40231173395E+02  0.00000000000E+00 0. -1.
        -11    1    5    5    0    0 -0.11847876541E+03 -0.41693613575E+02 -0.11647802654E+03  0.17129712763E+03  0.00000000000E+00 0.  1.
          3    1    6    6  503    0 -0.31933462946E+02  0.96676324230E+02 -0.73941026031E+02  0.12583057281E+03  0.00000000000E+00 0. -1.
         -3    1    6    6    0  503 -0.76727994918E+03  0.17394405025E+04 -0.97576385726E+03  0.21369339923E+04  0.00000000000E+00 0.  1.
<mgrwt>
<rscale>  0 0.41982424E+04</rscale>
<asrwt>0</asrwt>
<pdfrwt beam="1">  1        2 0.49442635E+00 0.41982424E+04</pdfrwt>
<pdfrwt beam="2">  1       -1 0.21093406E+00 0.41982424E+04</pdfrwt>
<totfact> 0.14170679E-01</totfact>
</mgrwt>
</event>
<event>
12    6  0.9533401E-008  0.2451160E+04  0.7818608E-02  0.8420595E-01
          2   -1    0    0  501    0  0.00000000000E+00  0.00000000000E+00  0.14533822326E+04  0.14533822326E+04  0.00000000000E+00 0. -1.
         -1   -1    0    0    0  501 -0.00000000000E+00 -0.00000000000E+00 -0.10334830855E+04  0.10334830855E+04  0.00000000000E+00 0.  1.
         24    2    1    2    0    0 -0.28013427686E+03 -0.76541798485E+03  0.85672446345E+03  0.11851379390E+04  0.78963432374E+02 0.  0.
        254    2    1    2    0    0  0.28013427686E+03  0.76541798485E+03 -0.43682531633E+03  0.13017273791E+04  0.91615386699E+03 0.  0.
         23    2    4    4    0    0  0.42542282474E+03  0.88199842140E+03 -0.47352897263E+03  0.10910754022E+04  0.85498830984E+02 0.  0.
         23    2    4    4    0    0 -0.14528854789E+03 -0.11658043656E+03  0.36703656297E+02  0.21065197698E+03  0.91254242016E+02 0.  0.
          2    1    3    3  502    0 -0.26613413490E+03 -0.75075347518E+03  0.81993850399E+03  0.11431348602E+04  0.00000000000E+00 0. -1.
         -1    1    3    3    0  502 -0.14000141961E+02 -0.14664509668E+02  0.36785959458E+02  0.42003078839E+02  0.00000000000E+00 0.  1.
         11    1    5    5    0    0  0.42378369755E+03  0.88280907805E+03 -0.46817554516E+03  0.10854182750E+04  0.00000000000E+00 0. -1.
        -11    1    5    5    0    0  0.16391271956E+01 -0.81065664359E+00 -0.53534274661E+01  0.56571271678E+01  0.00000000000E+00 0.  1.
          4    1    6    6  503    0 -0.94625491696E+02 -0.12362073943E+03  0.34490252060E+02  0.15945422034E+03  0.00000000000E+00 0. -1.
         -4    1    6    6    0  503 -0.50663056189E+02  0.70403028743E+01  0.22134042370E+01  0.51197756643E+02  0.00000000000E+00 0.  1.
<mgrwt>
<rscale>  0 0.24511597E+04</rscale>
<asrwt>0</asrwt>
<pdfrwt beam="1">  1        2 0.22359727E+00 0.24511597E+04</pdfrwt>
<pdfrwt beam="2">  1       -1 0.15899740E+00 0.24511597E+04</pdfrwt>
<totfact> 0.40928290E+00</totfact>
</mgrwt>
</event>
<event>
12    6  0.9533401E-008  0.1613443E+04  0.7818608E-02  0.8812332E-01
          2   -1    0    0  501    0  0.00000000000E+00  0.00000000000E+00  0.17416850912E+04  0.17416850912E+04  0.00000000000E+00 0. -1.
         -1   -1    0    0    0  501 -0.00000000000E+00 -0.00000000000E+00 -0.37366088273E+03  0.37366088273E+03  0.00000000000E+00 0.  1.
         24    2    1    2    0    0 -0.26626017605E+01  0.43420585195E+03  0.34940989341E+02  0.44263964718E+03  0.78531351730E+02 0.  0.
        254    2    1    2    0    0  0.26626017605E+01 -0.43420585195E+03  0.13330832191E+04  0.16727063268E+04  0.91230136199E+03 0.  0.
         23    2    4    4    0    0  0.37548315663E+03 -0.43572341036E+03  0.10330754580E+04  0.11860227122E+04  0.92533674197E+02 0.  0.
         23    2    4    4    0    0 -0.37282055487E+03  0.15175584124E+01  0.30000776118E+03  0.48668361451E+03  0.88649956277E+02 0.  0.
          4    1    3    3  502    0  0.17264949124E+01 -0.95657296668E-01 -0.61386806205E+01  0.63775649555E+01  0.00000000000E+00 0. -1.
         -3    1    3    3    0  502 -0.43890966729E+01  0.43430150924E+03  0.41079669961E+02  0.43626208222E+03  0.00000000000E+00 0.  1.
         11    1    5    5    0    0  0.99610261610E+02 -0.82670287837E+02  0.30195940913E+03  0.32853624682E+03  0.00000000000E+00 0.  1.
        -11    1    5    5    0    0  0.27587289502E+03 -0.35305312252E+03  0.73111604884E+03  0.85748646543E+03  0.00000000000E+00 0. -1.
          2    1    6    6  503    0 -0.31060306154E+03  0.22638257078E+02  0.27780888672E+03  0.41733024102E+03  0.00000000000E+00 0. -1.
         -2    1    6    6    0  503 -0.62217493329E+02 -0.21120698666E+02  0.22198874457E+02  0.69353373497E+02  0.00000000000E+00 0.  1.
<mgrwt>
<rscale>  0 0.16134430E+04</rscale>
<asrwt>0</asrwt>
<pdfrwt beam="1">  1        2 0.26795155E+00 0.16134430E+04</pdfrwt>
<pdfrwt beam="2">  1       -1 0.57486290E-01 0.16134430E+04</pdfrwt>
<totfact> 0.31092131E+01</totfact>
</mgrwt>
</event>
<event>
12    6  0.9533401E-008  0.1356894E+04  0.7818608E-02  0.8985626E-01
          2   -1    0    0  501    0  0.00000000000E+00  0.00000000000E+00  0.86665941387E+03  0.86665941387E+03  0.00000000000E+00 0. -1.
         -1   -1    0    0    0  501 -0.00000000000E+00 -0.00000000000E+00 -0.53110880889E+03  0.53110880889E+03  0.00000000000E+00 0.  1.
         24    2    1    2    0    0  0.20537406364E+03  0.21049461234E+03 -0.14855659170E+03  0.33938934982E+03  0.81422245094E+02 0.  0.
        254    2    1    2    0    0 -0.20537406364E+03 -0.21049461234E+03  0.48410719668E+03  0.10583788729E+04  0.89404673981E+03 0.  0.
         23    2    4    4    0    0  0.26105564747E+03 -0.85583896843E+02 -0.89895522212E+02  0.30300017700E+03  0.90847387805E+02 0.  0.
         23    2    4    4    0    0 -0.46642971111E+03 -0.12491071549E+03  0.57400271890E+03  0.75537869594E+03  0.89210373428E+02 0.  0.
          2    1    3    3  502    0  0.23095909427E+02  0.54903265095E+02 -0.44134127165E+01  0.59726608494E+02  0.00000000000E+00 0. -1.
         -1    1    3    3    0  502  0.18227815421E+03  0.15559134724E+03 -0.14414317898E+03  0.27966274133E+03  0.00000000000E+00 0.  1.
         11    1    5    5    0    0  0.44927024293E+02 -0.43931628366E+02  0.55706336471E+01  0.63082940974E+02  0.00000000000E+00 0. -1.
        -11    1    5    5    0    0  0.21612862318E+03 -0.41652268477E+02 -0.95466155859E+02  0.23991723602E+03  0.00000000000E+00 0.  1.
          1    1    6    6  503    0 -0.27961384531E+02 -0.29455344463E+02  0.31893209763E+02  0.51639453631E+02  0.00000000000E+00 0. -1.
         -1    1    6    6    0  503 -0.43846832658E+03 -0.95455371030E+02  0.54210950913E+03  0.70373924231E+03  0.00000000000E+00 0.  1.
<mgrwt>
<rscale>  0 0.13568942E+04</rscale>
<asrwt>0</asrwt>
<pdfrwt beam="1">  1        2 0.13333222E+00 0.13568942E+04</pdfrwt>
<pdfrwt beam="2">  1       -1 0.81709048E-01 0.13568942E+04</pdfrwt>
<totfact> 0.51362365E+01</totfact>
</mgrwt>
</event>
<event>
12    6  0.9533401E-008  0.1534319E+04  0.7818608E-02  0.8861946E-01
          2   -1    0    0  501    0  0.00000000000E+00  0.00000000000E+00  0.86327523060E+03  0.86327523060E+03  0.00000000000E+00 0. -1.
         -1   -1    0    0    0  501 -0.00000000000E+00 -0.00000000000E+00 -0.68174554818E+03  0.68174554818E+03  0.00000000000E+00 0.  1.
         24    2    1    2    0    0 -0.20413094102E+03  0.28779967821E+03 -0.29992324759E+03  0.46976115899E+03  0.78889138600E+02 0.  0.
        254    2    1    2    0    0  0.20413094102E+03 -0.28779967821E+03  0.48145293001E+03  0.10752596198E+04  0.89436470765E+03 0.  0.
         23    2    4    4    0    0 -0.65428456759E+02  0.26032775737E+03  0.33676754328E+03  0.44061869809E+03  0.93172070315E+02 0.  0.
         23    2    4    4    0    0  0.26955939778E+03 -0.54812743558E+03  0.14468538673E+03  0.63464092171E+03  0.93430636324E+02 0.  0.
          2    1    3    3  502    0 -0.43826886143E+02  0.17767373110E+02 -0.33706060501E+02  0.58073866848E+02  0.00000000000E+00 0. -1.
         -1    1    3    3    0  502 -0.16030405488E+03  0.27003230510E+03 -0.26621718709E+03  0.41168729214E+03  0.00000000000E+00 0.  1.
         11    1    5    5    0    0 -0.62611016725E+02  0.72612390797E+02  0.12664766865E+03  0.15884687811E+03  0.00000000000E+00 0. -1.
        -11    1    5    5    0    0 -0.28174400340E+01  0.18771536657E+03  0.21011987463E+03  0.28177181997E+03  0.00000000000E+00 0.  1.
          3    1    6    6  503    0  0.24332456495E+03 -0.41662865037E+03  0.13040947300E+03  0.49979286396E+03  0.00000000000E+00 0. -1.
         -3    1    6    6    0  503  0.26234832833E+02 -0.13149878521E+03  0.14275913730E+02  0.13484805775E+03  0.00000000000E+00 0.  1.
<mgrwt>
<rscale>  0 0.15343195E+04</rscale>
<asrwt>0</asrwt>
<pdfrwt beam="1">  1        2 0.13281157E+00 0.15343195E+04</pdfrwt>
<pdfrwt beam="2">  1       -1 0.10488393E+00 0.15343195E+04</pdfrwt>
<totfact> 0.29182165E+01</totfact>
</mgrwt>
</event>
<event>
12    6  0.9533401E-008  0.2547878E+04  0.7818608E-02  0.8386125E-01
          2   -1    0    0  501    0  0.00000000000E+00  0.00000000000E+00  0.17514008885E+04  0.17514008885E+04  0.00000000000E+00 0. -1.
         -1   -1    0    0    0  501 -0.00000000000E+00 -0.00000000000E+00 -0.92664112689E+03  0.92664112689E+03  0.00000000000E+00 0.  1.
         24    2    1    2    0    0 -0.69138755670E+03 -0.36739610737E+03 -0.47223409012E+03  0.91785538386E+03  0.80354318692E+02 0.  0.
        254    2    1    2    0    0  0.69138755670E+03  0.36739610737E+03  0.12969938517E+04  0.17601866315E+04  0.89614020842E+03 0.  0.
         23    2    4    4    0    0  0.45638963840E+03 -0.21152315622E+02  0.11998635769E+04  0.12869598417E+04  0.88623407951E+02 0.  0.
         23    2    4    4    0    0  0.23499791831E+03  0.38854842299E+03  0.97130274845E+02  0.47322678987E+03  0.91188846611E+02 0.  0.
          4    1    3    3  502    0 -0.70010321671E+02 -0.55814896942E+02 -0.32134946689E+02  0.95128348350E+02  0.00000000000E+00 0. -1.
         -3    1    3    3    0  502 -0.62137723503E+03 -0.31158121042E+03 -0.44009914343E+03  0.82272703551E+03  0.00000000000E+00 0.  1.
         11    1    5    5    0    0  0.33728604304E+01 -0.84837963436E+01  0.91855920625E+01  0.12950910756E+02  0.00000000000E+00 0. -1.
        -11    1    5    5    0    0  0.45301677797E+03 -0.12668519279E+02  0.11906779848E+04  0.12740089309E+04  0.00000000000E+00 0.  1.
          3    1    6    6  503    0 -0.37811610736E+01  0.10319552776E+02  0.14773886575E+02  0.18413529621E+02  0.00000000000E+00 0. -1.
         -3    1    6    6    0  503  0.23877907938E+03  0.37822887021E+03  0.82356388270E+02  0.45481326025E+03  0.00000000000E+00 0.  1.
<mgrwt>
<rscale>  0 0.25478776E+04</rscale>
<asrwt>0</asrwt>
<pdfrwt beam="1">  1        2 0.26944629E+00 0.25478776E+04</pdfrwt>
<pdfrwt beam="2">  1       -1 0.14256017E+00 0.25478776E+04</pdfrwt>
<totfact> 0.37111456E+00</totfact>
</mgrwt>
</event>
<event>
12    6  0.9533401E-008  0.1547115E+04  0.7818608E-02  0.8853713E-01
          2   -1    0    0  501    0  0.00000000000E+00  0.00000000000E+00  0.62852498559E+03  0.62852498559E+03  0.00000000000E+00 0. -1.
         -1   -1    0    0    0  501 -0.00000000000E+00 -0.00000000000E+00 -0.95205611984E+03  0.95205611984E+03  0.00000000000E+00 0.  1.
         24    2    1    2    0    0  0.81934790280E+02  0.49212005047E+03 -0.19180291017E+03  0.54044011649E+03  0.79948165894E+02 0.  0.
        254    2    1    2    0    0 -0.81934790280E+02 -0.49212005047E+03 -0.13172822408E+03  0.10401409889E+04  0.90313094174E+03 0.  0.
         23    2    4    4    0    0  0.37250002955E+03 -0.44613451911E+02 -0.85432084787E+02  0.39449462121E+03  0.87067404607E+02 0.  0.
         23    2    4    4    0    0 -0.45443481983E+03 -0.44750659856E+03 -0.46296139294E+02  0.64564636773E+03  0.89122042296E+02 0.  0.
          4    1    3    3  502    0  0.38768214732E+02  0.17518922502E+03 -0.10936360972E+03  0.21013005061E+03  0.00000000000E+00 0. -1.
         -3    1    3    3    0  502  0.43166575548E+02  0.31693082545E+03 -0.82439300444E+02  0.33031006588E+03  0.00000000000E+00 0.  1.
         11    1    5    5    0    0  0.77835365019E+01 -0.34240049241E+01  0.12037598405E+02  0.14738080796E+02  0.00000000000E+00 0.  1.
        -11    1    5    5    0    0  0.36471649305E+03 -0.41189446987E+02 -0.97469683192E+02  0.37975654042E+03  0.00000000000E+00 0. -1.
          2    1    6    6  503    0 -0.17834272803E+03 -0.23230155834E+03 -0.26387043431E+01  0.29287728728E+03  0.00000000000E+00 0. -1.
         -2    1    6    6    0  503 -0.27609209181E+03 -0.21520504022E+03 -0.43657434950E+02  0.35276908045E+03  0.00000000000E+00 0.  1.
<mgrwt>
<rscale>  0 0.15471148E+04</rscale>
<asrwt>0</asrwt>
<pdfrwt beam="1">  1        2 0.96696152E-01 0.15471148E+04</pdfrwt>
<pdfrwt beam="2">  1       -1 0.14647017E+00 0.15471148E+04</pdfrwt>
<totfact> 0.19175209E+01</totfact>
</mgrwt>
</event>
<event>
12    6  0.9533401E-008  0.1934887E+04  0.7818608E-02  0.8637683E-01
          2   -1    0    0  501    0  0.00000000000E+00  0.00000000000E+00  0.86686271605E+03  0.86686271605E+03  0.00000000000E+00 0. -1.
         -1   -1    0    0    0  501 -0.00000000000E+00 -0.00000000000E+00 -0.10796949382E+04  0.10796949382E+04  0.00000000000E+00 0.  1.
         24    2    1    2    0    0 -0.52214442985E+01  0.80398935043E+02 -0.84527501947E+03  0.85282796144E+03  0.79589076143E+02 0.  0.
        254    2    1    2    0    0  0.52214442985E+01 -0.80398935043E+02  0.63244279729E+03  0.10937296928E+04  0.88868976415E+03 0.  0.
         23    2    4    4    0    0 -0.16215284152E+03  0.23344997685E+03 -0.65031428641E+02  0.30534667905E+03  0.90637034341E+02 0.  0.
         23    2    4    4    0    0  0.16737428581E+03 -0.31384891189E+03  0.69747422593E+03  0.78838301378E+03  0.92532099983E+02 0.  0.
          2    1    3    3  502    0  0.32002116656E+02  0.35271599388E+02 -0.23643096143E+03  0.24118005870E+03  0.00000000000E+00 0. -1.
         -1    1    3    3    0  502 -0.37223560954E+02  0.45127335655E+02 -0.60884405804E+03  0.61164790274E+03  0.00000000000E+00 0.  1.
         11    1    5    5    0    0 -0.16414531169E+03  0.17615481403E+03 -0.47734951972E+02  0.24546451372E+03  0.00000000000E+00 0.  1.
        -11    1    5    5    0    0  0.19924701721E+01  0.57295162819E+02 -0.17296476669E+02  0.59882165333E+02  0.00000000000E+00 0. -1.
          2    1    6    6  503    0  0.84732650837E+02 -0.23642238376E+03  0.43084254132E+03  0.49869876787E+03  0.00000000000E+00 0. -1.
         -2    1    6    6    0  503  0.82641634977E+02 -0.77426528130E+02  0.26663168461E+03  0.28968424591E+03  0.00000000000E+00 0.  1.
<mgrwt>
<rscale>  0 0.19348874E+04</rscale>
<asrwt>0</asrwt>
<pdfrwt beam="1">  1        2 0.13336350E+00 0.19348874E+04</pdfrwt>
<pdfrwt beam="2">  1       -1 0.16610691E+00 0.19348874E+04</pdfrwt>
<totfact> 0.86574410E+00</totfact>
</mgrwt>
</event>
<event>
12    6  0.9533401E-008  0.4265864E+04  0.7818608E-02  0.7952961E-01
          2   -1    0    0  501    0  0.00000000000E+00  0.00000000000E+00  0.22279100969E+04  0.22279100969E+04  0.00000000000E+00 0. -1.
         -1   -1    0    0    0  501 -0.00000000000E+00 -0.00000000000E+00 -0.20420027438E+04  0.20420027438E+04  0.00000000000E+00 0.  1.
         24    2    1    2    0    0  0.55377675071E+02 -0.19949594238E+04  0.48600670332E+03  0.20556148237E+04  0.80124891027E+02 0.  0.
        254    2    1    2    0    0 -0.55377675071E+02  0.19949594238E+04 -0.30009935018E+03  0.22142980170E+04  0.91111267074E+03 0.  0.
         23    2    4    4    0    0  0.29613285263E+03  0.58031506803E+03 -0.36472431387E+03  0.75230747149E+03  0.92100282003E+02 0.  0.
         23    2    4    4    0    0 -0.35151052770E+03  0.14146443558E+04  0.64624963687E+02  0.14619905456E+04  0.91987308671E+02 0.  0.
          4    1    3    3  502    0  0.62202918128E+02 -0.97173065377E+03  0.21734554696E+03  0.99768168936E+03  0.00000000000E+00 0. -1.
         -3    1    3    3    0  502 -0.68252430570E+01 -0.10232287700E+04  0.26866115635E+03  0.10579331343E+04  0.00000000000E+00 0.  1.
         11    1    5    5    0    0  0.26690299568E+03  0.54285281991E+03 -0.30964126035E+03  0.67956169941E+03  0.00000000000E+00 0. -1.
        -11    1    5    5    0    0  0.29229856948E+02  0.37462248115E+02 -0.55083053512E+02  0.72745772078E+02  0.00000000000E+00 0.  1.
          3    1    6    6  503    0 -0.35222197107E+03  0.14060207229E+04  0.71058883597E+02  0.14512077573E+04  0.00000000000E+00 0. -1.
         -3    1    6    6    0  503  0.71144337589E+00  0.86236329073E+01 -0.64339199105E+01  0.10782788211E+02  0.00000000000E+00 0.  1.
<mgrwt>
<rscale>  0 0.42658638E+04</rscale>
<asrwt>0</asrwt>
<pdfrwt beam="1">  1        2 0.34275540E+00 0.42658638E+04</pdfrwt>
<pdfrwt beam="2">  1       -1 0.31415427E+00 0.42658638E+04</pdfrwt>
<totfact> 0.11687231E-01</totfact>
</mgrwt>
</event>
<event>
12    6  0.9533401E-008  0.1056777E+04  0.7818608E-02  0.9248375E-01
         -3   -1    0    0    0  501 -0.00000000000E+00  0.00000000000E+00  0.90796900713E+02  0.90796900713E+02  0.00000000000E+00 0.  1.
          2   -1    0    0  501    0  0.00000000000E+00 -0.00000000000E+00 -0.30749326719E+04  0.30749326719E+04  0.00000000000E+00 0. -1.
         24    2    1    2    0    0 -0.63224643845E+02 -0.72592961775E+02 -0.64437775948E+03  0.65637981084E+03  0.79653408381E+02 0.  0.
        254    2    1    2    0    0  0.63224643845E+02  0.72592961775E+02 -0.23397580117E+04  0.25093497618E+04  0.90172145361E+03 0.  0.
         23    2    4    4    0    0  0.33706339635E+03 -0.28103574328E+03 -0.11747145066E+04  0.12578882018E+04  0.98669824022E+02 0.  0.
         23    2    4    4    0    0 -0.27383875250E+03  0.35362870505E+03 -0.11650435051E+04  0.12514615600E+04  0.93748300180E+02 0.  0.
          4    1    3    3  502    0 -0.43944519192E+02 -0.80549772546E+02 -0.60403221702E+03  0.61096178753E+03  0.00000000000E+00 0. -1.
         -3    1    3    3    0  502 -0.19280124653E+02  0.79568107713E+01 -0.40345542465E+02  0.45418023306E+02  0.00000000000E+00 0.  1.
         11    1    5    5    0    0  0.16995860744E+03 -0.78602103195E+02 -0.47895331094E+03  0.51425722448E+03  0.00000000000E+00 0.  1.
        -11    1    5    5    0    0  0.16710478890E+03 -0.20243364008E+03 -0.69576119561E+03  0.74363097732E+03  0.00000000000E+00 0. -1.
          4    1    6    6  503    0 -0.15176297215E+03  0.26685585355E+03 -0.76487354324E+03  0.82418176601E+03  0.00000000000E+00 0. -1.
         -4    1    6    6    0  503 -0.12207578035E+03  0.86772851508E+02 -0.40016996191E+03  0.42727979395E+03  0.00000000000E+00 0.  1.
<mgrwt>
<rscale>  0 0.10567769E+04</rscale>
<asrwt>0</asrwt>
<pdfrwt beam="1">  1        2 0.47306644E+00 0.10567769E+04</pdfrwt>
<pdfrwt beam="2">  1       -3 0.13968758E-01 0.10567769E+04</pdfrwt>
<totfact> 0.45147452E+01</totfact>
</mgrwt>
</event>
<event>
12    6  0.9533401E-008  0.3637531E+04  0.7818608E-02  0.8081948E-01
         -1   -1    0    0    0  501 -0.00000000000E+00  0.00000000000E+00  0.21660740190E+04  0.21660740190E+04  0.00000000000E+00 0.  1.
          2   -1    0    0  501    0  0.00000000000E+00 -0.00000000000E+00 -0.15271444912E+04  0.15271444912E+04  0.00000000000E+00 0. -1.
         24    2    1    2    0    0 -0.63652924587E+03 -0.11491909609E+04 -0.80556093719E+03  0.15431761209E+04  0.81576780459E+02 0.  0.
        254    2    1    2    0    0  0.63652924587E+03  0.11491909609E+04  0.14444904650E+04  0.21500423893E+04  0.90017788627E+03 0.  0.
         23    2    4    4    0    0  0.72726386867E+03  0.66630983035E+03  0.56963907460E+03  0.11425175397E+04  0.89309173915E+02 0.  0.
         23    2    4    4    0    0 -0.90734622795E+02  0.48288113057E+03  0.87485139040E+03  0.10075248496E+04  0.91292985909E+02 0.  0.
          2    1    3    3  502    0 -0.57065813587E+03 -0.97662055114E+03 -0.70541783915E+03  0.13330614152E+04  0.00000000000E+00 0. -1.
         -1    1    3    3    0  502 -0.65871110004E+02 -0.17257040978E+03 -0.10014309804E+03  0.21011470570E+03  0.00000000000E+00 0.  1.
         11    1    5    5    0    0  0.33934040791E+03  0.35536339790E+03  0.24817938560E+03  0.55047984926E+03  0.00000000000E+00 0.  1.
        -11    1    5    5    0    0  0.38792346076E+03  0.31094643245E+03  0.32145968900E+03  0.59203769045E+03  0.00000000000E+00 0. -1.
          3    1    6    6  503    0  0.16801791306E+01  0.28580879706E+01  0.39610979475E+02  0.39749482559E+02  0.00000000000E+00 0. -1.
         -3    1    6    6    0  503 -0.92414801925E+02  0.48002304260E+03  0.83524041092E+03  0.96777536705E+03  0.00000000000E+00 0.  1.
<mgrwt>
<rscale>  0 0.36375310E+04</rscale>
<asrwt>0</asrwt>
<pdfrwt beam="1">  1        2 0.23494531E+00 0.36375310E+04</pdfrwt>
<pdfrwt beam="2">  1       -1 0.33324216E+00 0.36375310E+04</pdfrwt>
<totfact> 0.22716340E-01</totfact>
</mgrwt>
</event>
<event>
12    6  0.9533401E-008  0.2214498E+04  0.7818608E-02  0.8512418E-01
          2   -1    0    0  501    0  0.00000000000E+00  0.00000000000E+00  0.25429542604E+04  0.25429542604E+04  0.00000000000E+00 0. -1.
         -1   -1    0    0    0  501 -0.00000000000E+00 -0.00000000000E+00 -0.48211672202E+03  0.48211672202E+03  0.00000000000E+00 0.  1.
         24    2    1    2    0    0 -0.27023343344E+03  0.81199303874E+03  0.12693384092E+04  0.15329288707E+04  0.79322898177E+02 0.  0.
        254    2    1    2    0    0  0.27023343344E+03 -0.81199303874E+03  0.79149912919E+03  0.14921421117E+04  0.93148183366E+03 0.  0.
         23    2    4    4    0    0 -0.11636316749E+03 -0.84791409639E+03  0.47109235791E+03  0.98097259214E+03  0.88772266172E+02 0.  0.
         23    2    4    4    0    0  0.38659660093E+03  0.35921057650E+02  0.32040677128E+03  0.51116951955E+03  0.88806105635E+02 0.  0.
          2    1    3    3  502    0 -0.45665064237E+02  0.12412748852E+03  0.25061549391E+03  0.28337441184E+03  0.00000000000E+00 0. -1.
         -1    1    3    3    0  502 -0.22456836920E+03  0.68786555022E+03  0.10187229153E+04  0.12495544589E+04  0.00000000000E+00 0.  1.
         11    1    5    5    0    0 -0.23545317716E+02 -0.36080531216E+03  0.15844208086E+03  0.39476416790E+03  0.00000000000E+00 0.  1.
        -11    1    5    5    0    0 -0.92817849772E+02 -0.48710878422E+03  0.31265027705E+03  0.58620842423E+03  0.00000000000E+00 0. -1.
          4    1    6    6  503    0  0.76251685394E+01  0.10898117035E+02  0.30811908745E+02  0.33560182816E+02  0.00000000000E+00 0.  1.
         -4    1    6    6    0  503  0.37897143239E+03  0.25022940616E+02  0.28959486254E+03  0.47760933673E+03  0.00000000000E+00 0. -1.
<mgrwt>
<rscale>  0 0.22144984E+04</rscale>
<asrwt>0</asrwt>
<pdfrwt beam="1">  1        2 0.39122372E+00 0.22144984E+04</pdfrwt>
<pdfrwt beam="2">  1       -1 0.74171805E-01 0.22144984E+04</pdfrwt>
<totfact> 0.62486151E+00</totfact>
</mgrwt>
</event>
<event>
12    6  0.9533401E-008  0.2643530E+04  0.7818608E-02  0.8353564E-01
          2   -1    0    0  501    0  0.00000000000E+00  0.00000000000E+00  0.18568575744E+04  0.18568575744E+04  0.00000000000E+00 0. -1.
         -1   -1    0    0    0  501 -0.00000000000E+00 -0.00000000000E+00 -0.94087077031E+03  0.94087077031E+03  0.00000000000E+00 0.  1.
         24    2    1    2    0    0  0.49937584635E+03  0.28204359007E+03  0.15134608741E+04  0.16204015388E+04  0.78819457039E+02 0.  0.
        254    2    1    2    0    0 -0.49937584635E+03 -0.28204359007E+03 -0.59747407006E+03  0.11773268059E+04  0.83677853752E+03 0.  0.
         23    2    4    4    0    0  0.13840823265E+03 -0.26550453099E+03 -0.22869123026E+02  0.31394281836E+03  0.91583849945E+02 0.  0.
         23    2    4    4    0    0 -0.63778407900E+03 -0.16539059080E+02 -0.57460494703E+03  0.86338398753E+03  0.90658661262E+02 0.  0.
          2    1    3    3  502    0  0.48605224502E+03  0.25729514105E+03  0.14188512794E+04  0.15217051381E+04  0.00000000000E+00 0. -1.
         -1    1    3    3    0  502  0.13323601337E+02  0.24748449022E+02  0.94609594758E+02  0.98696400653E+02  0.00000000000E+00 0.  1.
         11    1    5    5    0    0  0.42447258629E+02 -0.14705887427E+03  0.22933075530E+02  0.15477082483E+03  0.00000000000E+00 0.  1.
        -11    1    5    5    0    0  0.95960974019E+02 -0.11844565673E+03 -0.45802198556E+02  0.15917199353E+03  0.00000000000E+00 0. -1.
          3    1    6    6  503    0 -0.36418723650E+03  0.13427333687E+00 -0.26833233849E+03  0.45236556582E+03  0.00000000000E+00 0. -1.
         -3    1    6    6    0  503 -0.27359684250E+03 -0.16673332417E+02 -0.30627260854E+03  0.41101842170E+03  0.00000000000E+00 0.  1.
<mgrwt>
<rscale>  0 0.26435302E+04</rscale>
<asrwt>0</asrwt>
<pdfrwt beam="1">  1        2 0.28567040E+00 0.26435302E+04</pdfrwt>
<pdfrwt beam="2">  1       -1 0.14474935E+00 0.26435302E+04</pdfrwt>
<totfact> 0.30893652E+00</totfact>
</mgrwt>
</event>
<event>
12    6  0.9533401E-008  0.1759046E+04  0.7818608E-02  0.8728387E-01
          2   -1    0    0  501    0  0.00000000000E+00  0.00000000000E+00  0.19366203734E+04  0.19366203734E+04  0.00000000000E+00 0. -1.
         -1   -1    0    0    0  501 -0.00000000000E+00 -0.00000000000E+00 -0.39943857381E+03  0.39943857381E+03  0.00000000000E+00 0.  1.
         24    2    1    2    0    0 -0.16253208987E+03 -0.31237542488E+03  0.12926480308E+04  0.13429230921E+04  0.92241062188E+02 0.  0.
        254    2    1    2    0    0  0.16253208987E+03  0.31237542488E+03  0.24453376881E+03  0.99313585508E+03  0.89583869991E+03 0.  0.
         23    2    4    4    0    0  0.74450892265E+02  0.58564942659E+03 -0.10518701738E+02  0.59762830123E+03  0.92307947216E+02 0.  0.
         23    2    4    4    0    0  0.88081197607E+02 -0.27327400172E+03  0.25505247055E+03  0.39550755385E+03  0.94538272865E+02 0.  0.
          2    1    3    3  502    0 -0.88740959917E+02 -0.22178180568E+03  0.72382587336E+03  0.76222439100E+03  0.00000000000E+00 0. -1.
         -1    1    3    3    0  502 -0.73791129954E+02 -0.90593619193E+02  0.56882215742E+03  0.58069870111E+03  0.00000000000E+00 0.  1.
         11    1    5    5    0    0  0.70082282501E+01  0.39756797478E+03 -0.18881735463E+01  0.39763422266E+03  0.00000000000E+00 0. -1.
        -11    1    5    5    0    0  0.67442664015E+02  0.18808145181E+03 -0.86305281915E+01  0.19999407857E+03  0.00000000000E+00 0.  1.
          2    1    6    6  503    0  0.83996081108E+02 -0.16546704205E+03  0.11348135495E+03  0.21751483069E+03  0.00000000000E+00 0. -1.
         -2    1    6    6    0  503  0.40851164987E+01 -0.10780695966E+03  0.14157111560E+03  0.17799272317E+03  0.00000000000E+00 0.  1.
<mgrwt>
<rscale>  0 0.17590462E+04</rscale>
<asrwt>0</asrwt>
<pdfrwt beam="1">  1        2 0.29794159E+00 0.17590462E+04</pdfrwt>
<pdfrwt beam="2">  1       -1 0.61452090E-01 0.17590462E+04</pdfrwt>
<totfact> 0.20993151E+01</totfact>
</mgrwt>
</event>
<event>
12    6  0.9533401E-008  0.2195840E+04  0.7818608E-02  0.8520162E-01
          2   -1    0    0  501    0  0.00000000000E+00  0.00000000000E+00  0.19071501452E+04  0.19071501452E+04  0.00000000000E+00 0. -1.
         -1   -1    0    0    0  501 -0.00000000000E+00 -0.00000000000E+00 -0.63205715789E+03  0.63205715789E+03  0.00000000000E+00 0.  1.
         24    2    1    2    0    0 -0.14397300461E+03 -0.28275954941E+01 -0.51399225554E+03  0.53897142421E+03  0.74605200906E+02 0.  0.
        254    2    1    2    0    0  0.14397300461E+03  0.28275954941E+01  0.17890852428E+04  0.20002358789E+04  0.88282577195E+03 0.  0.
         23    2    4    4    0    0 -0.19114477541E+02  0.34966123521E+03  0.33317974095E+03  0.49196375136E+03  0.91603767474E+02 0.  0.
         23    2    4    4    0    0  0.16308748215E+03 -0.34683363972E+03  0.14559055019E+04  0.15082721275E+04  0.91284608187E+02 0.  0.
          2    1    3    3  502    0 -0.19261750252E+02  0.16258465870E+02 -0.31968722187E+02  0.40710587487E+02  0.00000000000E+00 0. -1.
         -1    1    3    3    0  502 -0.12471125436E+03 -0.19086061364E+02 -0.48202353336E+03  0.49826083672E+03  0.00000000000E+00 0.  1.
         11    1    5    5    0    0  0.35333904915E+02  0.12743728331E+03  0.13919650270E+03  0.19200107390E+03  0.00000000000E+00 0.  1.
        -11    1    5    5    0    0 -0.54448382455E+02  0.22222395190E+03  0.19398323824E+03  0.29996267746E+03  0.00000000000E+00 0. -1.
          2    1    6    6  503    0  0.92658723557E+02 -0.15116596589E+03  0.51523102354E+03  0.54488512175E+03  0.00000000000E+00 0. -1.
         -2    1    6    6    0  503  0.70428758595E+02 -0.19566767383E+03  0.94067447837E+03  0.96338700576E+03  0.00000000000E+00 0.  1.
<mgrwt>
<rscale>  0 0.21958396E+04</rscale>
<asrwt>0</asrwt>
<pdfrwt beam="1">  1        2 0.29340771E+00 0.21958396E+04</pdfrwt>
<pdfrwt beam="2">  1       -1 0.97239563E-01 0.21958396E+04</pdfrwt>
<totfact> 0.79558710E+00</totfact>
</mgrwt>
</event>
<event>
12    6  0.9533401E-008  0.1286693E+04  0.7818608E-02  0.9040185E-01
          2   -1    0    0  501    0  0.00000000000E+00  0.00000000000E+00  0.23413276910E+04  0.23413276910E+04  0.00000000000E+00 0. -1.
         -1   -1    0    0    0  501 -0.00000000000E+00 -0.00000000000E+00 -0.17677773971E+03  0.17677773971E+03  0.00000000000E+00 0.  1.
         24    2    1    2    0    0 -0.13171265606E+03  0.20653722560E+03  0.97967158918E+03  0.10130426534E+04  0.80580057530E+02 0.  0.
        254    2    1    2    0    0  0.13171265606E+03 -0.20653722560E+03  0.11848783621E+04  0.15050627773E+04  0.89513763258E+03 0.  0.
         23    2    4    4    0    0 -0.26216840791E+03 -0.32243979243E+03  0.90381418214E+03  0.99892966379E+03  0.90998370942E+02 0.  0.
         23    2    4    4    0    0  0.39388106397E+03  0.11590256683E+03  0.28106417995E+03  0.50613311348E+03  0.92725173278E+02 0.  0.
          2    1    3    3  502    0 -0.14304079632E+03  0.19272533545E+03  0.91055734238E+03  0.94165726148E+03  0.00000000000E+00 0. -1.
         -1    1    3    3    0  502  0.11328140261E+02  0.13811890149E+02  0.69114246805E+02  0.71385391942E+02  0.00000000000E+00 0.  1.
         11    1    5    5    0    0 -0.89143355447E+02 -0.16336686664E+03  0.33027955631E+03  0.37910401772E+03  0.00000000000E+00 0.  1.
        -11    1    5    5    0    0 -0.17302505247E+03 -0.15907292580E+03  0.57353462584E+03  0.61982564608E+03  0.00000000000E+00 0. -1.
          4    1    6    6  503    0  0.35221401773E+03  0.93612943544E+02  0.27874633748E+03  0.45882198960E+03  0.00000000000E+00 0.  1.
         -4    1    6    6    0  503  0.41667046246E+02  0.22289623291E+02  0.23178424667E+01  0.47311123882E+02  0.00000000000E+00 0. -1.
<mgrwt>
<rscale>  0 0.12866928E+04</rscale>
<asrwt>0</asrwt>
<pdfrwt beam="1">  1        2 0.36020424E+00 0.12866928E+04</pdfrwt>
<pdfrwt beam="2">  1       -1 0.27196577E-01 0.12866928E+04</pdfrwt>
<totfact> 0.58320715E+01</totfact>
</mgrwt>
</event>
<event>
12    6  0.9533401E-008  0.2164945E+04  0.7818608E-02  0.8533162E-01
         -1   -1    0    0    0  501 -0.00000000000E+00  0.00000000000E+00  0.14093648199E+04  0.14093648199E+04  0.00000000000E+00 0.  1.
          2   -1    0    0  501    0  0.00000000000E+00 -0.00000000000E+00 -0.83140064845E+03  0.83140064845E+03  0.00000000000E+00 0. -1.
         24    2    1    2    0    0  0.59523226455E+02 -0.63143549044E+03 -0.41556647940E+03  0.76240129569E+03  0.79413121069E+02 0.  0.
        254    2    1    2    0    0 -0.59523226455E+02  0.63143549044E+03  0.99353065085E+03  0.14783641727E+04  0.89230245979E+03 0.  0.
         23    2    4    4    0    0  0.40237636429E+03  0.23436634443E+03  0.36575761470E+03  0.59902441224E+03  0.90649279127E+02 0.  0.
         23    2    4    4    0    0 -0.46189959075E+03  0.39706914601E+03  0.62777303615E+03  0.87933976042E+03  0.90134847233E+02 0.  0.
          2    1    3    3  502    0  0.45640960158E+02 -0.38420949600E+03 -0.20788799198E+03  0.43922369161E+03  0.00000000000E+00 0. -1.
         -1    1    3    3    0  502  0.13882266297E+02 -0.24722599444E+03 -0.20767848742E+03  0.32317760408E+03  0.00000000000E+00 0.  1.
         11    1    5    5    0    0  0.60203655411E+02  0.23129689647E+02  0.16911618176E+02  0.66674324124E+02  0.00000000000E+00 0.  1.
        -11    1    5    5    0    0  0.34217270888E+03  0.21123665478E+03  0.34884599652E+03  0.53235008812E+03  0.00000000000E+00 0. -1.
          1    1    6    6  503    0 -0.35578491255E+03  0.30664992451E+03  0.42613185678E+03  0.63419668839E+03  0.00000000000E+00 0. -1.
         -1    1    6    6    0  503 -0.10611467820E+03  0.90419221502E+02  0.20164117936E+03  0.24514307202E+03  0.00000000000E+00 0.  1.
<mgrwt>
<rscale>  0 0.21649451E+04</rscale>
<asrwt>0</asrwt>
<pdfrwt beam="1">  1        2 0.12790779E+00 0.21649451E+04</pdfrwt>
<pdfrwt beam="2">  1       -1 0.21682536E+00 0.21649451E+04</pdfrwt>
<totfact> 0.39539246E+00</totfact>
</mgrwt>
</event>
<event>
12    6  0.9533401E-008  0.1498927E+04  0.7818608E-02  0.8885167E-01
         -1   -1    0    0    0  501 -0.00000000000E+00  0.00000000000E+00  0.25898030930E+04  0.25898030930E+04  0.00000000000E+00 0.  1.
          2   -1    0    0  501    0  0.00000000000E+00 -0.00000000000E+00 -0.21688742311E+03  0.21688742311E+03  0.00000000000E+00 0. -1.
         24    2    1    2    0    0 -0.40878256982E+03 -0.24269512266E+03  0.85393008537E+03  0.98062541546E+03  0.80159233944E+02 0.  0.
        254    2    1    2    0    0  0.40878256982E+03  0.24269512266E+03  0.15189855845E+04  0.18260651007E+04  0.89509353362E+03 0.  0.
         23    2    4    4    0    0 -0.10634610019E+03  0.42150720714E+03  0.51680743660E+03  0.68154422854E+03  0.91841114108E+02 0.  0.
         23    2    4    4    0    0  0.51512867001E+03 -0.17881208447E+03  0.10021781479E+04  0.11445208721E+04  0.90750638175E+02 0.  0.
          4    1    3    3  502    0 -0.39083064010E+03 -0.20820930378E+03  0.79530995413E+03  0.91028436577E+03  0.00000000000E+00 0. -1.
         -3    1    3    3    0  502 -0.17951929715E+02 -0.34485818884E+02  0.58620131239E+02  0.70341049687E+02  0.00000000000E+00 0.  1.
         11    1    5    5    0    0 -0.70798463108E+02  0.31104347150E+03  0.31237818496E+03  0.44647574848E+03  0.00000000000E+00 0. -1.
        -11    1    5    5    0    0 -0.35547637082E+02  0.11046373564E+03  0.20442925164E+03  0.23506848007E+03  0.00000000000E+00 0.  1.
          3    1    6    6  503    0  0.40127603784E+03 -0.17375212443E+03  0.75875316310E+03  0.87573890047E+03  0.00000000000E+00 0. -1.
         -3    1    6    6    0  503  0.11385263217E+03 -0.50599600458E+01  0.24342498481E+03  0.26878197164E+03  0.00000000000E+00 0.  1.
<mgrwt>
<rscale>  0 0.14989272E+04</rscale>
<asrwt>0</asrwt>
<pdfrwt beam="1">  1        2 0.33367298E-01 0.14989272E+04</pdfrwt>
<pdfrwt beam="2">  1       -1 0.39843122E+00 0.14989272E+04</pdfrwt>
<totfact> 0.12909637E+00</totfact>
</mgrwt>
</event>
<event>
12    6  0.9533401E-008  0.1945857E+04  0.7818608E-02  0.8632361E-01
         -1   -1    0    0    0  501 -0.00000000000E+00  0.00000000000E+00  0.15724190605E+04  0.15724190605E+04  0.00000000000E+00 0.  1.
          2   -1    0    0  501    0  0.00000000000E+00 -0.00000000000E+00 -0.60199594311E+03  0.60199594311E+03  0.00000000000E+00 0. -1.
         24    2    1    2    0    0 -0.16949417471E+03  0.25873639829E+03 -0.39521526844E+03  0.50853989091E+03  0.82127420422E+02 0.  0.
        254    2    1    2    0    0  0.16949417471E+03 -0.25873639829E+03  0.13656383858E+04  0.16658751127E+04  0.90249592309E+03 0.  0.
         23    2    4    4    0    0  0.21523119057E+03 -0.54399956002E+03  0.60818490387E+03  0.84994596135E+03  0.10128807049E+03 0.  0.
         23    2    4    4    0    0 -0.45737015861E+02  0.28526316173E+03  0.75745348191E+03  0.81592915130E+03  0.92399440682E+02 0.  0.
          2    1    3    3  502    0 -0.15570721679E+03  0.25813917691E+03 -0.35343416488E+03  0.46453878301E+03  0.00000000000E+00 0. -1.
         -1    1    3    3    0  502 -0.13786957923E+02  0.59722137365E+00 -0.41781103559E+02  0.44001107904E+02  0.00000000000E+00 0.  1.
         11    1    5    5    0    0  0.20926042764E+03 -0.46764227346E+03  0.48876214987E+03  0.70807320360E+03  0.00000000000E+00 0. -1.
        -11    1    5    5    0    0  0.59707629392E+01 -0.76357286552E+02  0.11942275400E+03  0.14187275775E+03  0.00000000000E+00 0.  1.
          1    1    6    6  503    0 -0.57347246540E+02  0.10720682894E+03  0.24950220918E+03  0.27754884839E+03  0.00000000000E+00 0. -1.
         -1    1    6    6    0  503  0.11610230679E+02  0.17805633279E+03  0.50795127273E+03  0.53838030292E+03  0.00000000000E+00 0.  1.
<mgrwt>
<rscale>  0 0.19458570E+04</rscale>
<asrwt>0</asrwt>
<pdfrwt beam="1">  1        2 0.92614761E-01 0.19458570E+04</pdfrwt>
<pdfrwt beam="2">  1       -1 0.24191062E+00 0.19458570E+04</pdfrwt>
<totfact> 0.41459744E+00</totfact>
</mgrwt>
</event>
<event>
12    6  0.9533401E-008  0.2356112E+04  0.7818608E-02  0.8456120E-01
         -1   -1    0    0    0  501 -0.00000000000E+00  0.00000000000E+00  0.54471556443E+03  0.54471556443E+03  0.00000000000E+00 0.  1.
          2   -1    0    0  501    0  0.00000000000E+00 -0.00000000000E+00 -0.25477805406E+04  0.25477805406E+04  0.00000000000E+00 0. -1.
         24    2    1    2    0    0  0.55083511796E+02 -0.98107254018E+03 -0.11318851284E+04  0.15010470312E+04  0.80254119927E+02 0.  0.
        254    2    1    2    0    0 -0.55083511796E+02  0.98107254018E+03 -0.87117984776E+03  0.15914490738E+04  0.89900962447E+03 0.  0.
         23    2    4    4    0    0  0.17986727140E+03  0.17488990157E+03  0.11550137055E+03  0.29258843430E+03  0.96585259209E+02 0.  0.
         23    2    4    4    0    0 -0.23495078320E+03  0.80618263861E+03 -0.98668121831E+03  0.12988606395E+04  0.91470305982E+02 0.  0.
          4    1    3    3  502    0  0.17819842271E+02 -0.51980965023E+02 -0.80622316817E+02  0.97568055593E+02  0.00000000000E+00 0. -1.
         -3    1    3    3    0  502  0.37263669526E+02 -0.92909157516E+03 -0.10512628116E+04  0.14034789756E+04  0.00000000000E+00 0.  1.
         11    1    5    5    0    0  0.16479883442E+03  0.16842661406E+03  0.72458909403E+02  0.24652884963E+03  0.00000000000E+00 0.  1.
        -11    1    5    5    0    0  0.15068436977E+02  0.64632875144E+01  0.43042461145E+02  0.46059584669E+02  0.00000000000E+00 0. -1.
          4    1    6    6  503    0 -0.10943460754E+02  0.96269523591E+02 -0.15395159092E+03  0.18190292151E+03  0.00000000000E+00 0. -1.
         -4    1    6    6    0  503 -0.22400732244E+03  0.70991311502E+03 -0.83272962739E+03  0.11169577180E+04  0.00000000000E+00 0.  1.
<mgrwt>
<rscale>  0 0.23561118E+04</rscale>
<asrwt>0</asrwt>
<pdfrwt beam="1">  1        2 0.39196622E+00 0.23561118E+04</pdfrwt>
<pdfrwt beam="2">  1       -1 0.83802398E-01 0.23561118E+04</pdfrwt>
<totfact> 0.47328385E+00</totfact>
</mgrwt>
</event>
<event>
12    6  0.9533401E-008  0.1568201E+04  0.7818608E-02  0.8840325E-01
          4   -1    0    0  501    0  0.00000000000E+00  0.00000000000E+00  0.11325209169E+04  0.11325209169E+04  0.00000000000E+00 0. -1.
         -3   -1    0    0    0  501 -0.00000000000E+00 -0.00000000000E+00 -0.54287178992E+03  0.54287178992E+03  0.00000000000E+00 0.  1.
         24    2    1    2    0    0 -0.44533101948E+03 -0.15036160969E+03  0.44996076561E+03  0.65535601900E+03  0.78092832347E+02 0.  0.
        254    2    1    2    0    0  0.44533101948E+03  0.15036160969E+03  0.13968836135E+03  0.10200366878E+04  0.89444601603E+03 0.  0.
         23    2    4    4    0    0  0.56083744208E+03  0.41782231024E+03  0.13735708212E+03  0.71807096243E+03  0.87434659653E+02 0.  0.
         23    2    4    4    0    0 -0.11550642260E+03 -0.26746070055E+03  0.23312792356E+01  0.30196572537E+03  0.79378236537E+02 0.  0.
          4    1    3    3  502    0 -0.44641214931E+03 -0.15198800679E+03  0.43921115436E+03  0.64443044572E+03  0.00000000000E+00 0. -1.
         -3    1    3    3    0  502  0.10811298350E+01  0.16263970955E+01  0.10749611252E+02  0.10925573271E+02  0.00000000000E+00 0.  1.
         11    1    5    5    0    0  0.45414295223E+03  0.36182352116E+03  0.85615429767E+02  0.58693447960E+03  0.00000000000E+00 0.  1.
        -11    1    5    5    0    0  0.10669448985E+03  0.55998789078E+02  0.51741652350E+02  0.13113648283E+03  0.00000000000E+00 0. -1.
          3    1    6    6  503    0  0.61401763501E+01 -0.86101116094E+01 -0.11498195174E+02  0.15621916650E+02  0.00000000000E+00 0. -1.
         -3    1    6    6    0  503 -0.12164659895E+03 -0.25885058894E+03  0.13829474410E+02  0.28634380872E+03  0.00000000000E+00 0.  1.
<mgrwt>
<rscale>  0 0.15682011E+04</rscale>
<asrwt>0</asrwt>
<pdfrwt beam="1">  1        4 0.17423399E+00 0.15682011E+04</pdfrwt>
<pdfrwt beam="2">  1       -3 0.83518737E-01 0.15682011E+04</pdfrwt>
<totfact> 0.57250635E-01</totfact>
</mgrwt>
</event>
<event>
12    6  0.9533401E-008  0.2494777E+04  0.7818608E-02  0.8404849E-01
         -1   -1    0    0    0  501 -0.00000000000E+00  0.00000000000E+00  0.62901744272E+03  0.62901744272E+03  0.00000000000E+00 0.  1.
          2   -1    0    0  501    0  0.00000000000E+00 -0.00000000000E+00 -0.24736648815E+04  0.24736648815E+04  0.00000000000E+00 0. -1.
         24    2    1    2    0    0  0.14624099584E+03  0.10775112155E+03  0.52519166403E+03  0.56159374290E+03  0.81021694898E+02 0.  0.
        254    2    1    2    0    0 -0.14624099584E+03 -0.10775112155E+03 -0.23698391028E+04  0.25410885813E+04  0.89888657340E+03 0.  0.
         23    2    4    4    0    0  0.12411189075E+03  0.28964767444E+03 -0.15664849607E+04  0.16000976326E+04  0.84485295694E+02 0.  0.
         23    2    4    4    0    0 -0.27035288659E+03 -0.39739879599E+03 -0.80335414214E+03  0.94099094869E+03  0.95234455366E+02 0.  0.
          2    1    3    3  502    0  0.25962216785E+01  0.34916687481E+02  0.62033812880E+02  0.71232782987E+02  0.00000000000E+00 0. -1.
         -1    1    3    3    0  502  0.14364477416E+03  0.72834434069E+02  0.46315785115E+03  0.49036095992E+03  0.00000000000E+00 0.  1.
         11    1    5    5    0    0 -0.43101053418E+01  0.44136579394E+02 -0.13667230425E+03  0.14368692842E+03  0.00000000000E+00 0.  1.
        -11    1    5    5    0    0  0.12842199609E+03  0.24551109504E+03 -0.14298126564E+04  0.14564107042E+04  0.00000000000E+00 0. -1.
          3    1    6    6  503    0 -0.24917365558E+03 -0.36997017333E+03 -0.68305463892E+03  0.81579965650E+03  0.00000000000E+00 0. -1.
         -3    1    6    6    0  503 -0.21179231008E+02 -0.27428622660E+02 -0.12029950322E+03  0.12519129220E+03  0.00000000000E+00 0.  1.
<mgrwt>
<rscale>  0 0.24947772E+04</rscale>
<asrwt>0</asrwt>
<pdfrwt beam="1">  1        2 0.38056383E+00 0.24947772E+04</pdfrwt>
<pdfrwt beam="2">  1       -1 0.96771913E-01 0.24947772E+04</pdfrwt>
<totfact> 0.37573708E+00</totfact>
</mgrwt>
</event>
<event>
12    6  0.9533401E-008  0.1694719E+04  0.7818608E-02  0.8764382E-01
          2   -1    0    0  501    0  0.00000000000E+00  0.00000000000E+00  0.12414832743E+04  0.12414832743E+04  0.00000000000E+00 0. -1.
         -1   -1    0    0    0  501 -0.00000000000E+00 -0.00000000000E+00 -0.57835510889E+03  0.57835510889E+03  0.00000000000E+00 0.  1.
         24    2    1    2    0    0  0.28795838294E+03 -0.40387072611E+03  0.60536466698E+03  0.78679340967E+03  0.80906710191E+02 0.  0.
        254    2    1    2    0    0 -0.28795838294E+03  0.40387072611E+03  0.57763498443E+02  0.10330449735E+04  0.90433052690E+03 0.  0.
         23    2    4    4    0    0  0.24346698124E+03  0.40379800469E+03  0.10619923552E+03  0.49164944723E+03  0.90066096747E+02 0.  0.
         23    2    4    4    0    0 -0.53142536418E+03  0.72721415593E-01 -0.48435737079E+02  0.54139552631E+03  0.91379277170E+02 0.  0.
          4    1    3    3  502    0  0.20302237222E+03 -0.33992243612E+03  0.46558486125E+03  0.61117477797E+03  0.00000000000E+00 0. -1.
         -1    1    3    3    0  502  0.84936010722E+02 -0.63948289988E+02  0.13977980573E+03  0.17561863170E+03  0.00000000000E+00 0.  1.
         11    1    5    5    0    0  0.22240837491E+03  0.37184647390E+03  0.12217731887E+03  0.45018061112E+03  0.00000000000E+00 0. -1.
        -11    1    5    5    0    0  0.21058606329E+02  0.31951530792E+02 -0.15978083346E+02  0.41468836105E+02  0.00000000000E+00 0.  1.
          1    1    6    6  503    0 -0.29501746066E+03  0.96616140421E+00  0.18780231021E+02  0.29561619143E+03  0.00000000000E+00 0. -1.
         -1    1    6    6    0  503 -0.23640790353E+03 -0.89343998862E+00 -0.67215968100E+02  0.24577933488E+03  0.00000000000E+00 0.  1.
<mgrwt>
<rscale>  0 0.16947191E+04</rscale>
<asrwt>0</asrwt>
<pdfrwt beam="1">  1        2 0.19099743E+00 0.16947191E+04</pdfrwt>
<pdfrwt beam="2">  1       -1 0.88977709E-01 0.16947191E+04</pdfrwt>
<totfact> 0.24061291E+01</totfact>
</mgrwt>
</event>
<event>
12    6  0.9533401E-008  0.2540023E+04  0.7818608E-02  0.8388864E-01
         -1   -1    0    0    0  501 -0.00000000000E+00  0.00000000000E+00  0.12688708563E+04  0.12688708563E+04  0.00000000000E+00 0.  1.
          2   -1    0    0  501    0  0.00000000000E+00 -0.00000000000E+00 -0.12711528417E+04  0.12711528417E+04  0.00000000000E+00 0. -1.
         24    2    1    2    0    0  0.10086074551E+04 -0.46220430076E+03  0.43316227640E+02  0.11132935279E+04  0.81390229250E+02 0.  0.
        254    2    1    2    0    0 -0.10086074551E+04  0.46220430076E+03 -0.45598213005E+02  0.14267301701E+04  0.89585599682E+03 0.  0.
         23    2    4    4    0    0 -0.35051567385E+03  0.46410928279E+03  0.31587768162E+03  0.66987858798E+03  0.10344055738E+03 0.  0.
         23    2    4    4    0    0 -0.65809178127E+03 -0.19049820282E+01 -0.36147589462E+03  0.75685158211E+03  0.95242182949E+02 0.  0.
          2    1    3    3  502    0  0.78379819254E+02 -0.57504349827E+02  0.15683546309E+02  0.98468878028E+02  0.00000000000E+00 0. -1.
         -1    1    3    3    0  502  0.93022763587E+03 -0.40469995093E+03  0.27632681331E+02  0.10148246498E+04  0.00000000000E+00 0.  1.
         11    1    5    5    0    0 -0.23788815876E+03  0.25615818352E+03  0.14675847996E+03  0.37913828942E+03  0.00000000000E+00 0. -1.
        -11    1    5    5    0    0 -0.11262751509E+03  0.20795109926E+03  0.16911920165E+03  0.29074029856E+03  0.00000000000E+00 0.  1.
          4    1    6    6  503    0 -0.44885706430E+03 -0.44708798174E+02 -0.25595992563E+03  0.51863959002E+03  0.00000000000E+00 0. -1.
         -4    1    6    6    0  503 -0.20923471697E+03  0.42803816146E+02 -0.10551596899E+03  0.23821199209E+03  0.00000000000E+00 0.  1.
<mgrwt>
<rscale>  0 0.25400227E+04</rscale>
<asrwt>0</asrwt>
<pdfrwt beam="1">  1        2 0.19556198E+00 0.25400227E+04</pdfrwt>
<pdfrwt beam="2">  1       -1 0.19521090E+00 0.25400227E+04</pdfrwt>
<totfact> 0.28285883E+00</totfact>
</mgrwt>
</event>
<event>
12    6  0.9533401E-008  0.2842691E+04  0.7818608E-02  0.8290136E-01
          2   -1    0    0  501    0  0.00000000000E+00  0.00000000000E+00  0.14205072391E+04  0.14205072391E+04  0.00000000000E+00 0. -1.
         -1   -1    0    0    0  501 -0.00000000000E+00 -0.00000000000E+00 -0.14221841502E+04  0.14221841502E+04  0.00000000000E+00 0.  1.
         24    2    1    2    0    0  0.12651130918E+04  0.13370152050E+03 -0.11045473684E+03  0.12791976912E+04  0.75889739525E+02 0.  0.
        254    2    1    2    0    0 -0.12651130918E+04 -0.13370152050E+03  0.10877782582E+03  0.15634936981E+04  0.90238168027E+03 0.  0.
         23    2    4    4    0    0 -0.65928865020E+03  0.17141201884E+03  0.42619240048E+03  0.80897015127E+03  0.93536831918E+02 0.  0.
         23    2    4    4    0    0 -0.60582444163E+03 -0.30511353934E+03 -0.31741457466E+03  0.75452354683E+03  0.91849031311E+02 0.  0.
          2    1    3    3  502    0  0.66283504064E+03  0.78320335056E+02 -0.95071441469E+02  0.67418316870E+03  0.00000000000E+00 0. -1.
         -1    1    3    3    0  502  0.60227805120E+03  0.55381185442E+02 -0.15383295373E+02  0.60501452250E+03  0.00000000000E+00 0.  1.
         11    1    5    5    0    0 -0.56939361961E+03  0.12589211286E+03  0.33196218465E+03  0.67101178095E+03  0.00000000000E+00 0.  1.
        -11    1    5    5    0    0 -0.89895030593E+02  0.45519905981E+02  0.94230215832E+02  0.13795837032E+03  0.00000000000E+00 0. -1.
          4    1    6    6  503    0 -0.19865380429E+02 -0.32689954447E+02 -0.20181177807E+02  0.43249813861E+02  0.00000000000E+00 0. -1.
         -4    1    6    6    0  503 -0.58595906120E+03 -0.27242358489E+03 -0.29723339685E+03  0.71127373297E+03  0.00000000000E+00 0.  1.
<mgrwt>
<rscale>  0 0.28426909E+04</rscale>
<asrwt>0</asrwt>
<pdfrwt beam="1">  1        2 0.21853958E+00 0.28426909E+04</pdfrwt>
<pdfrwt beam="2">  1       -1 0.21879756E+00 0.28426909E+04</pdfrwt>
<totfact> 0.15595323E+00</totfact>
</mgrwt>
</event>
<event>
12    6  0.9533401E-008  0.2939252E+04  0.7818608E-02  0.8261294E-01
         -1   -1    0    0    0  501 -0.00000000000E+00  0.00000000000E+00  0.10433187368E+04  0.10433187368E+04  0.00000000000E+00 0.  1.
          2   -1    0    0  501    0  0.00000000000E+00 -0.00000000000E+00 -0.20701249403E+04  0.20701249403E+04  0.00000000000E+00 0. -1.
         24    2    1    2    0    0  0.21295098406E+03 -0.78831240464E+03  0.64825934169E+03  0.10456644403E+04  0.79933589180E+02 0.  0.
        254    2    1    2    0    0 -0.21295098406E+03  0.78831240464E+03 -0.16750655452E+04  0.20677792368E+04  0.89614832626E+03 0.  0.
         23    2    4    4    0    0 -0.32083336761E+03  0.23997253825E+03 -0.13568345615E+04  0.14176976057E+04  0.91354283057E+02 0.  0.
         23    2    4    4    0    0  0.10788238355E+03  0.54833986639E+03 -0.31823098363E+03  0.65008163107E+03  0.94973419273E+02 0.  0.
          2    1    3    3  502    0  0.50188704928E+01 -0.62828282179E+02  0.28797049954E+02  0.69295398034E+02  0.00000000000E+00 0. -1.
         -3    1    3    3    0  502  0.20793211357E+03 -0.72548412246E+03  0.61946229174E+03  0.97636904226E+03  0.00000000000E+00 0.  1.
         11    1    5    5    0    0 -0.16575473877E+02  0.39979364863E+02 -0.21146324872E+03  0.21584670836E+03  0.00000000000E+00 0. -1.
        -11    1    5    5    0    0 -0.30425789373E+03  0.19999317339E+03 -0.11453713128E+04  0.12018508974E+04  0.00000000000E+00 0.  1.
          1    1    6    6  503    0  0.34256060413E+02  0.11929703925E+03 -0.29060628601E+02  0.12747463035E+03  0.00000000000E+00 0. -1.
         -1    1    6    6    0  503  0.73626323136E+02  0.42904282714E+03 -0.28917035503E+03  0.52260700072E+03  0.00000000000E+00 0.  1.
<mgrwt>
<rscale>  0 0.29392517E+04</rscale>
<asrwt>0</asrwt>
<pdfrwt beam="1">  1        2 0.31848076E+00 0.29392517E+04</pdfrwt>
<pdfrwt beam="2">  1       -1 0.16051058E+00 0.29392517E+04</pdfrwt>
<totfact> 0.17305626E+00</totfact>
</mgrwt>
</event>
<event>
12    6  0.9533401E-008  0.1468632E+04  0.7818608E-02  0.8905584E-01
          2   -1    0    0  501    0  0.00000000000E+00  0.00000000000E+00  0.13833234517E+04  0.13833234517E+04  0.00000000000E+00 0. -1.
         -1   -1    0    0    0  501 -0.00000000000E+00 -0.00000000000E+00 -0.38980055519E+03  0.38980055519E+03  0.00000000000E+00 0.  1.
         24    2    1    2    0    0 -0.44526985174E+03  0.90424238121E+02  0.31579596630E+03  0.55903239687E+03  0.79676500393E+02 0.  0.
        254    2    1    2    0    0  0.44526985174E+03 -0.90424238121E+02  0.67772693018E+03  0.12140916100E+04  0.89903440526E+03 0.  0.
         23    2    4    4    0    0  0.18470269862E+03  0.30270100630E+03  0.63332887303E+03  0.73122330135E+03  0.88538516672E+02 0.  0.
         23    2    4    4    0    0  0.26056715312E+03 -0.39312524442E+03  0.44398057150E+02  0.48286830864E+03  0.93530299495E+02 0.  0.
          2    1    3    3  502    0 -0.42029414325E+03  0.64495411271E+02  0.28836575809E+03  0.51377196826E+03  0.00000000000E+00 0. -1.
         -3    1    3    3    0  502 -0.24975708490E+02  0.25928826850E+02  0.27430208206E+02  0.45260428617E+02  0.00000000000E+00 0.  1.
         11    1    5    5    0    0  0.62419198332E+02  0.70761621310E+02  0.24615351448E+03  0.26361888411E+03  0.00000000000E+00 0. -1.
        -11    1    5    5    0    0  0.12228350029E+03  0.23193938499E+03  0.38717535855E+03  0.46760441724E+03  0.00000000000E+00 0.  1.
          4    1    6    6  503    0  0.34991714543E+02 -0.11078683799E+02  0.89784515066E+01  0.37785842757E+02  0.00000000000E+00 0. -1.
         -4    1    6    6    0  503  0.22557543857E+03 -0.38204656062E+03  0.35419605643E+02  0.44508246588E+03  0.00000000000E+00 0.  1.
<mgrwt>
<rscale>  0 0.14686324E+04</rscale>
<asrwt>0</asrwt>
<pdfrwt beam="1">  1        2 0.21281899E+00 0.14686324E+04</pdfrwt>
<pdfrwt beam="2">  1       -1 0.59969317E-01 0.14686324E+04</pdfrwt>
<totfact> 0.46033522E+01</totfact>
</mgrwt>
</event>
<event>
12    6  0.9533401E-008  0.2282924E+04  0.7818608E-02  0.8484685E-01
          2   -1    0    0  501    0  0.00000000000E+00  0.00000000000E+00  0.66625428124E+03  0.66625428124E+03  0.00000000000E+00 0. -1.
         -1   -1    0    0    0  501 -0.00000000000E+00 -0.00000000000E+00 -0.19556127884E+04  0.19556127884E+04  0.00000000000E+00 0.  1.
         24    2    1    2    0    0 -0.36743513840E+03  0.35071006654E+03  0.39689397577E+03  0.64972226966E+03  0.81290023874E+02 0.  0.
        254    2    1    2    0    0  0.36743513840E+03 -0.35071006654E+03 -0.16862524830E+04  0.19721448000E+04  0.88763818316E+03 0.  0.
         23    2    4    4    0    0  0.59399882118E+03 -0.58475661198E+02 -0.76262099768E+03  0.97282727742E+03  0.92456060212E+02 0.  0.
         23    2    4    4    0    0 -0.22656368277E+03 -0.29223440534E+03 -0.92363148527E+03  0.99931752258E+03  0.93852758860E+02 0.  0.
          4    1    3    3  502    0 -0.34154229386E+03  0.32080360315E+03  0.38983646967E+03  0.60953963233E+03  0.00000000000E+00 0. -1.
         -3    1    3    3    0  502 -0.25892844541E+02  0.29906463385E+02  0.70575061048E+01  0.40182637333E+02  0.00000000000E+00 0.  1.
         11    1    5    5    0    0  0.53572895459E+02 -0.28784736753E+02 -0.55422175762E+02  0.82281430250E+02  0.00000000000E+00 0. -1.
        -11    1    5    5    0    0  0.54042592572E+03 -0.29690924446E+02 -0.70719882192E+03  0.89054584717E+03  0.00000000000E+00 0.  1.
          1    1    6    6  503    0 -0.14818194953E+03 -0.13120915223E+03 -0.56064688315E+03  0.59455753244E+03  0.00000000000E+00 0. -1.
         -1    1    6    6    0  503 -0.78381733242E+02 -0.16102525311E+03 -0.36298460212E+03  0.40475999015E+03  0.00000000000E+00 0.  1.
<mgrwt>
<rscale>  0 0.22829239E+04</rscale>
<asrwt>0</asrwt>
<pdfrwt beam="1">  1        2 0.10250066E+00 0.22829239E+04</pdfrwt>
<pdfrwt beam="2">  1       -1 0.30086350E+00 0.22829239E+04</pdfrwt>
<totfact> 0.14732168E+00</totfact>
</mgrwt>
</event>
<event>
12    6  0.9533401E-008  0.1400873E+04  0.7818608E-02  0.8953187E-01
          2   -1    0    0  501    0  0.00000000000E+00  0.00000000000E+00  0.20752707827E+04  0.20752707827E+04  0.00000000000E+00 0. -1.
         -1   -1    0    0    0  501 -0.00000000000E+00 -0.00000000000E+00 -0.23640839466E+03  0.23640839466E+03  0.00000000000E+00 0.  1.
         24    2    1    2    0    0  0.80506216038E+02 -0.13342247639E+03  0.11519323584E+04  0.11651639095E+04  0.79849668879E+02 0.  0.
        254    2    1    2    0    0 -0.80506216038E+02  0.13342247639E+03  0.68693002969E+03  0.11465152679E+04  0.90462234432E+03 0.  0.
         23    2    4    4    0    0 -0.13753416210E+03 -0.36122608078E+03  0.20036385997E+03  0.44459889155E+03  0.90125306143E+02 0.  0.
         23    2    4    4    0    0  0.57027946066E+02  0.49464855717E+03  0.48656616972E+03  0.70191637636E+03  0.89501844382E+02 0.  0.
          2    1    3    3  502    0  0.64800754098E+02 -0.14241773115E+03  0.10575033454E+04  0.10690160304E+04  0.00000000000E+00 0. -1.
         -1    1    3    3    0  502  0.15705461940E+02  0.89952547627E+01  0.94429013046E+02  0.96147879061E+02  0.00000000000E+00 0.  1.
         11    1    5    5    0    0 -0.67787211783E+02 -0.27426002750E+03  0.11884050124E+03  0.30649100068E+03  0.00000000000E+00 0. -1.
        -11    1    5    5    0    0 -0.69746950321E+02 -0.86966053284E+02  0.81523358725E+02  0.13810789087E+03  0.00000000000E+00 0.  1.
          1    1    6    6  503    0  0.38622692519E+02  0.47995204254E+03  0.45450122965E+03  0.66213068444E+03  0.00000000000E+00 0. -1.
         -1    1    6    6    0  503  0.18405253547E+02  0.14696514624E+02  0.32064940072E+02  0.39785691926E+02  0.00000000000E+00 0.  1.
<mgrwt>
<rscale>  0 0.14008732E+04</rscale>
<asrwt>0</asrwt>
<pdfrwt beam="1">  1        2 0.31927242E+00 0.14008732E+04</pdfrwt>
<pdfrwt beam="2">  1       -1 0.36370524E-01 0.14008732E+04</pdfrwt>
<totfact> 0.48739640E+01</totfact>
</mgrwt>
</event>
<event>
12    6  0.9533401E-008  0.1809493E+04  0.7818608E-02  0.8701267E-01
         -1   -1    0    0    0  501 -0.00000000000E+00  0.00000000000E+00  0.11006710306E+04  0.11006710306E+04  0.00000000000E+00 0.  1.
          2   -1    0    0  501    0  0.00000000000E+00 -0.00000000000E+00 -0.74369783502E+03  0.74369783502E+03  0.00000000000E+00 0. -1.
         24    2    1    2    0    0  0.49042111054E+03 -0.41527570250E+03  0.35174948586E+03  0.73635843384E+03  0.74359044696E+02 0.  0.
        254    2    1    2    0    0 -0.49042111054E+03  0.41527570250E+03  0.52237097532E+01  0.11080104318E+04  0.90260348721E+03 0.  0.
         23    2    4    4    0    0 -0.51676064490E+03  0.51306463530E+03 -0.28489230765E+03  0.78731305480E+03  0.91767833062E+02 0.  0.
         23    2    4    4    0    0  0.26339534362E+02 -0.97788932795E+02  0.29011601740E+03  0.32069737702E+03  0.91777217366E+02 0.  0.
          2    1    3    3  502    0  0.11884260206E+03 -0.10995437765E+03  0.12560061547E+03  0.20491228327E+03  0.00000000000E+00 0. -1.
         -1    1    3    3    0  502  0.37157850848E+03 -0.30532132485E+03  0.22614887039E+03  0.53144615056E+03  0.00000000000E+00 0.  1.
         11    1    5    5    0    0 -0.50760538216E+03  0.48596852792E+03 -0.28597904321E+03  0.75869140451E+03  0.00000000000E+00 0. -1.
        -11    1    5    5    0    0 -0.91552627435E+01  0.27096107381E+02  0.10867355581E+01  0.28621650289E+02  0.00000000000E+00 0.  1.
          3    1    6    6  503    0 -0.33079912681E+02 -0.48332170408E+02  0.10817013396E+03  0.12300836232E+03  0.00000000000E+00 0.  1.
         -3    1    6    6    0  503  0.59419447043E+02 -0.49456762387E+02  0.18194588344E+03  0.19768901470E+03  0.00000000000E+00 0. -1.
<mgrwt>
<rscale>  0 0.18094935E+04</rscale>
<asrwt>0</asrwt>
<pdfrwt beam="1">  1        2 0.11441505E+00 0.18094935E+04</pdfrwt>
<pdfrwt beam="2">  1       -1 0.16933400E+00 0.18094935E+04</pdfrwt>
<totfact> 0.10161110E+01</totfact>
</mgrwt>
</event>
<event>
12    6  0.9533401E-008  0.2250949E+04  0.7818608E-02  0.8497516E-01
         -1   -1    0    0    0  501 -0.00000000000E+00  0.00000000000E+00  0.14705341964E+04  0.14705341964E+04  0.00000000000E+00 0.  1.
          2   -1    0    0  501    0  0.00000000000E+00 -0.00000000000E+00 -0.86138257310E+03  0.86138257310E+03  0.00000000000E+00 0. -1.
         24    2    1    2    0    0 -0.19353154289E+03  0.12756885012E+03  0.12063395480E+04  0.12310219579E+04  0.80197793304E+02 0.  0.
        254    2    1    2    0    0  0.19353154289E+03 -0.12756885012E+03 -0.59718792472E+03  0.11008948116E+04  0.89532547109E+03 0.  0.
         23    2    4    4    0    0  0.74916320648E+02  0.30847876733E+03  0.20659626428E+02  0.32994849342E+03  0.87564736951E+02 0.  0.
         23    2    4    4    0    0  0.11861522225E+03 -0.43604761745E+03 -0.61784755115E+03  0.77094631819E+03  0.91736216543E+02 0.  0.
          4    1    3    3  502    0 -0.43171134751E+02  0.61639765898E+02  0.26525023838E+03  0.27571887236E+03  0.00000000000E+00 0. -1.
         -3    1    3    3    0  502 -0.15036040814E+03  0.65929084225E+02  0.94108930966E+03  0.95530308554E+03  0.00000000000E+00 0.  1.
         11    1    5    5    0    0  0.36866474479E+02  0.72763514500E+02 -0.28061269675E+02  0.86261815646E+02  0.00000000000E+00 0. -1.
        -11    1    5    5    0    0  0.38049846170E+02  0.23571525283E+03  0.48720896103E+02  0.24368667778E+03  0.00000000000E+00 0.  1.
          3    1    6    6  503    0  0.41177019017E+02 -0.31054574306E+03 -0.40537648484E+03  0.51231269737E+03  0.00000000000E+00 0. -1.
         -3    1    6    6    0  503  0.77438203228E+02 -0.12550187439E+03 -0.21247106632E+03  0.25863362082E+03  0.00000000000E+00 0.  1.
<mgrwt>
<rscale>  0 0.22509487E+04</rscale>
<asrwt>0</asrwt>
<pdfrwt beam="1">  1        2 0.13252040E+00 0.22509487E+04</pdfrwt>
<pdfrwt beam="2">  1       -1 0.22623603E+00 0.22509487E+04</pdfrwt>
<totfact> 0.32353039E+00</totfact>
</mgrwt>
</event>
<event>
12    6  0.9533401E-008  0.2920661E+04  0.7818608E-02  0.8266757E-01
         -1   -1    0    0    0  501 -0.00000000000E+00  0.00000000000E+00  0.14735776024E+04  0.14735776024E+04  0.00000000000E+00 0.  1.
          2   -1    0    0  501    0  0.00000000000E+00 -0.00000000000E+00 -0.14472023452E+04  0.14472023452E+04  0.00000000000E+00 0. -1.
         24    2    1    2    0    0 -0.44802782311E+03  0.12018250741E+04 -0.29098963230E+03  0.13176091999E+04  0.79414095774E+02 0.  0.
        254    2    1    2    0    0  0.44802782311E+03 -0.12018250741E+04  0.31736488942E+03  0.16031707477E+04  0.90792264774E+03 0.  0.
         23    2    4    4    0    0  0.28504845812E+03  0.49477857066E+02  0.20206396376E+02  0.30432028308E+03  0.92205501036E+02 0.  0.
         23    2    4    4    0    0  0.16297936500E+03 -0.12513029311E+04  0.29715849304E+03  0.12988504646E+04  0.79925343688E+02 0.  0.
          4    1    3    3  502    0 -0.41656129257E+03  0.11468849615E+04 -0.29049124656E+03  0.12542940603E+04  0.00000000000E+00 0. -1.
         -3    1    3    3    0  502 -0.31466530548E+02  0.54940112549E+02 -0.49838573954E+00  0.63315139580E+02  0.00000000000E+00 0.  1.
         11    1    5    5    0    0  0.44162631603E+02 -0.24383747629E+02  0.13728186831E+02  0.52281624805E+02  0.00000000000E+00 0. -1.
        -11    1    5    5    0    0  0.24088582652E+03  0.73861604696E+02  0.64782095457E+01  0.25203865827E+03  0.00000000000E+00 0.  1.
          1    1    6    6  503    0  0.56474431056E+02 -0.62604403219E+03  0.11576896857E+03  0.63915799744E+03  0.00000000000E+00 0. -1.
         -1    1    6    6    0  503  0.10650493394E+03 -0.62525889894E+03  0.18138952448E+03  0.65969246718E+03  0.00000000000E+00 0.  1.
<mgrwt>
<rscale>  0 0.29206609E+04</rscale>
<asrwt>0</asrwt>
<pdfrwt beam="1">  1        2 0.22264651E+00 0.29206609E+04</pdfrwt>
<pdfrwt beam="2">  1       -1 0.22670425E+00 0.29206609E+04</pdfrwt>
<totfact> 0.13247261E+00</totfact>
</mgrwt>
</event>
<event>
12    6  0.9533401E-008  0.1859614E+04  0.7818608E-02  0.8675224E-01
          2   -1    0    0  501    0  0.00000000000E+00  0.00000000000E+00  0.30583013823E+04  0.30583013823E+04  0.00000000000E+00 0. -1.
         -1   -1    0    0    0  501 -0.00000000000E+00 -0.00000000000E+00 -0.28268674273E+03  0.28268674273E+03  0.00000000000E+00 0.  1.
         24    2    1    2    0    0  0.46285086915E+02 -0.38804957152E+03  0.25129880508E+01  0.39877827387E+03  0.79328540745E+02 0.  0.
        254    2    1    2    0    0 -0.46285086915E+02  0.38804957152E+03  0.27731016515E+04  0.29422098512E+04  0.90209825373E+03 0.  0.
         23    2    4    4    0    0 -0.35767670952E+03  0.15855775529E+01  0.54820647967E+03  0.66080789892E+03  0.90562643171E+02 0.  0.
         23    2    4    4    0    0  0.31139162260E+03  0.38646399397E+03  0.22248951718E+04  0.22814019522E+04  0.91198578422E+02 0.  0.
          2    1    3    3  502    0 -0.16579480227E+02 -0.51646372980E+02  0.15150393309E+02  0.56318393301E+02  0.00000000000E+00 0. -1.
         -1    1    3    3    0  502  0.62864567142E+02 -0.33640319854E+03 -0.12637405258E+02  0.34245988057E+03  0.00000000000E+00 0.  1.
         11    1    5    5    0    0 -0.15202653659E+03 -0.27090448605E+02  0.29826824844E+03  0.33587186286E+03  0.00000000000E+00 0. -1.
        -11    1    5    5    0    0 -0.20565017293E+03  0.28676026158E+02  0.24993823123E+03  0.32493603606E+03  0.00000000000E+00 0.  1.
          3    1    6    6  503    0  0.21350489074E+03  0.22114035394E+03  0.12065193359E+04  0.12450607625E+04  0.00000000000E+00 0. -1.
         -3    1    6    6    0  503  0.97886731862E+02  0.16532364002E+03  0.10183758360E+04  0.10363411897E+04  0.00000000000E+00 0.  1.
<mgrwt>
<rscale>  0 0.18596142E+04</rscale>
<asrwt>0</asrwt>
<pdfrwt beam="1">  1        2 0.47050788E+00 0.18596142E+04</pdfrwt>
<pdfrwt beam="2">  1       -1 0.43490270E-01 0.18596142E+04</pdfrwt>
<totfact> 0.89643238E+00</totfact>
</mgrwt>
</event>
<event>
12    6  0.9533401E-008  0.1992062E+04  0.7818608E-02  0.8610341E-01
          2   -1    0    0  501    0  0.00000000000E+00  0.00000000000E+00  0.32328779237E+04  0.32328779237E+04  0.00000000000E+00 0. -1.
         -1   -1    0    0    0  501 -0.00000000000E+00 -0.00000000000E+00 -0.30687141477E+03  0.30687141477E+03  0.00000000000E+00 0.  1.
         24    2    1    2    0    0 -0.87900375179E+02 -0.15586576787E+03  0.25374191191E+04  0.25456490066E+04  0.99057889843E+02 0.  0.
        254    2    1    2    0    0  0.87900375179E+02  0.15586576787E+03  0.38858738986E+03  0.99410033185E+03  0.89733756004E+03 0.  0.
         23    2    4    4    0    0 -0.17347329580E+03  0.25312613603E+03  0.56648973591E+03  0.65064879962E+03  0.90925323485E+02 0.  0.
         23    2    4    4    0    0  0.26137367098E+03 -0.97260368164E+02 -0.17790234605E+03  0.34345153223E+03  0.92379300516E+02 0.  0.
          2    1    3    3  502    0 -0.74031159821E+02 -0.16922350201E+03  0.23478556850E+04  0.23551100875E+04  0.00000000000E+00 0. -1.
         -1    1    3    3    0  502 -0.13869215358E+02  0.13357734138E+02  0.18956343403E+03  0.19053891917E+03  0.00000000000E+00 0.  1.
         11    1    5    5    0    0 -0.10599145584E+03  0.12150968494E+03  0.21052630117E+03  0.26517940291E+03  0.00000000000E+00 0. -1.
        -11    1    5    5    0    0 -0.67481839963E+02  0.13161645110E+03  0.35596343474E+03  0.38546939670E+03  0.00000000000E+00 0.  1.
          2    1    6    6  503    0  0.13392562636E+03 -0.23107015627E+02 -0.40263226722E+02  0.14174320087E+03  0.00000000000E+00 0. -1.
         -2    1    6    6    0  503  0.12744804462E+03 -0.74153352537E+02 -0.13763911933E+03  0.20170833136E+03  0.00000000000E+00 0.  1.
<mgrwt>
<rscale>  0 0.19920621E+04</rscale>
<asrwt>0</asrwt>
<pdfrwt beam="1">  1        2 0.49736581E+00 0.19920621E+04</pdfrwt>
<pdfrwt beam="2">  1       -1 0.47210989E-01 0.19920621E+04</pdfrwt>
<totfact> 0.58659956E+00</totfact>
</mgrwt>
</event>
<event>
12    6  0.9533401E-008  0.1146237E+04  0.7818608E-02  0.9161262E-01
          2   -1    0    0  501    0  0.00000000000E+00  0.00000000000E+00  0.44402332553E+03  0.44402332553E+03  0.00000000000E+00 0. -1.
         -1   -1    0    0    0  501 -0.00000000000E+00 -0.00000000000E+00 -0.73974630198E+03  0.73974630198E+03  0.00000000000E+00 0.  1.
         24    2    1    2    0    0 -0.61482214882E+02 -0.81295947185E+02  0.12956468537E+03  0.18159891607E+03  0.76171286239E+02 0.  0.
        254    2    1    2    0    0  0.61482214882E+02  0.81295947185E+02 -0.42528766182E+03  0.10021707114E+04  0.90171361629E+03 0.  0.
         23    2    4    4    0    0  0.42234151708E+03  0.13130356824E+03 -0.43244799129E+03  0.62537436875E+03  0.92026364880E+02 0.  0.
         23    2    4    4    0    0 -0.36085930220E+03 -0.50007621052E+02  0.71603294744E+01  0.37679634269E+03  0.95937559895E+02 0.  0.
          2    1    3    3  502    0 -0.24433833677E+02 -0.57570996981E+02  0.12180929612E+03  0.13692675612E+03  0.00000000000E+00 0. -1.
         -1    1    3    3    0  502 -0.37048381205E+02 -0.23724950205E+02  0.77553892555E+01  0.44672159950E+02  0.00000000000E+00 0.  1.
         11    1    5    5    0    0  0.86690785191E+01  0.30181303181E+01  0.44330665847E+01  0.10193827168E+02  0.00000000000E+00 0.  1.
        -11    1    5    5    0    0  0.41367243857E+03  0.12828543792E+03 -0.43688105788E+03  0.61518054158E+03  0.00000000000E+00 0. -1.
          3    1    6    6  503    0 -0.26232683585E+03  0.61747456595E+01 -0.69903572993E+01  0.26249259301E+03  0.00000000000E+00 0. -1.
         -3    1    6    6    0  503 -0.98532466354E+02 -0.56182366711E+02  0.14150686774E+02  0.11430374968E+03  0.00000000000E+00 0.  1.
<mgrwt>
<rscale>  0 0.11462366E+04</rscale>
<asrwt>0</asrwt>
<pdfrwt beam="1">  1        2 0.68311281E-01 0.11462366E+04</pdfrwt>
<pdfrwt beam="2">  1       -1 0.11380712E+00 0.11462366E+04</pdfrwt>
<totfact> 0.56329396E+01</totfact>
</mgrwt>
</event>
<event>
12    6  0.9533401E-008  0.1160411E+04  0.7818608E-02  0.9148232E-01
         -1   -1    0    0    0  501 -0.00000000000E+00  0.00000000000E+00  0.13338192784E+03  0.13338192784E+03  0.00000000000E+00 0.  1.
          2   -1    0    0  501    0  0.00000000000E+00 -0.00000000000E+00 -0.25238689002E+04  0.25238689002E+04  0.00000000000E+00 0. -1.
         24    2    1    2    0    0 -0.24757443351E+02  0.16651869947E+02 -0.10061274233E+04  0.10094704747E+04  0.76472423416E+02 0.  0.
        254    2    1    2    0    0  0.24757443351E+02 -0.16651869947E+02 -0.13843595490E+04  0.16477803533E+04  0.89321806749E+03 0.  0.
         23    2    4    4    0    0  0.34486230548E+03 -0.16902692536E+03 -0.27798661450E+03  0.48284365288E+03  0.91440275850E+02 0.  0.
         23    2    4    4    0    0 -0.32010486213E+03  0.15237505541E+03 -0.11063729345E+04  0.11649367005E+04  0.85622225730E+02 0.  0.
          2    1    3    3  502    0 -0.23229688998E+01 -0.10911854771E+02 -0.81443313897E+03  0.81450954728E+03  0.00000000000E+00 0. -1.
         -1    1    3    3    0  502 -0.22434474451E+02  0.27563724718E+02 -0.19169428433E+03  0.19496092739E+03  0.00000000000E+00 0.  1.
         11    1    5    5    0    0  0.33646423473E+03 -0.16128827077E+03 -0.28493279066E+03  0.46947713760E+03  0.00000000000E+00 0. -1.
        -11    1    5    5    0    0  0.83980707515E+01 -0.77386545921E+01  0.69461761653E+01  0.13366515274E+02  0.00000000000E+00 0.  1.
          1    1    6    6  503    0 -0.31059042865E+03  0.12362889092E+03 -0.10050994135E+04  0.10592333775E+04  0.00000000000E+00 0. -1.
         -1    1    6    6    0  503 -0.95144334787E+01  0.28746164493E+02 -0.10127352104E+03  0.10570332294E+03  0.00000000000E+00 0.  1.
<mgrwt>
<rscale>  0 0.11604111E+04</rscale>
<asrwt>0</asrwt>
<pdfrwt beam="1">  1        2 0.38828753E+00 0.11604111E+04</pdfrwt>
<pdfrwt beam="2">  1       -1 0.20520296E-01 0.11604111E+04</pdfrwt>
<totfact> 0.74999132E+01</totfact>
</mgrwt>
</event>
<event>
12    6  0.9533401E-008  0.1419704E+04  0.7818608E-02  0.8939678E-01
         -1   -1    0    0    0  501 -0.00000000000E+00  0.00000000000E+00  0.53835747188E+03  0.53835747188E+03  0.00000000000E+00 0.  1.
          2   -1    0    0  501    0  0.00000000000E+00 -0.00000000000E+00 -0.93597653849E+03  0.93597653849E+03  0.00000000000E+00 0. -1.
         24    2    1    2    0    0  0.30337647399E+03 -0.69833283562E+02 -0.41765271768E+03  0.52729376274E+03  0.81798210065E+02 0.  0.
        254    2    1    2    0    0 -0.30337647399E+03  0.69833283562E+02  0.20033651069E+02  0.94704024764E+03  0.89418673162E+03 0.  0.
         23    2    4    4    0    0  0.99175385148E+02 -0.33541706158E+03 -0.48679788553E+02  0.36482889461E+03  0.91597152277E+02 0.  0.
         23    2    4    4    0    0 -0.40255185914E+03  0.40525034515E+03  0.68713439622E+02  0.58221135303E+03  0.89289872181E+02 0.  0.
          2    1    3    3  502    0  0.25817362593E+03 -0.58705995458E+02 -0.39499109091E+03  0.47551863993E+03  0.00000000000E+00 0. -1.
         -1    1    3    3    0  502  0.45202848059E+02 -0.11127288104E+02 -0.22661626778E+02  0.51775122805E+02  0.00000000000E+00 0.  1.
         11    1    5    5    0    0  0.62636833981E+02 -0.73660951521E+02 -0.39180181789E+01  0.96771171413E+02  0.00000000000E+00 0.  1.
        -11    1    5    5    0    0  0.36538551167E+02 -0.26175611006E+03 -0.44761770374E+02  0.26805772319E+03  0.00000000000E+00 0. -1.
          1    1    6    6  503    0 -0.22944249851E+03  0.28140219262E+03  0.67787201157E+02  0.36935911899E+03  0.00000000000E+00 0. -1.
         -1    1    6    6    0  503 -0.17310936063E+03  0.12384815252E+03  0.92623846528E+00  0.21285223404E+03  0.00000000000E+00 0.  1.
<mgrwt>
<rscale>  0 0.14197041E+04</rscale>
<asrwt>0</asrwt>
<pdfrwt beam="1">  1        2 0.14399639E+00 0.14197041E+04</pdfrwt>
<pdfrwt beam="2">  1       -1 0.82824227E-01 0.14197041E+04</pdfrwt>
<totfact> 0.44560241E+01</totfact>
</mgrwt>
</event>
<event>
12    6  0.9533401E-008  0.1990333E+04  0.7818608E-02  0.8611154E-01
         -1   -1    0    0    0  501 -0.00000000000E+00  0.00000000000E+00  0.17684143694E+04  0.17684143694E+04  0.00000000000E+00 0.  1.
          2   -1    0    0  501    0  0.00000000000E+00 -0.00000000000E+00 -0.56002518478E+03  0.56002518478E+03  0.00000000000E+00 0. -1.
         24    2    1    2    0    0 -0.71965434507E+03 -0.17587814647E+03  0.80370495439E+03  0.10961238557E+04  0.81916754130E+02 0.  0.
        254    2    1    2    0    0  0.71965434507E+03  0.17587814647E+03  0.40468423027E+03  0.12323156985E+04  0.89777344343E+03 0.  0.
         23    2    4    4    0    0  0.77244812046E+03  0.42356626197E+03  0.24602446979E+03  0.91918843424E+03  0.91076126542E+02 0.  0.
         23    2    4    4    0    0 -0.52793775392E+02 -0.24768811550E+03  0.15865976047E+03  0.31312726425E+03  0.93483574706E+02 0.  0.
          2    1    3    3  502    0 -0.55682715414E+03 -0.16545003443E+03  0.59986533875E+03  0.83502611822E+03  0.00000000000E+00 0. -1.
         -1    1    3    3    0  502 -0.16282719093E+03 -0.10428112032E+02  0.20383961564E+03  0.26109773751E+03  0.00000000000E+00 0.  1.
         11    1    5    5    0    0  0.24879914194E+03  0.10644217756E+03  0.41729297021E+02  0.27381067259E+03  0.00000000000E+00 0. -1.
        -11    1    5    5    0    0  0.52364897852E+03  0.31712408441E+03  0.20429517277E+03  0.64537776165E+03  0.00000000000E+00 0.  1.
          1    1    6    6  503    0 -0.75667327352E+02 -0.13385366849E+03  0.94272763435E+02  0.18035992604E+03  0.00000000000E+00 0. -1.
         -1    1    6    6    0  503  0.22873551960E+02 -0.11383444701E+03  0.64386997038E+02  0.13276733820E+03  0.00000000000E+00 0.  1.
<mgrwt>
<rscale>  0 0.19903332E+04</rscale>
<asrwt>0</asrwt>
<pdfrwt beam="1">  1        2 0.86157722E-01 0.19903332E+04</pdfrwt>
<pdfrwt beam="2">  1       -1 0.27206375E+00 0.19903332E+04</pdfrwt>
<totfact> 0.28674171E+00</totfact>
</mgrwt>
</event>
<event>
12    6  0.9533401E-008  0.1893865E+04  0.7818608E-02  0.8657916E-01
         -1   -1    0    0    0  501 -0.00000000000E+00  0.00000000000E+00  0.91587820975E+03  0.91587820975E+03  0.00000000000E+00 0.  1.
          2   -1    0    0  501    0  0.00000000000E+00 -0.00000000000E+00 -0.97903945473E+03  0.97903945473E+03  0.00000000000E+00 0. -1.
         24    2    1    2    0    0  0.54165970331E+03 -0.47048988947E+03 -0.16519079500E+03  0.74037575879E+03  0.78181168873E+02 0.  0.
        254    2    1    2    0    0 -0.54165970331E+03  0.47048988947E+03  0.10202955003E+03  0.11545419057E+04  0.89877751009E+03 0.  0.
         23    2    4    4    0    0  0.20455879630E+03  0.20385216197E+03  0.18118457005E+03  0.35291958832E+03  0.91238053008E+02 0.  0.
         23    2    4    4    0    0 -0.74621849961E+03  0.26663772750E+03 -0.79155020022E+02  0.80162231737E+03  0.91624754445E+02 0.  0.
          2    1    3    3  502    0  0.36769391531E+03 -0.33896104709E+03 -0.81063304950E+02  0.50662083081E+03  0.00000000000E+00 0. -1.
         -1    1    3    3    0  502  0.17396578800E+03 -0.13152884237E+03 -0.84127490053E+02  0.23375492797E+03  0.00000000000E+00 0.  1.
         11    1    5    5    0    0  0.21884821581E+02 -0.76663288051E+01  0.10646103088E+02  0.25515828890E+02  0.00000000000E+00 0. -1.
        -11    1    5    5    0    0  0.18267397472E+03  0.21151849077E+03  0.17053846696E+03  0.32740375943E+03  0.00000000000E+00 0.  1.
          2    1    6    6  503    0 -0.54380397374E+02  0.34221485786E+02 -0.27725252266E+02  0.69978763358E+02  0.00000000000E+00 0. -1.
         -2    1    6    6    0  503 -0.69183810223E+03  0.23241624171E+03 -0.51429767756E+02  0.73164355401E+03  0.00000000000E+00 0.  1.
<mgrwt>
<rscale>  0 0.18938647E+04</rscale>
<asrwt>0</asrwt>
<pdfrwt beam="1">  1        2 0.15062145E+00 0.18938647E+04</pdfrwt>
<pdfrwt beam="2">  1       -1 0.14090434E+00 0.18938647E+04</pdfrwt>
<totfact> 0.11450409E+01</totfact>
</mgrwt>
</event>
<event>
12    6  0.9533401E-008  0.2960639E+04  0.7818608E-02  0.8255061E-01
         -1   -1    0    0    0  501 -0.00000000000E+00  0.00000000000E+00  0.17626114202E+04  0.17626114202E+04  0.00000000000E+00 0.  1.
          2   -1    0    0  501    0  0.00000000000E+00 -0.00000000000E+00 -0.12432378481E+04  0.12432378481E+04  0.00000000000E+00 0. -1.
         24    2    1    2    0    0 -0.15212408543E+03  0.25545735651E+03 -0.10930710091E+04  0.11358424018E+04  0.83267834467E+02 0.  0.
        254    2    1    2    0    0  0.15212408543E+03 -0.25545735651E+03  0.16124445812E+04  0.18700068666E+04  0.89919294664E+03 0.  0.
         23    2    4    4    0    0 -0.40955616363E+02  0.18450423514E+02 -0.89032845350E+02  0.13347641138E+03  0.88720483569E+02 0.  0.
         23    2    4    4    0    0  0.19307970179E+03 -0.27390778002E+03  0.17014774266E+04  0.17365304552E+04  0.90594401511E+02 0.  0.
          2    1    3    3  502    0 -0.13613863517E+03  0.24716005540E+03 -0.93231538519E+03  0.97408100199E+03  0.00000000000E+00 0. -1.
         -3    1    3    3    0  502 -0.15985450259E+02  0.82973011093E+01 -0.16075562394E+03  0.16176139976E+03  0.00000000000E+00 0.  1.
         11    1    5    5    0    0 -0.14827924651E+02  0.91733998076E+01 -0.10156433382E+03  0.10305014565E+03  0.00000000000E+00 0.  1.
        -11    1    5    5    0    0 -0.26127691712E+02  0.92770237059E+01  0.12531488473E+02  0.30426265732E+02  0.00000000000E+00 0. -1.
          2    1    6    6  503    0  0.10948225338E+03 -0.97599558757E+02  0.58338335743E+03  0.60153817785E+03  0.00000000000E+00 0. -1.
         -2    1    6    6    0  503  0.83597448411E+02 -0.17630822127E+03  0.11180940692E+04  0.11349922774E+04  0.00000000000E+00 0.  1.
<mgrwt>
<rscale>  0 0.29606386E+04</rscale>
<asrwt>0</asrwt>
<pdfrwt beam="1">  1        2 0.19126736E+00 0.29606386E+04</pdfrwt>
<pdfrwt beam="2">  1       -1 0.27117099E+00 0.29606386E+04</pdfrwt>
<totfact> 0.88667306E-01</totfact>
</mgrwt>
</event>
<event>
12    6  0.9533401E-008  0.1244702E+04  0.7818608E-02  0.9074604E-01
         -1   -1    0    0    0  501 -0.00000000000E+00  0.00000000000E+00  0.16574681134E+03  0.16574681134E+03  0.00000000000E+00 0.  1.
          2   -1    0    0  501    0  0.00000000000E+00 -0.00000000000E+00 -0.23368221129E+04  0.23368221129E+04  0.00000000000E+00 0. -1.
         24    2    1    2    0    0 -0.22449367542E+03  0.16114344893E+03 -0.34901679306E+03  0.45261848111E+03  0.81768858193E+02 0.  0.
        254    2    1    2    0    0  0.22449367542E+03 -0.16114344893E+03 -0.18220585085E+04  0.20499504432E+04  0.89779451407E+03 0.  0.
         23    2    4    4    0    0  0.30583332103E+03 -0.39300547890E+03 -0.53523023536E+03  0.73648546788E+03  0.89174619971E+02 0.  0.
         23    2    4    4    0    0 -0.81339645612E+02  0.23186202997E+03 -0.12868282732E+04  0.13134649753E+04  0.94271405028E+02 0.  0.
          2    1    3    3  502    0 -0.60222542732E+02  0.19743289619E+02 -0.12923849321E+03  0.14394144735E+03  0.00000000000E+00 0. -1.
         -1    1    3    3    0  502 -0.16427113268E+03  0.14140015931E+03 -0.21977829985E+03  0.30867703376E+03  0.00000000000E+00 0.  1.
         11    1    5    5    0    0  0.15401634958E+03 -0.24238738287E+03 -0.35645528847E+03  0.45774780392E+03  0.00000000000E+00 0. -1.
        -11    1    5    5    0    0  0.15181697145E+03 -0.15061809603E+03 -0.17877494689E+03  0.27873766396E+03  0.00000000000E+00 0.  1.
          2    1    6    6  503    0  0.60826931533E+01  0.11544290415E+03 -0.49062927217E+03  0.50406462481E+03  0.00000000000E+00 0. -1.
         -2    1    6    6    0  503 -0.87422338766E+02  0.11641912582E+03 -0.79619900100E+03  0.80940035048E+03  0.00000000000E+00 0.  1.
<mgrwt>
<rscale>  0 0.12447021E+04</rscale>
<asrwt>0</asrwt>
<pdfrwt beam="1">  1        2 0.35951111E+00 0.12447021E+04</pdfrwt>
<pdfrwt beam="2">  1       -1 0.25499508E-01 0.12447021E+04</pdfrwt>
<totfact> 0.65793612E+01</totfact>
</mgrwt>
</event>
<event>
12    6  0.9533401E-008  0.1266048E+04  0.7818608E-02  0.9056931E-01
         -1   -1    0    0    0  501 -0.00000000000E+00  0.00000000000E+00  0.20775038290E+03  0.20775038290E+03  0.00000000000E+00 0.  1.
          2   -1    0    0  501    0  0.00000000000E+00 -0.00000000000E+00 -0.19288517314E+04  0.19288517314E+04  0.00000000000E+00 0. -1.
         24    2    1    2    0    0  0.89493235185E+02  0.11308398560E+02 -0.91808513193E+03  0.92603633038E+03  0.80784012570E+02 0.  0.
        254    2    1    2    0    0 -0.89493235185E+02 -0.11308398560E+02 -0.80301621653E+03  0.12105657839E+04  0.90138646211E+03 0.  0.
         23    2    4    4    0    0 -0.35007670883E+03  0.21018136306E+03 -0.74172260228E+03  0.85226420224E+03  0.97323914076E+02 0.  0.
         23    2    4    4    0    0  0.26058347364E+03 -0.22148976162E+03 -0.61293614254E+02  0.35830158164E+03  0.87530880372E+02 0.  0.
          4    1    3    3  502    0  0.91923790867E+02  0.35301267884E+01 -0.90971516850E+03  0.91435448975E+03  0.00000000000E+00 0. -1.
         -3    1    3    3    0  502 -0.24305556823E+01  0.77782717712E+01 -0.83699634270E+01  0.11681840627E+02  0.00000000000E+00 0.  1.
         11    1    5    5    0    0 -0.35189014783E+02  0.73143764993E+01 -0.25709341571E+02  0.44189785121E+02  0.00000000000E+00 0. -1.
        -11    1    5    5    0    0 -0.31488769404E+03  0.20286698656E+03 -0.71601326071E+03  0.80807441712E+03  0.00000000000E+00 0.  1.
          3    1    6    6  503    0  0.49630489360E+02 -0.84294071734E+02 -0.40263959725E+02  0.10578214621E+03  0.00000000000E+00 0. -1.
         -3    1    6    6    0  503  0.21095298428E+03 -0.13719568989E+03 -0.21029654529E+02  0.25251943543E+03  0.00000000000E+00 0.  1.
<mgrwt>
<rscale>  0 0.12660485E+04</rscale>
<asrwt>0</asrwt>
<pdfrwt beam="1">  1        2 0.29674641E+00 0.12660485E+04</pdfrwt>
<pdfrwt beam="2">  1       -1 0.31961599E-01 0.12660485E+04</pdfrwt>
<totfact> 0.74781664E+01</totfact>
</mgrwt>
</event>
<event>
12    6  0.9533401E-008  0.1146303E+04  0.7818608E-02  0.9161201E-01
          2   -1    0    0  501    0  0.00000000000E+00  0.00000000000E+00  0.51145590063E+03  0.51145590063E+03  0.00000000000E+00 0. -1.
         -1   -1    0    0    0  501 -0.00000000000E+00 -0.00000000000E+00 -0.64228919649E+03  0.64228919649E+03  0.00000000000E+00 0.  1.
         24    2    1    2    0    0 -0.98566165685E+02  0.12358469547E+03 -0.16467292125E+03  0.24216434329E+03  0.80857480761E+02 0.  0.
        254    2    1    2    0    0  0.98566165685E+02 -0.12358469547E+03  0.33839625396E+02  0.91158075383E+03  0.89713203294E+03 0.  0.
         23    2    4    4    0    0  0.38807751730E+03  0.21624857684E+03  0.31008079464E+02  0.45452393090E+03  0.90900474998E+02 0.  0.
         23    2    4    4    0    0 -0.28951135161E+03 -0.33983327231E+03  0.28315459318E+01  0.45705682292E+03  0.97925716979E+02 0.  0.
          4    1    3    3  502    0 -0.31696709736E+02 -0.36939490000E+01 -0.44620397043E+02  0.54857146294E+02  0.00000000000E+00 0. -1.
         -3    1    3    3    0  502 -0.66869455949E+02  0.12727864447E+03 -0.12005252421E+03  0.18730719700E+03  0.00000000000E+00 0.  1.
         11    1    5    5    0    0  0.38602419103E+03  0.20798360495E+03  0.17851203668E+02  0.43885136603E+03  0.00000000000E+00 0. -1.
        -11    1    5    5    0    0  0.20533262635E+01  0.82649718850E+01  0.13156875797E+02  0.15672564874E+02  0.00000000000E+00 0.  1.
          4    1    6    6  503    0 -0.13540848581E+03 -0.15699738117E+03 -0.47509290426E+02  0.21269877386E+03  0.00000000000E+00 0.  1.
         -4    1    6    6    0  503 -0.15410286580E+03 -0.18283589114E+03  0.50340836358E+02  0.24435804907E+03  0.00000000000E+00 0. -1.
<mgrwt>
<rscale>  0 0.11463029E+04</rscale>
<asrwt>0</asrwt>
<pdfrwt beam="1">  1        2 0.78685524E-01 0.11463029E+04</pdfrwt>
<pdfrwt beam="2">  1       -1 0.98813722E-01 0.11463029E+04</pdfrwt>
<totfact> 0.66544453E+01</totfact>
</mgrwt>
</event>
<event>
12    6  0.9533401E-008  0.1239289E+04  0.7818608E-02  0.9079145E-01
          2   -1    0    0  501    0  0.00000000000E+00  0.00000000000E+00  0.25654023543E+04  0.25654023543E+04  0.00000000000E+00 0. -1.
         -1   -1    0    0    0  501 -0.00000000000E+00 -0.00000000000E+00 -0.14966833871E+03  0.14966833871E+03  0.00000000000E+00 0.  1.
         24    2    1    2    0    0 -0.97862705748E+02 -0.53237191615E+02  0.11708035781E+04  0.11787750759E+04  0.79488070408E+02 0.  0.
        254    2    1    2    0    0  0.97862705748E+02  0.53237191615E+02  0.12449304374E+04  0.15362956170E+04  0.89327550126E+03 0.  0.
         23    2    4    4    0    0  0.42871776325E+03  0.36192363418E+02  0.10554923068E+04  0.11435187643E+04  0.91991015520E+02 0.  0.
         23    2    4    4    0    0 -0.33085505750E+03  0.17044828197E+02  0.18943813063E+03  0.39277685273E+03  0.92904550266E+02 0.  0.
          4    1    3    3  502    0 -0.99471663318E+02 -0.21163185939E+02  0.98287057118E+03  0.98811793422E+03  0.00000000000E+00 0. -1.
         -3    1    3    3    0  502  0.16089575697E+01 -0.32074005675E+02  0.18793300696E+03  0.19065714172E+03  0.00000000000E+00 0.  1.
         11    1    5    5    0    0  0.35559675240E+03  0.40065298668E+02  0.94948938074E+03  0.10146843660E+04  0.00000000000E+00 0. -1.
        -11    1    5    5    0    0  0.73121010850E+02 -0.38729352496E+01  0.10600292605E+03  0.12883439830E+03  0.00000000000E+00 0.  1.
          2    1    6    6  503    0 -0.33574599988E+03  0.13427150479E+02  0.17905926427E+03  0.38074648381E+03  0.00000000000E+00 0. -1.
         -2    1    6    6    0  503  0.48909423855E+01  0.36176777181E+01  0.10378866360E+02  0.12030368922E+02  0.00000000000E+00 0.  1.
<mgrwt>
<rscale>  0 0.12392893E+04</rscale>
<asrwt>0</asrwt>
<pdfrwt beam="1">  1        2 0.39467725E+00 0.12392893E+04</pdfrwt>
<pdfrwt beam="2">  1       -1 0.23025900E-01 0.12392893E+04</pdfrwt>
<totfact> 0.58007493E+01</totfact>
</mgrwt>
</event>
<event>
12    6  0.9533401E-008  0.1574120E+04  0.7818608E-02  0.8836607E-01
         -1   -1    0    0    0  501 -0.00000000000E+00  0.00000000000E+00  0.95491863726E+03  0.95491863726E+03  0.00000000000E+00 0.  1.
          2   -1    0    0  501    0  0.00000000000E+00 -0.00000000000E+00 -0.64870774886E+03  0.64870774886E+03  0.00000000000E+00 0. -1.
         24    2    1    2    0    0 -0.49649344583E+03 -0.76981210779E+02 -0.72885707678E+02  0.51425422779E+03  0.81934338657E+02 0.  0.
        254    2    1    2    0    0  0.49649344583E+03  0.76981210779E+02  0.37909659608E+03  0.10893721583E+04  0.88914881860E+03 0.  0.
         23    2    4    4    0    0 -0.34840518727E+02  0.31595480309E+03 -0.82281553411E+02  0.34069008068E+03  0.90874516232E+02 0.  0.
         23    2    4    4    0    0  0.53133396455E+03 -0.23897359232E+03  0.46137814949E+03  0.74868207764E+03  0.90724290287E+02 0.  0.
          2    1    3    3  502    0 -0.44599229140E+03 -0.83256391406E+02 -0.85830501516E+02  0.46174411278E+03  0.00000000000E+00 0. -1.
         -1    1    3    3    0  502 -0.50501154426E+02  0.62751806276E+01  0.12944793838E+02  0.52510115004E+02  0.00000000000E+00 0.  1.
         11    1    5    5    0    0  0.25728228279E+02  0.97882101577E+02 -0.47152828588E+02  0.11165230308E+03  0.00000000000E+00 0.  1.
        -11    1    5    5    0    0 -0.60568747006E+02  0.21807270152E+03 -0.35128724823E+02  0.22903777760E+03  0.00000000000E+00 0. -1.
          2    1    6    6  503    0  0.53282398934E+03 -0.22974733714E+03  0.45500325116E+03  0.73736910778E+03  0.00000000000E+00 0. -1.
         -2    1    6    6    0  503 -0.14900247896E+01 -0.92262551769E+01  0.63748983334E+01  0.11312969868E+02  0.00000000000E+00 0.  1.
<mgrwt>
<rscale>  0 0.15741196E+04</rscale>
<asrwt>0</asrwt>
<pdfrwt beam="1">  1        2 0.99801192E-01 0.15741196E+04</pdfrwt>
<pdfrwt beam="2">  1       -1 0.14691056E+00 0.15741196E+04</pdfrwt>
<totfact> 0.18255484E+01</totfact>
</mgrwt>
</event>
<event>
12    6  0.9533401E-008  0.1165235E+04  0.7818608E-02  0.9143843E-01
         -1   -1    0    0    0  501 -0.00000000000E+00  0.00000000000E+00  0.34423938910E+03  0.34423938910E+03  0.00000000000E+00 0.  1.
          2   -1    0    0  501    0  0.00000000000E+00 -0.00000000000E+00 -0.98606674737E+03  0.98606674737E+03  0.00000000000E+00 0. -1.
         24    2    1    2    0    0  0.16456095519E+03 -0.13023529232E+03 -0.24065984331E+02  0.22650324917E+03  0.81749684679E+02 0.  0.
        254    2    1    2    0    0 -0.16456095519E+03  0.13023529232E+03 -0.61776137394E+03  0.11038028873E+04  0.89034272028E+03 0.  0.
         23    2    4    4    0    0 -0.26333282522E+02  0.34665892816E+03 -0.72575153162E+03  0.81027805122E+03  0.94706812859E+02 0.  0.
         23    2    4    4    0    0 -0.13822767266E+03 -0.21642363584E+03  0.10799015768E+03  0.29352483608E+03  0.92460129787E+02 0.  0.
          4    1    3    3  502    0  0.26269811645E+02  0.97919894756E+01 -0.73915149846E+01  0.28993457116E+02  0.00000000000E+00 0. -1.
         -3    1    3    3    0  502  0.13829114354E+03 -0.14002728180E+03 -0.16674469346E+02  0.19750979206E+03  0.00000000000E+00 0.  1.
         11    1    5    5    0    0 -0.19126331620E+02  0.78902040655E+02 -0.26682606636E+03  0.27890410228E+03  0.00000000000E+00 0. -1.
        -11    1    5    5    0    0 -0.72069509020E+01  0.26775688751E+03 -0.45892546526E+03  0.53137394894E+03  0.00000000000E+00 0.  1.
          1    1    6    6  503    0  0.71835370860E+01 -0.16121108790E+02  0.28560441677E+02  0.33573682885E+02  0.00000000000E+00 0. -1.
         -1    1    6    6    0  503 -0.14541120975E+03 -0.20030252705E+03  0.79429716005E+02  0.25995115319E+03  0.00000000000E+00 0.  1.
<mgrwt>
<rscale>  0 0.11652348E+04</rscale>
<asrwt>0</asrwt>
<pdfrwt beam="1">  1        2 0.15170258E+00 0.11652348E+04</pdfrwt>
<pdfrwt beam="2">  1       -1 0.52959906E-01 0.11652348E+04</pdfrwt>
<totfact> 0.10425824E+02</totfact>
</mgrwt>
</event>
<event>
12    6  0.9533401E-008  0.3651794E+04  0.7818608E-02  0.8078730E-01
          2   -1    0    0  501    0  0.00000000000E+00  0.00000000000E+00  0.31972060710E+04  0.31972060710E+04  0.00000000000E+00 0. -1.
         -1   -1    0    0    0  501 -0.00000000000E+00 -0.00000000000E+00 -0.10427538589E+04  0.10427538589E+04  0.00000000000E+00 0.  1.
         24    2    1    2    0    0 -0.46136995248E+03 -0.16503131608E+04  0.98467904813E+03  0.19779403375E+04  0.79116302080E+02 0.  0.
        254    2    1    2    0    0  0.46136995248E+03  0.16503131608E+04  0.11697731640E+04  0.22620195924E+04  0.90109245876E+03 0.  0.
         23    2    4    4    0    0 -0.15891685050E+03  0.49161200987E+03  0.37761807958E+02  0.52507137687E+03  0.85656657891E+02 0.  0.
         23    2    4    4    0    0  0.62028680298E+03  0.11587011509E+04  0.11320113560E+04  0.17369482155E+04  0.90527995627E+02 0.  0.
          2    1    3    3  502    0 -0.13119597692E+03 -0.45876304490E+03  0.23387586852E+03  0.53138859379E+03  0.00000000000E+00 0. -1.
         -1    1    3    3    0  502 -0.33017397556E+03 -0.11915501159E+04  0.75080317961E+03  0.14465517438E+04  0.00000000000E+00 0.  1.
         11    1    5    5    0    0 -0.12673355193E+03  0.33715819466E+03 -0.96841922813E+01  0.36032044765E+03  0.00000000000E+00 0. -1.
        -11    1    5    5    0    0 -0.32183298568E+02  0.15445381521E+03  0.47446000239E+02  0.16475092922E+03  0.00000000000E+00 0.  1.
          2    1    6    6  503    0  0.32503514488E+03  0.61047916869E+03  0.53599485349E+03  0.87499893930E+03  0.00000000000E+00 0. -1.
         -2    1    6    6    0  503  0.29525165810E+03  0.54822198226E+03  0.59601650252E+03  0.86194927619E+03  0.00000000000E+00 0.  1.
<mgrwt>
<rscale>  0 0.36517935E+04</rscale>
<asrwt>0</asrwt>
<pdfrwt beam="1">  1        2 0.49187785E+00 0.36517935E+04</pdfrwt>
<pdfrwt beam="2">  1       -1 0.16042367E+00 0.36517935E+04</pdfrwt>
<totfact> 0.34771148E-01</totfact>
</mgrwt>
</event>
<event>
12    6  0.9533401E-008  0.1562407E+04  0.7818608E-02  0.8843981E-01
         -1   -1    0    0    0  501 -0.00000000000E+00  0.00000000000E+00  0.58381462093E+03  0.58381462093E+03  0.00000000000E+00 0.  1.
          2   -1    0    0  501    0  0.00000000000E+00 -0.00000000000E+00 -0.10453302935E+04  0.10453302935E+04  0.00000000000E+00 0. -1.
         24    2    1    2    0    0  0.41263902047E+03 -0.82385060700E+02  0.14870071221E+03  0.45326577132E+03  0.79244546798E+02 0.  0.
        254    2    1    2    0    0 -0.41263902047E+03  0.82385060700E+02 -0.61021638483E+03  0.11758791432E+04  0.91283594560E+03 0.  0.
         23    2    4    4    0    0 -0.12948901062E+03 -0.18881308878E+03 -0.71635686828E+03  0.75767518742E+03  0.92123506960E+02 0.  0.
         23    2    4    4    0    0 -0.28315000985E+03  0.27119814948E+03  0.10614048345E+03  0.41820395574E+03  0.99530809378E+02 0.  0.
          2    1    3    3  502    0  0.22521806598E+03 -0.42384202194E+02  0.12245113406E+03  0.25983432812E+03  0.00000000000E+00 0. -1.
         -1    1    3    3    0  502  0.18742095449E+03 -0.40000858506E+02  0.26249578149E+02  0.19343144320E+03  0.00000000000E+00 0.  1.
         11    1    5    5    0    0 -0.26776791954E+02  0.45268147305E+01 -0.98614090853E+02  0.10228503094E+03  0.00000000000E+00 0.  1.
        -11    1    5    5    0    0 -0.10271221867E+03 -0.19333990351E+03 -0.61774277743E+03  0.65539015648E+03  0.00000000000E+00 0. -1.
          4    1    6    6  503    0 -0.28619227402E+03  0.25224955222E+03  0.87389529088E+02  0.39137294759E+03  0.00000000000E+00 0. -1.
         -4    1    6    6    0  503  0.30422641758E+01  0.18948597255E+02  0.18750954364E+02  0.26831008159E+02  0.00000000000E+00 0.  1.
<mgrwt>
<rscale>  0 0.15624073E+04</rscale>
<asrwt>0</asrwt>
<pdfrwt beam="1">  1        2 0.16082004E+00 0.15624073E+04</pdfrwt>
<pdfrwt beam="2">  1       -1 0.89817635E-01 0.15624073E+04</pdfrwt>
<totfact> 0.31377962E+01</totfact>
</mgrwt>
</event>
<event>
12    6  0.9533401E-008  0.1555869E+04  0.7818608E-02  0.8848128E-01
         -1   -1    0    0    0  501 -0.00000000000E+00  0.00000000000E+00  0.28643967019E+03  0.28643967019E+03  0.00000000000E+00 0.  1.
          2   -1    0    0  501    0  0.00000000000E+00 -0.00000000000E+00 -0.21127723661E+04  0.21127723661E+04  0.00000000000E+00 0. -1.
         24    2    1    2    0    0 -0.47619028391E+03 -0.14833393998E+03 -0.45052666202E+03  0.67700536622E+03  0.81251759713E+02 0.  0.
        254    2    1    2    0    0  0.47619028391E+03  0.14833393998E+03 -0.13758060339E+04  0.17222066701E+04  0.90796113755E+03 0.  0.
         23    2    4    4    0    0  0.28281485618E+03 -0.29753954366E+03 -0.10472206680E+04  0.11284871617E+04  0.91094037384E+02 0.  0.
         23    2    4    4    0    0  0.19337542773E+03  0.44587348364E+03 -0.32858536590E+03  0.59371950841E+03  0.91308775685E+02 0.  0.
          2    1    3    3  502    0 -0.12928898830E+03 -0.38765330503E+02 -0.17307698556E+03  0.21948584527E+03  0.00000000000E+00 0. -1.
         -1    1    3    3    0  502 -0.34690129561E+03 -0.10956860948E+03 -0.27744967646E+03  0.45751952095E+03  0.00000000000E+00 0.  1.
         11    1    5    5    0    0  0.46842440917E+02 -0.10417501903E+03 -0.32442076100E+03  0.34394109820E+03  0.00000000000E+00 0. -1.
        -11    1    5    5    0    0  0.23597241526E+03 -0.19336452463E+03 -0.72279990703E+03  0.78454606350E+03  0.00000000000E+00 0.  1.
          4    1    6    6  503    0  0.49818083557E+01  0.30850286696E+01 -0.22891553330E+02  0.23629621881E+02  0.00000000000E+00 0. -1.
         -4    1    6    6    0  503  0.18839361938E+03  0.44278845497E+03 -0.30569381257E+03  0.57008988653E+03  0.00000000000E+00 0.  1.
<mgrwt>
<rscale>  0 0.15558687E+04</rscale>
<asrwt>0</asrwt>
<pdfrwt beam="1">  1        2 0.32504190E+00 0.15558687E+04</pdfrwt>
<pdfrwt beam="2">  1       -1 0.44067641E-01 0.15558687E+04</pdfrwt>
<totfact> 0.32276660E+01</totfact>
</mgrwt>
</event>
<event>
12    6  0.9533401E-008  0.1219720E+04  0.7818608E-02  0.9095769E-01
         -3   -1    0    0    0  501 -0.00000000000E+00  0.00000000000E+00  0.20496230775E+03  0.20496230775E+03  0.00000000000E+00 0.  1.
          2   -1    0    0  501    0  0.00000000000E+00 -0.00000000000E+00 -0.18146228347E+04  0.18146228347E+04  0.00000000000E+00 0. -1.
         24    2    1    2    0    0 -0.23809614725E+03  0.79151302540E+02 -0.20767750369E+03  0.33592179817E+03  0.82211951168E+02 0.  0.
        254    2    1    2    0    0  0.23809614725E+03 -0.79151302540E+02 -0.14019830233E+04  0.16836633443E+04  0.89789261903E+03 0.  0.
         23    2    4    4    0    0  0.48418223587E+03  0.20873911547E+03 -0.91377037352E+03  0.10590115969E+04  0.92329902694E+02 0.  0.
         23    2    4    4    0    0 -0.24608608861E+03 -0.28789041801E+03 -0.48821264973E+03  0.62465174739E+03  0.91645831147E+02 0.  0.
          2    1    3    3  502    0 -0.65892071374E+01 -0.12874736381E+02 -0.72462073710E+01  0.16176650112E+02  0.00000000000E+00 0. -1.
         -1    1    3    3    0  502 -0.23150694012E+03  0.92026038921E+02 -0.20043129632E+03  0.31974514806E+03  0.00000000000E+00 0.  1.
         11    1    5    5    0    0  0.57881448255E+02  0.60846123679E+02 -0.15010254424E+03  0.17199792617E+03  0.00000000000E+00 0.  1.
        -11    1    5    5    0    0  0.42630078761E+03  0.14789299180E+03 -0.76366782928E+03  0.88701367071E+03  0.00000000000E+00 0. -1.
          1    1    6    6  503    0 -0.25263884391E+03 -0.27942054810E+03 -0.48357461204E+03  0.61298175631E+03  0.00000000000E+00 0. -1.
         -1    1    6    6    0  503  0.65527552964E+01 -0.84698699103E+01 -0.46380376912E+01  0.11669991084E+02  0.00000000000E+00 0.  1.
<mgrwt>
<rscale>  0 0.12197201E+04</rscale>
<asrwt>0</asrwt>
<pdfrwt beam="1">  1        2 0.27917275E+00 0.12197201E+04</pdfrwt>
<pdfrwt beam="2">  1       -3 0.31532662E-01 0.12197201E+04</pdfrwt>
<totfact> 0.53161563E+01</totfact>
</mgrwt>
</event>
<event>
12    6  0.9533401E-008  0.1954370E+04  0.7818608E-02  0.8628256E-01
          2   -1    0    0  501    0  0.00000000000E+00  0.00000000000E+00  0.12430227164E+04  0.12430227164E+04  0.00000000000E+00 0. -1.
         -1   -1    0    0    0  501 -0.00000000000E+00 -0.00000000000E+00 -0.76820070393E+03  0.76820070393E+03  0.00000000000E+00 0.  1.
         24    2    1    2    0    0 -0.45718879388E+03  0.60188100848E+03  0.65611860049E+02  0.76301723426E+03  0.81289863928E+02 0.  0.
        254    2    1    2    0    0  0.45718879388E+03 -0.60188100848E+03  0.40921015241E+03  0.12482061861E+04  0.90514274701E+03 0.  0.
         23    2    4    4    0    0  0.29778995243E+03  0.12649073732E+03  0.36434538423E+03  0.49567917851E+03  0.90947933470E+02 0.  0.
         23    2    4    4    0    0  0.15939884145E+03 -0.72837174580E+03  0.44864768186E+02  0.75252700755E+03  0.91381939825E+02 0.  0.
          2    1    3    3  502    0 -0.98636713535E+02  0.17179546659E+03  0.42466016942E+02  0.20259873196E+03  0.00000000000E+00 0. -1.
         -3    1    3    3    0  502 -0.35855208034E+03  0.43008554189E+03  0.23145843107E+02  0.56041850230E+03  0.00000000000E+00 0.  1.
         11    1    5    5    0    0  0.16803184111E+01 -0.98881937536E+01  0.12294207558E+02  0.15866549252E+02  0.00000000000E+00 0.  1.
        -11    1    5    5    0    0  0.29610963402E+03  0.13637893108E+03  0.35205117667E+03  0.47981262926E+03  0.00000000000E+00 0. -1.
          1    1    6    6  503    0  0.16515768630E+03 -0.68212709642E+03  0.57658470311E+02  0.70420092034E+03  0.00000000000E+00 0. -1.
         -1    1    6    6    0  503 -0.57588448487E+01 -0.46244649387E+02 -0.12793702124E+02  0.48326087209E+02  0.00000000000E+00 0.  1.
<mgrwt>
<rscale>  0 0.19543704E+04</rscale>
<asrwt>0</asrwt>
<pdfrwt beam="1">  1        2 0.19123426E+00 0.19543704E+04</pdfrwt>
<pdfrwt beam="2">  1       -1 0.11818472E+00 0.19543704E+04</pdfrwt>
<totfact> 0.12199603E+01</totfact>
</mgrwt>
</event>
<event>
12    6  0.9533401E-008  0.1189594E+04  0.7818608E-02  0.9122014E-01
         -1   -1    0    0    0  501 -0.00000000000E+00  0.00000000000E+00  0.58465447823E+03  0.58465447823E+03  0.00000000000E+00 0.  1.
          2   -1    0    0  501    0  0.00000000000E+00 -0.00000000000E+00 -0.60511532739E+03  0.60511532739E+03  0.00000000000E+00 0. -1.
         24    2    1    2    0    0 -0.87765420246E+02 -0.22498941868E+03  0.29941484954E+01  0.25447114522E+03  0.80147310078E+02 0.  0.
        254    2    1    2    0    0  0.87765420246E+02  0.22498941868E+03 -0.23454997658E+02  0.93529866041E+03  0.90327760945E+03 0.  0.
         23    2    4    4    0    0  0.65321565225E+02  0.49364460475E+03 -0.25722777642E+03  0.56707589852E+03  0.86354172078E+02 0.  0.
         23    2    4    4    0    0  0.22443855020E+02 -0.26865518607E+03  0.23377277876E+03  0.36822276189E+03  0.90878791008E+02 0.  0.
          2    1    3    3  502    0 -0.70115843906E+02 -0.86409564842E+02 -0.19495841166E+02  0.11297314852E+03  0.00000000000E+00 0. -1.
         -3    1    3    3    0  502 -0.17649576340E+02 -0.13857985384E+03  0.22489989661E+02  0.14149799670E+03  0.00000000000E+00 0.  1.
         11    1    5    5    0    0  0.74501910167E+02  0.30466264315E+03 -0.18761540106E+03  0.36547147558E+03  0.00000000000E+00 0.  1.
        -11    1    5    5    0    0 -0.91803449420E+01  0.18898196160E+03 -0.69612375357E+02  0.20160442294E+03  0.00000000000E+00 0. -1.
          1    1    6    6  503    0 -0.26835234972E+02 -0.28891837846E+02  0.26858511094E+02  0.47710038234E+02  0.00000000000E+00 0. -1.
         -1    1    6    6    0  503  0.49279089993E+02 -0.23976334822E+03  0.20691426766E+03  0.32051272366E+03  0.00000000000E+00 0.  1.
<mgrwt>
<rscale>  0 0.11895939E+04</rscale>
<asrwt>0</asrwt>
<pdfrwt beam="1">  1        2 0.93094666E-01 0.11895939E+04</pdfrwt>
<pdfrwt beam="2">  1       -1 0.89946843E-01 0.11895939E+04</pdfrwt>
<totfact> 0.67034719E+01</totfact>
</mgrwt>
</event>
<event>
12    6  0.9533401E-008  0.1090420E+04  0.7818608E-02  0.9214579E-01
         -1   -1    0    0    0  501 -0.00000000000E+00  0.00000000000E+00  0.36381179105E+03  0.36381179105E+03  0.00000000000E+00 0.  1.
          2   -1    0    0  501    0  0.00000000000E+00 -0.00000000000E+00 -0.81705483792E+03  0.81705483792E+03  0.00000000000E+00 0. -1.
         24    2    1    2    0    0 -0.12842558684E+03  0.31085421275E+02 -0.17183388747E+03  0.23078376615E+03  0.79213806039E+02 0.  0.
        254    2    1    2    0    0  0.12842558684E+03 -0.31085421275E+02 -0.28140915940E+03  0.95008286281E+03  0.89777886834E+03 0.  0.
         23    2    4    4    0    0 -0.38377288059E+02 -0.17889941606E+03 -0.55147549677E+03  0.58803198763E+03  0.90435488795E+02 0.  0.
         23    2    4    4    0    0  0.16680287490E+03  0.14781399479E+03  0.27006633737E+03  0.36205087518E+03  0.92047995702E+02 0.  0.
          4    1    3    3  502    0 -0.12857519133E+03  0.71389911859E+01 -0.15499436327E+03  0.20150880294E+03  0.00000000000E+00 0. -1.
         -3    1    3    3    0  502  0.14960448985E+00  0.23946430089E+02 -0.16839524203E+02  0.29274963209E+02  0.00000000000E+00 0.  1.
         11    1    5    5    0    0  0.80709864468E+00 -0.52077144340E+02 -0.29164855062E+03  0.29626264944E+03  0.00000000000E+00 0. -1.
        -11    1    5    5    0    0 -0.39184386703E+02 -0.12682227172E+03 -0.25982694614E+03  0.29176933819E+03  0.00000000000E+00 0.  1.
          2    1    6    6  503    0  0.12582827898E+03  0.74586729883E+02  0.22046185366E+03  0.26457393103E+03  0.00000000000E+00 0. -1.
         -2    1    6    6    0  503  0.40974595919E+02  0.73227264906E+02  0.49604483708E+02  0.97476944147E+02  0.00000000000E+00 0.  1.
<mgrwt>
<rscale>  0 0.10904204E+04</rscale>
<asrwt>0</asrwt>
<pdfrwt beam="1">  1        2 0.12570074E+00 0.10904204E+04</pdfrwt>
<pdfrwt beam="2">  1       -1 0.55971046E-01 0.10904204E+04</pdfrwt>
<totfact> 0.12260072E+02</totfact>
</mgrwt>
</event>
<event>
12    6  0.9533401E-008  0.1486459E+04  0.7818608E-02  0.8893508E-01
         -1   -1    0    0    0  501 -0.00000000000E+00  0.00000000000E+00  0.40105935736E+03  0.40105935736E+03  0.00000000000E+00 0.  1.
          2   -1    0    0  501    0  0.00000000000E+00 -0.00000000000E+00 -0.13773276121E+04  0.13773276121E+04  0.00000000000E+00 0. -1.
         24    2    1    2    0    0 -0.17898518031E+03  0.33868666809E+03 -0.11003219411E+03  0.40638326871E+03  0.79346855243E+02 0.  0.
        254    2    1    2    0    0  0.17898518031E+03 -0.33868666809E+03 -0.86623606062E+03  0.13720037008E+04  0.99261517631E+03 0.  0.
         23    2    4    4    0    0 -0.12325034318E+03 -0.62152983804E+03 -0.53979592557E+03  0.83722013086E+03  0.89821598720E+02 0.  0.
         23    2    4    4    0    0  0.30223552348E+03  0.28284316995E+03 -0.32644013505E+03  0.53478356989E+03  0.89909590187E+02 0.  0.
          4    1    3    3  502    0 -0.17960019817E+02  0.21787531505E+01 -0.66187252280E+01  0.19264392043E+02  0.00000000000E+00 0. -1.
         -3    1    3    3    0  502 -0.16102516049E+03  0.33650791494E+03 -0.10341346888E+03  0.38711887667E+03  0.00000000000E+00 0.  1.
         11    1    5    5    0    0 -0.10313835364E+03 -0.55944392116E+03 -0.44555747153E+03  0.72259011988E+03  0.00000000000E+00 0. -1.
        -11    1    5    5    0    0 -0.20111989532E+02 -0.62085916877E+02 -0.94238454043E+02  0.11463001098E+03  0.00000000000E+00 0.  1.
          2    1    6    6  503    0  0.30008790194E+03  0.26033294146E+03 -0.32279028535E+03  0.51187845981E+03  0.00000000000E+00 0. -1.
         -2    1    6    6    0  503  0.21476215466E+01  0.22510228491E+02 -0.36498497020E+01  0.22905110082E+02  0.00000000000E+00 0.  1.
<mgrwt>
<rscale>  0 0.14864591E+04</rscale>
<asrwt>0</asrwt>
<pdfrwt beam="1">  1        2 0.21189655E+00 0.14864591E+04</pdfrwt>
<pdfrwt beam="2">  1       -1 0.61701441E-01 0.14864591E+04</pdfrwt>
<totfact> 0.43789178E+01</totfact>
</mgrwt>
</event>
<event>
12    6  0.9533401E-008  0.2506700E+04  0.7818608E-02  0.8400603E-01
          2   -1    0    0  501    0  0.00000000000E+00  0.00000000000E+00  0.18182824059E+04  0.18182824059E+04  0.00000000000E+00 0. -1.
         -1   -1    0    0    0  501 -0.00000000000E+00 -0.00000000000E+00 -0.86393940660E+03  0.86393940660E+03  0.00000000000E+00 0.  1.
         24    2    1    2    0    0 -0.51288003287E+02  0.96276187858E+03 -0.11477436342E+03  0.97427020394E+03  0.80550491379E+02 0.  0.
        254    2    1    2    0    0  0.51288003287E+02 -0.96276187858E+03  0.10691173627E+04  0.17079516086E+04  0.91899176702E+03 0.  0.
         23    2    4    4    0    0  0.32778203089E+03 -0.15285015795E+02  0.25837709066E+03  0.42740419016E+03  0.90779564375E+02 0.  0.
         23    2    4    4    0    0 -0.27649402761E+03 -0.94747686278E+03  0.81074027209E+03  0.12805474184E+04  0.91326607581E+02 0.  0.
          2    1    3    3  502    0  0.89101828993E+01  0.14130288200E+03 -0.40522538364E+02  0.14726836706E+03  0.00000000000E+00 0. -1.
         -1    1    3    3    0  502 -0.60198186186E+02  0.82145899658E+03 -0.74251825054E+02  0.82700183688E+03  0.00000000000E+00 0.  1.
         11    1    5    5    0    0  0.26686995622E+03  0.23382625013E+02  0.19466236956E+03  0.33114914889E+03  0.00000000000E+00 0. -1.
        -11    1    5    5    0    0  0.60912074673E+02 -0.38667640808E+02  0.63714721099E+02  0.96255041278E+02  0.00000000000E+00 0.  1.
          2    1    6    6  503    0 -0.17537815690E+02 -0.78804475742E+02  0.10096642509E+03  0.12927466639E+03  0.00000000000E+00 0.  1.
         -2    1    6    6    0  503 -0.25895621192E+03 -0.86867238704E+03  0.70977384700E+03  0.11512727520E+04  0.00000000000E+00 0. -1.
<mgrwt>
<rscale>  0 0.25066997E+04</rscale>
<asrwt>0</asrwt>
<pdfrwt beam="1">  1        2 0.27973575E+00 0.25066997E+04</pdfrwt>
<pdfrwt beam="2">  1       -1 0.13291376E+00 0.25066997E+04</pdfrwt>
<totfact> 0.40999112E+00</totfact>
</mgrwt>
</event>
<event>
12    6  0.9533401E-008  0.2219539E+04  0.7818608E-02  0.8510340E-01
         -1   -1    0    0    0  501 -0.00000000000E+00  0.00000000000E+00  0.63030301037E+03  0.63030301037E+03  0.00000000000E+00 0.  1.
          2   -1    0    0  501    0  0.00000000000E+00 -0.00000000000E+00 -0.19539614635E+04  0.19539614635E+04  0.00000000000E+00 0. -1.
         24    2    1    2    0    0  0.18179925611E+03 -0.39796896337E+03  0.39596304771E+03  0.59614020265E+03  0.84653061015E+02 0.  0.
        254    2    1    2    0    0 -0.18179925611E+03  0.39796896337E+03 -0.17196215009E+04  0.19881242712E+04  0.89672166605E+03 0.  0.
         23    2    4    4    0    0 -0.49553592499E+03  0.40141670577E+03 -0.13435389565E+04  0.14898615909E+04  0.88878613622E+02 0.  0.
         23    2    4    4    0    0  0.31373666888E+03 -0.34477423963E+01 -0.37608254438E+03  0.49826268031E+03  0.91569831642E+02 0.  0.
          2    1    3    3  502    0  0.40130704138E-01 -0.27760514528E+02  0.56972734297E+01  0.28339137281E+02  0.00000000000E+00 0. -1.
         -1    1    3    3    0  502  0.18175912540E+03 -0.37020844884E+03  0.39026577428E+03  0.56780106537E+03  0.00000000000E+00 0.  1.
         11    1    5    5    0    0 -0.29044642105E+03  0.23597256124E+03 -0.88746503000E+03  0.96313880237E+03  0.00000000000E+00 0. -1.
        -11    1    5    5    0    0 -0.20508950394E+03  0.16544414452E+03 -0.45607392647E+03  0.52672278856E+03  0.00000000000E+00 0.  1.
          2    1    6    6  503    0  0.29046982404E+03 -0.25427981417E+02 -0.31457281125E+03  0.42892348327E+03  0.00000000000E+00 0. -1.
         -2    1    6    6    0  503  0.23266844840E+02  0.21980239021E+02 -0.61509733134E+02  0.69339197042E+02  0.00000000000E+00 0.  1.
<mgrwt>
<rscale>  0 0.22195385E+04</rscale>
<asrwt>0</asrwt>
<pdfrwt beam="1">  1        2 0.30060946E+00 0.22195385E+04</pdfrwt>
<pdfrwt beam="2">  1       -1 0.96969693E-01 0.22195385E+04</pdfrwt>
<totfact> 0.75253719E+00</totfact>
</mgrwt>
</event>
<event>
12    6  0.9533401E-008  0.2100338E+04  0.7818608E-02  0.8561095E-01
          2   -1    0    0  501    0  0.00000000000E+00  0.00000000000E+00  0.92434878031E+03  0.92434878031E+03  0.00000000000E+00 0. -1.
         -1   -1    0    0    0  501 -0.00000000000E+00 -0.00000000000E+00 -0.11931150282E+04  0.11931150282E+04  0.00000000000E+00 0.  1.
         24    2    1    2    0    0 -0.17000506905E+03 -0.78917123181E+03  0.17580518401E+03  0.83008908108E+03  0.80296096933E+02 0.  0.
        254    2    1    2    0    0  0.17000506905E+03  0.78917123181E+03 -0.44457143192E+03  0.12873747274E+04  0.89888651907E+03 0.  0.
         23    2    4    4    0    0  0.64626108559E+02 -0.18666472187E+03 -0.13310622721E+03  0.25345869371E+03  0.86624415711E+02 0.  0.
         23    2    4    4    0    0  0.10537896049E+03  0.97583595368E+03 -0.31146520471E+03  0.10339160337E+04  0.92796860198E+02 0.  0.
          2    1    3    3  502    0 -0.20871691565E+01 -0.46621147936E+02 -0.68931726244E+01  0.47174182969E+02  0.00000000000E+00 0. -1.
         -1    1    3    3    0  502 -0.16791789989E+03 -0.74255008388E+03  0.18269835663E+03  0.78291489811E+03  0.00000000000E+00 0.  1.
         11    1    5    5    0    0  0.24948654573E+02 -0.15670540464E+03 -0.70827542570E+02  0.17376869682E+03  0.00000000000E+00 0.  1.
        -11    1    5    5    0    0  0.39677453986E+02 -0.29959317227E+02 -0.62278684639E+02  0.79689996888E+02  0.00000000000E+00 0. -1.
          1    1    6    6  503    0  0.57075281911E+02  0.38859804043E+03 -0.16982670732E+03  0.42791019543E+03  0.00000000000E+00 0. -1.
         -1    1    6    6    0  503  0.48303678581E+02  0.58723791325E+03 -0.14163849739E+03  0.60600583831E+03  0.00000000000E+00 0.  1.
<mgrwt>
<rscale>  0 0.21003375E+04</rscale>
<asrwt>0</asrwt>
<pdfrwt beam="1">  1        2 0.14220751E+00 0.21003375E+04</pdfrwt>
<pdfrwt beam="2">  1       -1 0.18355616E+00 0.21003375E+04</pdfrwt>
<totfact> 0.58254366E+00</totfact>
</mgrwt>
</event>
<event>
12    6  0.9533401E-008  0.2882333E+04  0.7818608E-02  0.8278153E-01
          2   -1    0    0  501    0  0.00000000000E+00  0.00000000000E+00  0.30723110223E+04  0.30723110223E+04  0.00000000000E+00 0. -1.
         -1   -1    0    0    0  501 -0.00000000000E+00 -0.00000000000E+00 -0.67602545138E+03  0.67602545138E+03  0.00000000000E+00 0.  1.
         24    2    1    2    0    0  0.55688414837E+03  0.98960083216E+03  0.18982064125E+04  0.22133885456E+04  0.80445681531E+02 0.  0.
        254    2    1    2    0    0 -0.55688414837E+03 -0.98960083216E+03  0.49807915848E+03  0.15349479281E+04  0.90473893044E+03 0.  0.
         23    2    4    4    0    0 -0.68972620063E+02 -0.23267315211E+03 -0.25051164692E+03  0.36035052599E+03  0.90567092875E+02 0.  0.
         23    2    4    4    0    0 -0.48791152831E+03 -0.75692768005E+03  0.74859080540E+03  0.11745974021E+04  0.91069703511E+02 0.  0.
          2    1    3    3  502    0  0.27033964291E+03  0.53028629651E+03  0.93196439742E+03  0.11058230947E+04  0.00000000000E+00 0. -1.
         -1    1    3    3    0  502  0.28654450546E+03  0.45931453565E+03  0.96624201506E+03  0.11075654509E+04  0.00000000000E+00 0.  1.
         11    1    5    5    0    0 -0.12255216025E+02 -0.94152612870E+02 -0.15816029010E+03  0.18447108769E+03  0.00000000000E+00 0.  1.
        -11    1    5    5    0    0 -0.56717404037E+02 -0.13852053924E+03 -0.92351356825E+02  0.17587943830E+03  0.00000000000E+00 0. -1.
          1    1    6    6  503    0 -0.20414809816E+03 -0.34956803005E+03  0.39061996974E+03  0.56254618866E+03  0.00000000000E+00 0. -1.
         -1    1    6    6    0  503 -0.28376343015E+03 -0.40735965000E+03  0.35797083566E+03  0.61205121348E+03  0.00000000000E+00 0.  1.
<mgrwt>
<rscale>  0 0.28823327E+04</rscale>
<asrwt>0</asrwt>
<pdfrwt beam="1">  1        2 0.47266323E+00 0.28823327E+04</pdfrwt>
<pdfrwt beam="2">  1       -1 0.10400392E+00 0.28823327E+04</pdfrwt>
<totfact> 0.13392953E+00</totfact>
</mgrwt>
</event>
<event>
12    6  0.9533401E-008  0.3210322E+04  0.7818608E-02  0.8186096E-01
         -1   -1    0    0    0  501 -0.00000000000E+00  0.00000000000E+00  0.24086490024E+04  0.24086490024E+04  0.00000000000E+00 0.  1.
          2   -1    0    0  501    0  0.00000000000E+00 -0.00000000000E+00 -0.10697042322E+04  0.10697042322E+04  0.00000000000E+00 0. -1.
         24    2    1    2    0    0  0.89127963717E+03 -0.11168984904E+04  0.15739260737E+03  0.14398148338E+04  0.80328656788E+02 0.  0.
        254    2    1    2    0    0 -0.89127963717E+03  0.11168984904E+04  0.11815521629E+04  0.20385384008E+04  0.84719045580E+03 0.  0.
         23    2    4    4    0    0 -0.95624347107E+03  0.68651330489E+03  0.65691209484E+03  0.13508988892E+04  0.87705271538E+02 0.  0.
         23    2    4    4    0    0  0.64963833900E+02  0.43038518555E+03  0.52464006804E+03  0.68763951165E+03  0.90272860373E+02 0.  0.
          2    1    3    3  502    0  0.51224226781E+03 -0.61163191872E+03  0.12317230546E+03  0.80725284872E+03  0.00000000000E+00 0. -1.
         -1    1    3    3    0  502  0.37903736937E+03 -0.50526657172E+03  0.34220301907E+02  0.63256198506E+03  0.00000000000E+00 0.  1.
         11    1    5    5    0    0 -0.39339347479E+03  0.26297949243E+03  0.31004842196E+03  0.56572666846E+03  0.00000000000E+00 0. -1.
        -11    1    5    5    0    0 -0.56284999628E+03  0.42353381246E+03  0.34686367288E+03  0.78517222071E+03  0.00000000000E+00 0.  1.
          1    1    6    6  503    0  0.54564725132E+02  0.10061578981E+03  0.14250237491E+03  0.18277793423E+03  0.00000000000E+00 0. -1.
         -1    1    6    6    0  503  0.10399108767E+02  0.32976939575E+03  0.38213769314E+03  0.50486157742E+03  0.00000000000E+00 0.  1.
<mgrwt>
<rscale>  0 0.32103221E+04</rscale>
<asrwt>0</asrwt>
<pdfrwt beam="1">  1        2 0.16456988E+00 0.32103221E+04</pdfrwt>
<pdfrwt beam="2">  1       -1 0.37056138E+00 0.32103221E+04</pdfrwt>
<totfact> 0.24691265E-01</totfact>
</mgrwt>
</event>
<event>
12    6  0.9533401E-008  0.2321185E+04  0.7818608E-02  0.8469615E-01
          2   -1    0    0  501    0  0.00000000000E+00  0.00000000000E+00  0.12794577769E+04  0.12794577769E+04  0.00000000000E+00 0. -1.
         -1   -1    0    0    0  501 -0.00000000000E+00 -0.00000000000E+00 -0.10527701264E+04  0.10527701264E+04  0.00000000000E+00 0.  1.
         24    2    1    2    0    0 -0.48343679369E+03  0.74685004181E+02 -0.76356181794E+03  0.91034886463E+03  0.80121296577E+02 0.  0.
        254    2    1    2    0    0  0.48343679369E+03 -0.74685004181E+02  0.99024946842E+03  0.14218790386E+04  0.89546468795E+03 0.  0.
         23    2    4    4    0    0 -0.99880398460E+02  0.17934406765E+03  0.66393563736E+03  0.70101905482E+03  0.92069517599E+02 0.  0.
         23    2    4    4    0    0  0.58331719215E+03 -0.25402907184E+03  0.32631383107E+03  0.72085998378E+03  0.91480510915E+02 0.  0.
          2    1    3    3  502    0 -0.18344792346E+03  0.23694697628E+02 -0.36198101508E+03  0.40650317907E+03  0.00000000000E+00 0. -1.
         -1    1    3    3    0  502 -0.29998887023E+03  0.50990306553E+02 -0.40158080286E+03  0.50384568556E+03  0.00000000000E+00 0.  1.
         11    1    5    5    0    0 -0.90359251310E+02  0.17266886801E+03  0.49947617465E+03  0.53614902902E+03  0.00000000000E+00 0. -1.
        -11    1    5    5    0    0 -0.95211471501E+01  0.66751996407E+01  0.16445946270E+03  0.16487002580E+03  0.00000000000E+00 0.  1.
          4    1    6    6  503    0  0.52257518035E+03 -0.20971823721E+03  0.31385389941E+03  0.64464783278E+03  0.00000000000E+00 0. -1.
         -4    1    6    6    0  503  0.60742011797E+02 -0.44310834630E+02  0.12459931653E+02  0.76212150997E+02  0.00000000000E+00 0.  1.
<mgrwt>
<rscale>  0 0.23211850E+04</rscale>
<asrwt>0</asrwt>
<pdfrwt beam="1">  1        2 0.19683966E+00 0.23211850E+04</pdfrwt>
<pdfrwt beam="2">  1       -1 0.16196464E+00 0.23211850E+04</pdfrwt>
<totfact> 0.49510007E+00</totfact>
</mgrwt>
</event>
<event>
12    6  0.9533401E-008  0.2394316E+04  0.7818608E-02  0.8441634E-01
         -1   -1    0    0    0  501 -0.00000000000E+00  0.00000000000E+00  0.82183355875E+03  0.82183355875E+03  0.00000000000E+00 0.  1.
          2   -1    0    0  501    0  0.00000000000E+00 -0.00000000000E+00 -0.17438906273E+04  0.17438906273E+04  0.00000000000E+00 0. -1.
         24    2    1    2    0    0 -0.94711336129E+03 -0.39071906364E+03 -0.32087258425E+03  0.10765444384E+04  0.79395256266E+02 0.  0.
        254    2    1    2    0    0  0.94711336129E+03  0.39071906364E+03 -0.60118448428E+03  0.14891797476E+04  0.89808041443E+03 0.  0.
         23    2    4    4    0    0 -0.69326348400E+02  0.31028155849E+03 -0.21721319292E+03  0.39586331824E+03  0.91898897874E+02 0.  0.
         23    2    4    4    0    0  0.10164397097E+04  0.80437505149E+02 -0.38397129135E+03  0.10933164294E+04  0.91032886907E+02 0.  0.
          4    1    3    3  502    0 -0.82068322326E+02 -0.32379726588E+02 -0.49808740358E+01  0.88365521158E+02  0.00000000000E+00 0. -1.
         -3    1    3    3    0  502 -0.86504503897E+03 -0.35833933705E+03 -0.31589171022E+03  0.98817891725E+03  0.00000000000E+00 0.  1.
         11    1    5    5    0    0 -0.67708340781E+02  0.10350762858E+03 -0.71050706023E+02  0.14264098784E+03  0.00000000000E+00 0. -1.
        -11    1    5    5    0    0 -0.16180076194E+01  0.20677392991E+03 -0.14616248690E+03  0.25322233040E+03  0.00000000000E+00 0.  1.
          1    1    6    6  503    0  0.92290436049E+03  0.46305641898E+02 -0.34375977269E+03  0.98593481143E+03  0.00000000000E+00 0. -1.
         -1    1    6    6    0  503  0.93535349207E+02  0.34131863250E+02 -0.40211518661E+02  0.10738161795E+03  0.00000000000E+00 0.  1.
<mgrwt>
<rscale>  0 0.23943165E+04</rscale>
<asrwt>0</asrwt>
<pdfrwt beam="1">  1        2 0.26829086E+00 0.23943165E+04</pdfrwt>
<pdfrwt beam="2">  1       -1 0.12643593E+00 0.23943165E+04</pdfrwt>
<totfact> 0.51645574E+00</totfact>
</mgrwt>
</event>
<event>
12    6  0.9533401E-008  0.2262249E+04  0.7818608E-02  0.8492956E-01
         -1   -1    0    0    0  501 -0.00000000000E+00  0.00000000000E+00  0.14775901520E+04  0.14775901520E+04  0.00000000000E+00 0.  1.
          2   -1    0    0  501    0  0.00000000000E+00 -0.00000000000E+00 -0.86589807629E+03  0.86589807629E+03  0.00000000000E+00 0. -1.
         24    2    1    2    0    0 -0.53342260203E+03  0.61095697690E+03  0.72618275068E+03  0.10915780336E+04  0.79956964419E+02 0.  0.
        254    2    1    2    0    0  0.53342260203E+03 -0.61095697690E+03 -0.11449067496E+03  0.12519101947E+04  0.94676444845E+03 0.  0.
         23    2    4    4    0    0  0.38192334197E+03 -0.57143614141E+03  0.33292608492E+03  0.76955881398E+03  0.94743270481E+02 0.  0.
         23    2    4    4    0    0  0.15149926006E+03 -0.39520835491E+02 -0.44741675988E+03  0.48235138068E+03  0.89259034194E+02 0.  0.
          4    1    3    3  502    0 -0.53535510245E+03  0.60265652751E+03  0.71493021572E+03  0.10774623841E+04  0.00000000000E+00 0. -1.
         -3    1    3    3    0  502  0.19325004227E+01  0.83004493924E+01  0.11252534957E+02  0.14115649505E+02  0.00000000000E+00 0.  1.
         11    1    5    5    0    0  0.34467728441E+03 -0.45056669461E+03  0.27588010571E+03  0.63081107267E+03  0.00000000000E+00 0. -1.
        -11    1    5    5    0    0  0.37246057557E+02 -0.12086944680E+03  0.57045979214E+02  0.13874774130E+03  0.00000000000E+00 0.  1.
          3    1    6    6  503    0 -0.84491520642E+01 -0.20532402315E+01 -0.72542208885E+02  0.73061453832E+02  0.00000000000E+00 0. -1.
         -3    1    6    6    0  503  0.15994841212E+03 -0.37467595260E+02 -0.37487455100E+03  0.40928992685E+03  0.00000000000E+00 0.  1.
<mgrwt>
<rscale>  0 0.22622489E+04</rscale>
<asrwt>0</asrwt>
<pdfrwt beam="1">  1        2 0.13321509E+00 0.22622489E+04</pdfrwt>
<pdfrwt beam="2">  1       -1 0.22732156E+00 0.22622489E+04</pdfrwt>
<totfact> 0.31561680E+00</totfact>
</mgrwt>
</event>
<event>
12    6  0.9533401E-008  0.1730186E+04  0.7818608E-02  0.8744333E-01
         -1   -1    0    0    0  501 -0.00000000000E+00  0.00000000000E+00  0.59507589839E+03  0.59507589839E+03  0.00000000000E+00 0.  1.
          2   -1    0    0  501    0  0.00000000000E+00 -0.00000000000E+00 -0.12576303840E+04  0.12576303840E+04  0.00000000000E+00 0. -1.
         24    2    1    2    0    0  0.30170141422E+03 -0.49654689702E+03  0.20429318807E+02  0.58675892686E+03  0.79285035758E+02 0.  0.
        254    2    1    2    0    0 -0.30170141422E+03  0.49654689702E+03 -0.68298380441E+03  0.12659473555E+04  0.89362926631E+03 0.  0.
         23    2    4    4    0    0 -0.28851765442E+03 -0.19534544161E+03 -0.16501478404E+03  0.39650854394E+03  0.92665354901E+02 0.  0.
         23    2    4    4    0    0 -0.13183759800E+02  0.69189233863E+03 -0.51796902037E+03  0.86943881159E+03  0.93504658992E+02 0.  0.
          2    1    3    3  502    0  0.72858168650E+02 -0.64199940256E+02 -0.10140302460E+01  0.97113198512E+02  0.00000000000E+00 0. -1.
         -1    1    3    3    0  502  0.22884324557E+03 -0.43234695677E+03  0.21443349053E+02  0.48964572834E+03  0.00000000000E+00 0.  1.
         11    1    5    5    0    0 -0.73078005869E+02 -0.18534421258E+02 -0.67627151009E+02  0.10127858247E+03  0.00000000000E+00 0. -1.
        -11    1    5    5    0    0 -0.21543964855E+03 -0.17681102035E+03 -0.97387633032E+02  0.29522996147E+03  0.00000000000E+00 0.  1.
          4    1    6    6  503    0 -0.32325658773E+02  0.82417509698E+02 -0.65192856762E+02  0.10994408894E+03  0.00000000000E+00 0. -1.
         -4    1    6    6    0  503  0.19141898973E+02  0.60947482893E+03 -0.45277616361E+03  0.75949472265E+03  0.00000000000E+00 0.  1.
<mgrwt>
<rscale>  0 0.17301856E+04</rscale>
<asrwt>0</asrwt>
<pdfrwt beam="1">  1        2 0.19348160E+00 0.17301856E+04</pdfrwt>
<pdfrwt beam="2">  1       -1 0.91550138E-01 0.17301856E+04</pdfrwt>
<totfact> 0.22037664E+01</totfact>
</mgrwt>
</event>
<event>
12    6  0.9533401E-008  0.1426676E+04  0.7818608E-02  0.8934732E-01
         -1   -1    0    0    0  501 -0.00000000000E+00  0.00000000000E+00  0.18516643425E+04  0.18516643425E+04  0.00000000000E+00 0.  1.
          2   -1    0    0  501    0  0.00000000000E+00 -0.00000000000E+00 -0.27480744134E+03  0.27480744134E+03  0.00000000000E+00 0. -1.
         24    2    1    2    0    0  0.64488346970E+02  0.18133692273E+03  0.10531372357E+04  0.10735790323E+04  0.80200218865E+02 0.  0.
        254    2    1    2    0    0 -0.64488346970E+02 -0.18133692273E+03  0.52371966546E+03  0.10528927515E+04  0.89289362841E+03 0.  0.
         23    2    4    4    0    0  0.21638417978E+03 -0.37748285210E+02  0.65726765198E+03  0.69908582755E+03  0.92049886750E+02 0.  0.
         23    2    4    4    0    0 -0.28087252675E+03 -0.14358863752E+03 -0.13354798651E+03  0.35380692392E+03  0.88527970738E+02 0.  0.
          4    1    3    3  502    0  0.14902870727E+02  0.58778697314E+02  0.16771309914E+03  0.17833876314E+03  0.00000000000E+00 0. -1.
         -3    1    3    3    0  502  0.49585476243E+02  0.12255822542E+03  0.88542413653E+03  0.89524026921E+03  0.00000000000E+00 0.  1.
         11    1    5    5    0    0  0.20372779354E+03 -0.49325513630E+02  0.64442252280E+03  0.67765655612E+03  0.00000000000E+00 0.  1.
        -11    1    5    5    0    0  0.12656386240E+02  0.11577228420E+02  0.12845129173E+02  0.21429271429E+02  0.00000000000E+00 0. -1.
          4    1    6    6  503    0 -0.10156508032E+03 -0.10058084376E+03 -0.50815960274E+02  0.15170442805E+03  0.00000000000E+00 0. -1.
         -4    1    6    6    0  503 -0.17930744643E+03 -0.43007793757E+02 -0.82732026241E+02  0.20210249586E+03  0.00000000000E+00 0.  1.
<mgrwt>
<rscale>  0 0.14266761E+04</rscale>
<asrwt>0</asrwt>
<pdfrwt beam="1">  1        2 0.42278069E-01 0.14266761E+04</pdfrwt>
<pdfrwt beam="2">  1       -1 0.28487143E+00 0.14266761E+04</pdfrwt>
<totfact> 0.55905506E+00</totfact>
</mgrwt>
</event>
<event>
12    6  0.9533401E-008  0.1888354E+04  0.7818608E-02  0.8660675E-01
          2   -1    0    0  501    0  0.00000000000E+00  0.00000000000E+00  0.27987176093E+04  0.27987176093E+04  0.00000000000E+00 0. -1.
         -1   -1    0    0    0  501 -0.00000000000E+00 -0.00000000000E+00 -0.31852823527E+03  0.31852823527E+03  0.00000000000E+00 0.  1.
         24    2    1    2    0    0 -0.44138430064E+02  0.55329745021E+03  0.19081592003E+03  0.59226041877E+03  0.79217541513E+02 0.  0.
        254    2    1    2    0    0  0.44138430064E+02 -0.55329745021E+03  0.22893734540E+04  0.25249854258E+04  0.90897432265E+03 0.  0.
         23    2    4    4    0    0  0.15699927574E+03  0.33340815531E+02  0.15902313862E+04  0.16008703215E+04  0.90496086836E+02 0.  0.
         23    2    4    4    0    0 -0.11286084567E+03 -0.58663826574E+03  0.69914206774E+03  0.92411510434E+03  0.91143128501E+02 0.  0.
          2    1    3    3  502    0 -0.34828437812E+02  0.81407688358E+02  0.25131440359E+02  0.92042496156E+02  0.00000000000E+00 0. -1.
         -1    1    3    3    0  502 -0.93099922519E+01  0.47188976185E+03  0.16568447967E+03  0.50021792261E+03  0.00000000000E+00 0.  1.
         11    1    5    5    0    0  0.37359991146E+02  0.45295312271E+02  0.71702965833E+03  0.71942961100E+03  0.00000000000E+00 0. -1.
        -11    1    5    5    0    0  0.11963928459E+03 -0.11954496740E+02  0.87320172791E+03  0.88144071045E+03  0.00000000000E+00 0.  1.
          1    1    6    6  503    0  0.33275625429E+01 -0.14882609741E+03  0.21050418483E+03  0.25782220962E+03  0.00000000000E+00 0. -1.
         -1    1    6    6    0  503 -0.11618840822E+03 -0.43781216833E+03  0.48863788291E+03  0.66629289472E+03  0.00000000000E+00 0.  1.
<mgrwt>
<rscale>  0 0.18883544E+04</rscale>
<asrwt>0</asrwt>
<pdfrwt beam="1">  1        2 0.43057192E+00 0.18883544E+04</pdfrwt>
<pdfrwt beam="2">  1       -1 0.49004346E-01 0.18883544E+04</pdfrwt>
<totfact> 0.10331531E+01</totfact>
</mgrwt>
</event>
<event>
12    6  0.9533401E-008  0.1457122E+04  0.7818608E-02  0.8913478E-01
         -1   -1    0    0    0  501 -0.00000000000E+00  0.00000000000E+00  0.19962416866E+03  0.19962416866E+03  0.00000000000E+00 0.  1.
          2   -1    0    0  501    0  0.00000000000E+00 -0.00000000000E+00 -0.26590006884E+04  0.26590006884E+04  0.00000000000E+00 0. -1.
         24    2    1    2    0    0 -0.39801268748E+03  0.20345659810E+03 -0.77745745091E+03  0.90021869014E+03  0.78389510815E+02 0.  0.
        254    2    1    2    0    0  0.39801268748E+03 -0.20345659810E+03 -0.16819190688E+04  0.19584061669E+04  0.89816160784E+03 0.  0.
         23    2    4    4    0    0 -0.11093955285E+03 -0.75396592549E+02  0.31790461283E+02  0.16380584544E+03  0.88484411144E+02 0.  0.
         23    2    4    4    0    0  0.50895224033E+03 -0.12806000556E+03 -0.17137095301E+04  0.17946003214E+04  0.91423259042E+02 0.  0.
          2    1    3    3  502    0 -0.39651585807E+03  0.19397175321E+03 -0.74096624274E+03  0.86248526923E+03  0.00000000000E+00 0. -1.
         -1    1    3    3    0  502 -0.14968294079E+01  0.94848448936E+01 -0.36491208162E+02  0.37733420917E+02  0.00000000000E+00 0.  1.
         11    1    5    5    0    0 -0.28095570939E+02 -0.52588588057E+02 -0.20701257257E+02  0.63114679372E+02  0.00000000000E+00 0. -1.
        -11    1    5    5    0    0 -0.82843981913E+02 -0.22808004492E+02  0.52491718540E+02  0.10069116606E+03  0.00000000000E+00 0.  1.
          3    1    6    6  503    0  0.23934895771E+03 -0.13481348980E+02 -0.78356270067E+03  0.81941453258E+03  0.00000000000E+00 0. -1.
         -3    1    6    6    0  503  0.26960328262E+03 -0.11457865658E+03 -0.93014682940E+03  0.97518578885E+03  0.00000000000E+00 0.  1.
<mgrwt>
<rscale>  0 0.14571215E+04</rscale>
<asrwt>0</asrwt>
<pdfrwt beam="1">  1        2 0.40907701E+00 0.14571215E+04</pdfrwt>
<pdfrwt beam="2">  1       -1 0.30711412E-01 0.14571215E+04</pdfrwt>
<totfact> 0.30493779E+01</totfact>
</mgrwt>
</event>
<event>
12    6  0.9533401E-008  0.1955265E+04  0.7818608E-02  0.8627826E-01
         -1   -1    0    0    0  501 -0.00000000000E+00  0.00000000000E+00  0.71760963757E+03  0.71760963757E+03  0.00000000000E+00 0.  1.
          2   -1    0    0  501    0  0.00000000000E+00 -0.00000000000E+00 -0.13318740316E+04  0.13318740316E+04  0.00000000000E+00 0. -1.
         24    2    1    2    0    0  0.55190631922E+03  0.14309793575E+03 -0.77722918659E+03  0.96724019797E+03  0.79942402293E+02 0.  0.
        254    2    1    2    0    0 -0.55190631922E+03 -0.14309793575E+03  0.16296479258E+03  0.10822434712E+04  0.90532635159E+03 0.  0.
         23    2    4    4    0    0 -0.79574986593E+02 -0.70774482654E+02  0.48088540684E+03  0.50103509791E+03  0.91892268140E+02 0.  0.
         23    2    4    4    0    0 -0.47233133263E+03 -0.72323453100E+02 -0.31792061426E+03  0.58120837327E+03  0.91662896201E+02 0.  0.
          4    1    3    3  502    0  0.31658849367E+02  0.16356979826E+02 -0.23556659212E+02  0.42717089385E+02  0.00000000000E+00 0. -1.
         -3    1    3    3    0  502  0.52024746985E+03  0.12674095593E+03 -0.75367252737E+03  0.92452310859E+03  0.00000000000E+00 0.  1.
         11    1    5    5    0    0 -0.45989800808E+02 -0.18732485026E+02  0.37570520809E+03  0.37897278420E+03  0.00000000000E+00 0.  1.
        -11    1    5    5    0    0 -0.33585185785E+02 -0.52041997629E+02  0.10518019874E+03  0.12206231371E+03  0.00000000000E+00 0. -1.
          1    1    6    6  503    0 -0.72039471850E+02  0.53576634374E+01 -0.16400067783E+02  0.74076664917E+02  0.00000000000E+00 0. -1.
         -1    1    6    6    0  503 -0.40029186078E+03 -0.77681116537E+02 -0.30152054647E+03  0.50713170835E+03  0.00000000000E+00 0.  1.
<mgrwt>
<rscale>  0 0.19552653E+04</rscale>
<asrwt>0</asrwt>
<pdfrwt beam="1">  1        2 0.20490370E+00 0.19552653E+04</pdfrwt>
<pdfrwt beam="2">  1       -1 0.11040148E+00 0.19552653E+04</pdfrwt>
<totfact> 0.12738408E+01</totfact>
</mgrwt>
</event>
<event>
12    6  0.9533401E-008  0.1362381E+04  0.7818608E-02  0.8981509E-01
          2   -1    0    0  501    0  0.00000000000E+00  0.00000000000E+00  0.29099255576E+04  0.29099255576E+04  0.00000000000E+00 0. -1.
         -1   -1    0    0    0  501 -0.00000000000E+00 -0.00000000000E+00 -0.15946124654E+03  0.15946124654E+03  0.00000000000E+00 0.  1.
         24    2    1    2    0    0  0.21768905649E+02 -0.17664356199E+03  0.30890196305E+02  0.19875727094E+03  0.82906062984E+02 0.  0.
        254    2    1    2    0    0 -0.21768905649E+02  0.17664356199E+03  0.27195741147E+04  0.28706295332E+04  0.90152854529E+03 0.  0.
         23    2    4    4    0    0 -0.15379159533E+03  0.43200409211E+03  0.78936739979E+03  0.91698184084E+03  0.86460477680E+02 0.  0.
         23    2    4    4    0    0  0.13202268968E+03 -0.25536053012E+03  0.19302067149E+04  0.19536476923E+04  0.91664346396E+02 0.  0.
          2    1    3    3  502    0 -0.20501466191E+02 -0.20545158723E+02  0.22669131504E+02  0.36828021751E+02  0.00000000000E+00 0. -1.
         -1    1    3    3    0  502  0.42270371840E+02 -0.15609840326E+03  0.82210648020E+01  0.16192924919E+03  0.00000000000E+00 0.  1.
         11    1    5    5    0    0 -0.50625123112E+02  0.58817482334E+02  0.16443145943E+03  0.18182437727E+03  0.00000000000E+00 0. -1.
        -11    1    5    5    0    0 -0.10316647221E+03  0.37318660977E+03  0.62493594035E+03  0.73515746357E+03  0.00000000000E+00 0.  1.
          2    1    6    6  503    0  0.38982283043E+02 -0.13365539405E+02  0.20900249248E+03  0.21302651923E+03  0.00000000000E+00 0. -1.
         -2    1    6    6    0  503  0.93040406635E+02 -0.24199499071E+03  0.17212042225E+04  0.17406211731E+04  0.00000000000E+00 0.  1.
<mgrwt>
<rscale>  0 0.13623808E+04</rscale>
<asrwt>0</asrwt>
<pdfrwt beam="1">  1        2 0.44768082E+00 0.13623808E+04</pdfrwt>
<pdfrwt beam="2">  1       -1 0.24532502E-01 0.13623808E+04</pdfrwt>
<totfact> 0.32133620E+01</totfact>
</mgrwt>
</event>
<event>
12    6  0.9533401E-008  0.1550609E+04  0.7818608E-02  0.8851479E-01
         -1   -1    0    0    0  501 -0.00000000000E+00  0.00000000000E+00  0.34416514540E+03  0.34416514540E+03  0.00000000000E+00 0.  1.
          2   -1    0    0  501    0  0.00000000000E+00 -0.00000000000E+00 -0.17465361704E+04  0.17465361704E+04  0.00000000000E+00 0. -1.
         24    2    1    2    0    0  0.95290263880E+02  0.47930949128E+03 -0.69594669650E+03  0.85405420901E+03  0.79050393648E+02 0.  0.
        254    2    1    2    0    0 -0.95290263880E+02 -0.47930949128E+03 -0.70642432848E+03  0.12366471068E+04  0.88963077284E+03 0.  0.
         23    2    4    4    0    0  0.38017618334E+03 -0.30184160356E+03 -0.28383755799E+03  0.57040903668E+03  0.95710113273E+02 0.  0.
         23    2    4    4    0    0 -0.47546644722E+03 -0.17746788773E+03 -0.42258677049E+03  0.66623807009E+03  0.87922658272E+02 0.  0.
          4    1    3    3  502    0  0.60331812042E+02  0.37966504268E+03 -0.59207767533E+03  0.70593303209E+03  0.00000000000E+00 0. -1.
         -3    1    3    3    0  502  0.34958451838E+02  0.99644448607E+02 -0.10386902117E+03  0.14812117692E+03  0.00000000000E+00 0.  1.
         11    1    5    5    0    0  0.36708812562E+03 -0.29970804609E+03 -0.29020830833E+03  0.55569728008E+03  0.00000000000E+00 0.  1.
        -11    1    5    5    0    0  0.13088057721E+02 -0.21335574689E+01  0.63707503424E+01  0.14711756602E+02  0.00000000000E+00 0. -1.
          4    1    6    6  503    0 -0.84342152121E+02  0.26668492679E+01 -0.73354048934E+02  0.11181022853E+03  0.00000000000E+00 0. -1.
         -4    1    6    6    0  503 -0.39112429510E+03 -0.18013473699E+03 -0.34923272156E+03  0.55442784156E+03  0.00000000000E+00 0.  1.
<mgrwt>
<rscale>  0 0.15506088E+04</rscale>
<asrwt>0</asrwt>
<pdfrwt beam="1">  1        2 0.26869787E+00 0.15506088E+04</pdfrwt>
<pdfrwt beam="2">  1       -1 0.52948484E-01 0.15506088E+04</pdfrwt>
<totfact> 0.36433175E+01</totfact>
</mgrwt>
</event>
<event>
12    6  0.9533401E-008  0.3721487E+04  0.7818608E-02  0.8063217E-01
         -1   -1    0    0    0  501 -0.00000000000E+00  0.00000000000E+00  0.16520369220E+04  0.16520369220E+04  0.00000000000E+00 0.  1.
          2   -1    0    0  501    0  0.00000000000E+00 -0.00000000000E+00 -0.20958165025E+04  0.20958165025E+04  0.00000000000E+00 0. -1.
         24    2    1    2    0    0 -0.13991388109E+04 -0.44544607267E+03 -0.11668819562E+04  0.18772423000E+04  0.80084562639E+02 0.  0.
        254    2    1    2    0    0  0.13991388109E+04  0.44544607267E+03  0.72310237573E+03  0.18706111245E+04  0.90570266509E+03 0.  0.
         23    2    4    4    0    0  0.10509684964E+04  0.66568554839E+03  0.73779298781E+03  0.14492603344E+04  0.91350938658E+02 0.  0.
         23    2    4    4    0    0  0.34817031446E+03 -0.22023947572E+03 -0.14690612083E+02  0.42135079017E+03  0.87135984263E+02 0.  0.
          4    1    3    3  502    0 -0.11611368477E+04 -0.39838871675E+03 -0.95939848460E+03  0.15580108475E+04  0.00000000000E+00 0. -1.
         -3    1    3    3    0  502 -0.23800196322E+03 -0.47057355914E+02 -0.20748347159E+03  0.31923145244E+03  0.00000000000E+00 0.  1.
         11    1    5    5    0    0  0.10178832057E+04  0.65418178001E+03  0.70060461441E+03  0.13981726816E+04  0.00000000000E+00 0. -1.
        -11    1    5    5    0    0  0.33085290754E+02  0.11503768383E+02  0.37188373403E+02  0.51087652790E+02  0.00000000000E+00 0.  1.
          1    1    6    6  503    0  0.28762448112E+03 -0.19994200546E+03  0.15671543585E+02  0.35064261716E+03  0.00000000000E+00 0. -1.
         -1    1    6    6    0  503  0.60545833338E+02 -0.20297470262E+02 -0.30362155668E+02  0.70708173010E+02  0.00000000000E+00 0.  1.
<mgrwt>
<rscale>  0 0.37214869E+04</rscale>
<asrwt>0</asrwt>
<pdfrwt beam="1">  1        2 0.32243331E+00 0.37214869E+04</pdfrwt>
<pdfrwt beam="2">  1       -1 0.25415953E+00 0.37214869E+04</pdfrwt>
<totfact> 0.35511544E-01</totfact>
</mgrwt>
</event>
<event>
12    6  0.9533401E-008  0.1076909E+04  0.7818608E-02  0.9227995E-01
         -1   -1    0    0    0  501 -0.00000000000E+00  0.00000000000E+00  0.19211814593E+03  0.19211814593E+03  0.00000000000E+00 0.  1.
          2   -1    0    0  501    0  0.00000000000E+00 -0.00000000000E+00 -0.15091398663E+04  0.15091398663E+04  0.00000000000E+00 0. -1.
         24    2    1    2    0    0  0.12607051749E+03 -0.21884379141E+02 -0.14645590201E+03  0.20976609651E+03  0.78611593161E+02 0.  0.
        254    2    1    2    0    0 -0.12607051749E+03  0.21884379141E+02 -0.11705658184E+04  0.14914919157E+04  0.91539668892E+03 0.  0.
         23    2    4    4    0    0 -0.69370409193E+01  0.41347836488E+03 -0.89256284594E+03  0.98802237788E+03  0.92235050104E+02 0.  0.
         23    2    4    4    0    0 -0.11913347657E+03 -0.39159398574E+03 -0.27800297241E+03  0.50346953782E+03  0.93044548140E+02 0.  0.
          2    1    3    3  502    0  0.11608095473E+03 -0.17310042869E+02 -0.15599562316E+03  0.19521541968E+03  0.00000000000E+00 0. -1.
         -1    1    3    3    0  502  0.99895627580E+01 -0.45743362717E+01  0.95397211517E+01  0.14550676825E+02  0.00000000000E+00 0.  1.
         11    1    5    5    0    0 -0.35421088102E+02  0.22503595511E+03 -0.40734647560E+03  0.46671938653E+03  0.00000000000E+00 0. -1.
        -11    1    5    5    0    0  0.28484047182E+02  0.18844240977E+03 -0.48521637034E+03  0.52130299135E+03  0.00000000000E+00 0.  1.
          2    1    6    6  503    0  0.22019655657E+01 -0.12881235333E+03 -0.66463094314E+02  0.14496487136E+03  0.00000000000E+00 0. -1.
         -2    1    6    6    0  503 -0.12133544214E+03 -0.26278163242E+03 -0.21153987809E+03  0.35850466647E+03  0.00000000000E+00 0.  1.
<mgrwt>
<rscale>  0 0.10769088E+04</rscale>
<asrwt>0</asrwt>
<pdfrwt beam="1">  1        2 0.23217538E+00 0.10769088E+04</pdfrwt>
<pdfrwt beam="2">  1       -1 0.29556636E-01 0.10769088E+04</pdfrwt>
<totfact> 0.14872026E+02</totfact>
</mgrwt>
</event>
<event>
12    6  0.9533401E-008  0.2697431E+04  0.7818608E-02  0.8335839E-01
          2   -1    0    0  501    0  0.00000000000E+00  0.00000000000E+00  0.27499565115E+04  0.27499565115E+04  0.00000000000E+00 0. -1.
         -1   -1    0    0    0  501 -0.00000000000E+00 -0.00000000000E+00 -0.66147703038E+03  0.66147703038E+03  0.00000000000E+00 0.  1.
         24    2    1    2    0    0  0.57727053749E+03  0.10383358638E+04  0.73842159049E+03  0.14010827188E+04  0.79898059389E+02 0.  0.
        254    2    1    2    0    0 -0.57727053749E+03 -0.10383358638E+04  0.13500578906E+04  0.20103508231E+04  0.89859417110E+03 0.  0.
         23    2    4    4    0    0 -0.65050743139E+03 -0.99590481854E+03  0.77694633138E+03  0.14233030208E+04  0.84614191087E+02 0.  0.
         23    2    4    4    0    0  0.73236893909E+02 -0.42431045305E+02  0.57311155922E+03  0.58704780227E+03  0.94890603383E+02 0.  0.
          2    1    3    3  502    0  0.89711624313E+02  0.11404830151E+03  0.75779446195E+02  0.16370007660E+03  0.00000000000E+00 0. -1.
         -1    1    3    3    0  502  0.48755891317E+03  0.92428756234E+03  0.66264214429E+03  0.12373826422E+04  0.00000000000E+00 0.  1.
         11    1    5    5    0    0 -0.27094480377E+03 -0.38737195156E+03  0.26294516685E+03  0.54093278354E+03  0.00000000000E+00 0. -1.
        -11    1    5    5    0    0 -0.37956262763E+03 -0.60853286698E+03  0.51400116454E+03  0.88237023728E+03  0.00000000000E+00 0.  1.
          1    1    6    6  503    0  0.13666800603E+02 -0.39763768243E+02  0.80305018540E+02  0.90646757837E+02  0.00000000000E+00 0. -1.
         -1    1    6    6    0  503  0.59570093306E+02 -0.26672770620E+01  0.49280654068E+03  0.49640104444E+03  0.00000000000E+00 0.  1.
<mgrwt>
<rscale>  0 0.26974307E+04</rscale>
<asrwt>0</asrwt>
<pdfrwt beam="1">  1        2 0.42307023E+00 0.26974307E+04</pdfrwt>
<pdfrwt beam="2">  1       -1 0.10176570E+00 0.26974307E+04</pdfrwt>
<totfact> 0.22631250E+00</totfact>
</mgrwt>
</event>
<event>
12    6  0.9533401E-008  0.1752312E+04  0.7818608E-02  0.8732079E-01
         -1   -1    0    0    0  501 -0.00000000000E+00  0.00000000000E+00  0.69307549523E+03  0.69307549523E+03  0.00000000000E+00 0.  1.
          2   -1    0    0  501    0  0.00000000000E+00 -0.00000000000E+00 -0.11075982280E+04  0.11075982280E+04  0.00000000000E+00 0. -1.
         24    2    1    2    0    0  0.21929071023E+03 -0.39183055131E+03 -0.67429929533E+03  0.81427942389E+03  0.82169604806E+02 0.  0.
        254    2    1    2    0    0 -0.21929071023E+03  0.39183055131E+03  0.25977656257E+03  0.98639429933E+03  0.83896975795E+03 0.  0.
         23    2    4    4    0    0 -0.31826528324E+03  0.34776002976E+03 -0.18750791341E+03  0.51616116128E+03  0.95043663727E+02 0.  0.
         23    2    4    4    0    0  0.98974573001E+02  0.44070521547E+02  0.44728447598E+03  0.47023313805E+03  0.96527844163E+02 0.  0.
          2    1    3    3  502    0  0.17062465797E+03 -0.22882706689E+03 -0.44723857517E+03  0.53056285543E+03  0.00000000000E+00 0. -1.
         -1    1    3    3    0  502  0.48666052270E+02 -0.16300348442E+03 -0.22706072016E+03  0.28371656846E+03  0.00000000000E+00 0.  1.
         11    1    5    5    0    0 -0.98989348955E+02  0.99768428077E+02 -0.10902671314E+02  0.14096630338E+03  0.00000000000E+00 0. -1.
        -11    1    5    5    0    0 -0.21927593428E+03  0.24799160168E+03 -0.17660524210E+03  0.37519485790E+03  0.00000000000E+00 0.  1.
          3    1    6    6  503    0 -0.99994663772E+01  0.55722054073E+01  0.39938374766E+01  0.12123924229E+02  0.00000000000E+00 0. -1.
         -3    1    6    6    0  503  0.10897403938E+03  0.38498316140E+02  0.44329063850E+03  0.45810921382E+03  0.00000000000E+00 0.  1.
<mgrwt>
<rscale>  0 0.17523118E+04</rscale>
<asrwt>0</asrwt>
<pdfrwt beam="1">  1        2 0.17039973E+00 0.17523118E+04</pdfrwt>
<pdfrwt beam="2">  1       -1 0.10662700E+00 0.17523118E+04</pdfrwt>
<totfact> 0.19134185E+01</totfact>
</mgrwt>
</event>
<event>
12    6  0.9533401E-008  0.2097091E+04  0.7818608E-02  0.8562526E-01
          2   -1    0    0  501    0  0.00000000000E+00  0.00000000000E+00  0.86569139626E+03  0.86569139626E+03  0.00000000000E+00 0. -1.
         -1   -1    0    0    0  501 -0.00000000000E+00 -0.00000000000E+00 -0.12700227207E+04  0.12700227207E+04  0.00000000000E+00 0.  1.
         24    2    1    2    0    0  0.54452623614E+03  0.18291128414E+03  0.47578030139E+03  0.75014731152E+03  0.79929557022E+02 0.  0.
        254    2    1    2    0    0 -0.54452623614E+03 -0.18291128414E+03 -0.88011162583E+03  0.13855668054E+04  0.90290284012E+03 0.  0.
         23    2    4    4    0    0 -0.56791907778E+03 -0.26755927851E+01 -0.99798041376E+03  0.11518741492E+04  0.91158716305E+02 0.  0.
         23    2    4    4    0    0  0.23392841637E+02 -0.18023569135E+03  0.11786878793E+03  0.23369265627E+03  0.87675977047E+02 0.  0.
          4    1    3    3  502    0  0.40348055541E+03  0.16600285463E+03  0.33418288176E+03  0.54957411220E+03  0.00000000000E+00 0. -1.
         -3    1    3    3    0  502  0.14104568073E+03  0.16908429505E+02  0.14159741962E+03  0.20057319932E+03  0.00000000000E+00 0.  1.
         11    1    5    5    0    0 -0.44578780227E+03 -0.22267880046E+02 -0.84009647019E+03  0.95130683923E+03  0.00000000000E+00 0.  1.
        -11    1    5    5    0    0 -0.12213127550E+03  0.19592287261E+02 -0.15788394356E+03  0.20056730993E+03  0.00000000000E+00 0. -1.
          2    1    6    6  503    0  0.27446384416E+02 -0.13952345415E+03  0.12824268095E+03  0.19148442102E+03  0.00000000000E+00 0.  1.
         -2    1    6    6    0  503 -0.40535427789E+01 -0.40712237204E+02 -0.10373893018E+02  0.42208235258E+02  0.00000000000E+00 0. -1.
<mgrwt>
<rscale>  0 0.20970911E+04</rscale>
<asrwt>0</asrwt>
<pdfrwt beam="1">  1        2 0.13318329E+00 0.20970911E+04</pdfrwt>
<pdfrwt beam="2">  1       -1 0.19538811E+00 0.20970911E+04</pdfrwt>
<totfact> 0.52730587E+00</totfact>
</mgrwt>
</event>
<event>
12    6  0.9533401E-008  0.1697193E+04  0.7818608E-02  0.8762967E-01
         -1   -1    0    0    0  501 -0.00000000000E+00  0.00000000000E+00  0.26695101906E+03  0.26695101906E+03  0.00000000000E+00 0.  1.
          2   -1    0    0  501    0  0.00000000000E+00 -0.00000000000E+00 -0.26975585437E+04  0.26975585437E+04  0.00000000000E+00 0. -1.
         24    2    1    2    0    0 -0.24191404672E+03  0.43834310460E+03 -0.14858053882E+04  0.15699258735E+04  0.79890633760E+02 0.  0.
        254    2    1    2    0    0  0.24191404672E+03 -0.43834310460E+03 -0.94480213639E+03  0.13945836892E+04  0.89529073820E+03 0.  0.
         23    2    4    4    0    0  0.40589440695E+03  0.10234892727E+03 -0.25795350309E+03  0.50059683348E+03  0.93976632316E+02 0.  0.
         23    2    4    4    0    0 -0.16398036023E+03 -0.54069203187E+03 -0.68684863330E+03  0.89398685572E+03  0.90631237777E+02 0.  0.
          2    1    3    3  502    0 -0.21819302161E+03  0.38316254056E+03 -0.12148729765E+04  0.12924155973E+04  0.00000000000E+00 0. -1.
         -1    1    3    3    0  502 -0.23721025114E+02  0.55180564033E+02 -0.27093241176E+03  0.27751027625E+03  0.00000000000E+00 0.  1.
         11    1    5    5    0    0  0.20333559886E+03  0.53748473117E+02 -0.18432258477E+03  0.27965886251E+03  0.00000000000E+00 0. -1.
        -11    1    5    5    0    0  0.20255880810E+03  0.48600454157E+02 -0.73630918320E+02  0.22093797097E+03  0.00000000000E+00 0.  1.
          2    1    6    6  503    0 -0.85878269714E+02 -0.34748351226E+03 -0.37045850245E+03  0.51513044031E+03  0.00000000000E+00 0. -1.
         -2    1    6    6    0  503 -0.78102090521E+02 -0.19320851961E+03 -0.31639013085E+03  0.37885641541E+03  0.00000000000E+00 0.  1.
<mgrwt>
<rscale>  0 0.16971930E+04</rscale>
<asrwt>0</asrwt>
<pdfrwt beam="1">  1        2 0.41500900E+00 0.16971930E+04</pdfrwt>
<pdfrwt beam="2">  1       -1 0.41069388E-01 0.16971930E+04</pdfrwt>
<totfact> 0.16800819E+01</totfact>
</mgrwt>
</event>
<event>
12    6  0.9533401E-008  0.2349478E+04  0.7818608E-02  0.8458664E-01
         -1   -1    0    0    0  501 -0.00000000000E+00  0.00000000000E+00  0.12485029267E+04  0.12485029267E+04  0.00000000000E+00 0.  1.
          2   -1    0    0  501    0  0.00000000000E+00 -0.00000000000E+00 -0.11053329553E+04  0.11053329553E+04  0.00000000000E+00 0. -1.
         24    2    1    2    0    0  0.58610931713E+02 -0.99556299551E+03  0.60788592745E+01  0.10007854342E+04  0.83388328866E+02 0.  0.
        254    2    1    2    0    0 -0.58610931713E+02  0.99556299551E+03  0.13709111217E+03  0.13530504478E+04  0.90408551694E+03 0.  0.
         23    2    4    4    0    0  0.20034186537E+03  0.32662997043E+03 -0.31092989430E+03  0.50239068596E+03  0.94313315967E+02 0.  0.
         23    2    4    4    0    0 -0.25895279708E+03  0.66893302508E+03  0.44802100647E+03  0.85065976185E+03  0.91494617497E+02 0.  0.
          4    1    3    3  502    0  0.23329360766E+02 -0.23253264244E+03 -0.32591268250E+02  0.23596160628E+03  0.00000000000E+00 0. -1.
         -3    1    3    3    0  502  0.35281570947E+02 -0.76303035307E+03  0.38670127524E+02  0.76482382790E+03  0.00000000000E+00 0.  1.
         11    1    5    5    0    0  0.16597565117E+03  0.18567809780E+03 -0.20838236479E+03  0.32472678167E+03  0.00000000000E+00 0. -1.
        -11    1    5    5    0    0  0.34366214203E+02  0.14095187264E+03 -0.10254752951E+03  0.17766390429E+03  0.00000000000E+00 0.  1.
          1    1    6    6  503    0 -0.14934435346E+03  0.46577311760E+03  0.26666070100E+03  0.55709627753E+03  0.00000000000E+00 0. -1.
         -1    1    6    6    0  503 -0.10960844362E+03  0.20315990748E+03  0.18136030547E+03  0.29356348431E+03  0.00000000000E+00 0.  1.
<mgrwt>
<rscale>  0 0.23494778E+04</rscale>
<asrwt>0</asrwt>
<pdfrwt beam="1">  1        2 0.17005122E+00 0.23494778E+04</pdfrwt>
<pdfrwt beam="2">  1       -1 0.19207737E+00 0.23494778E+04</pdfrwt>
<totfact> 0.38031717E+00</totfact>
</mgrwt>
</event>
<event>
12    6  0.9533401E-008  0.1093148E+04  0.7818608E-02  0.9211896E-01
          2   -1    0    0  501    0  0.00000000000E+00  0.00000000000E+00  0.16507143387E+04  0.16507143387E+04  0.00000000000E+00 0. -1.
         -1   -1    0    0    0  501 -0.00000000000E+00 -0.00000000000E+00 -0.18097810362E+03  0.18097810362E+03  0.00000000000E+00 0.  1.
         24    2    1    2    0    0  0.78216439870E+02 -0.10486094159E+03  0.39965278713E+03  0.42801143395E+03  0.79735868956E+02 0.  0.
        254    2    1    2    0    0 -0.78216439870E+02  0.10486094159E+03  0.10700834479E+04  0.14036810083E+04  0.89895948691E+03 0.  0.
         23    2    4    4    0    0 -0.27215121943E+03 -0.21055132026E+03  0.11253727403E+03  0.37315798584E+03  0.90466013781E+02 0.  0.
         23    2    4    4    0    0  0.19393477956E+03  0.31541226185E+03  0.95754617391E+03  0.10305230225E+04  0.89372429187E+02 0.  0.
          2    1    3    3  502    0  0.35284198098E+02 -0.49521564152E+01  0.47032837238E+02  0.59004968157E+02  0.00000000000E+00 0. -1.
         -1    1    3    3    0  502  0.42932241772E+02 -0.99908785177E+02  0.35261994989E+03  0.36900646580E+03  0.00000000000E+00 0.  1.
         11    1    5    5    0    0 -0.36371443541E+02 -0.72350638007E+01  0.37850936449E+02  0.52989823962E+02  0.00000000000E+00 0. -1.
        -11    1    5    5    0    0 -0.23577977589E+03 -0.20331625646E+03  0.74686337579E+02  0.32016816188E+03  0.00000000000E+00 0.  1.
          3    1    6    6  503    0 -0.36588889131E+01  0.49266182425E+02  0.12767404145E+03  0.13689852103E+03  0.00000000000E+00 0. -1.
         -3    1    6    6    0  503  0.19759366847E+03  0.26614607942E+03  0.82987213246E+03  0.89362450148E+03  0.00000000000E+00 0.  1.
<mgrwt>
<rscale>  0 0.10931480E+04</rscale>
<asrwt>0</asrwt>
<pdfrwt beam="1">  1        2 0.25395604E+00 0.10931480E+04</pdfrwt>
<pdfrwt beam="2">  1       -1 0.27842786E-01 0.10931480E+04</pdfrwt>
<totfact> 0.13742627E+02</totfact>
</mgrwt>
</event>
<event>
12    6  0.9533401E-008  0.1660831E+04  0.7818608E-02  0.8784025E-01
          2   -1    0    0  501    0  0.00000000000E+00  0.00000000000E+00  0.74296674416E+03  0.74296674416E+03  0.00000000000E+00 0. -1.
         -1   -1    0    0    0  501 -0.00000000000E+00 -0.00000000000E+00 -0.92815669656E+03  0.92815669656E+03  0.00000000000E+00 0.  1.
         24    2    1    2    0    0  0.43413919071E+03  0.22341481869E+03  0.26445589135E+03  0.56071498359E+03  0.77931740847E+02 0.  0.
        254    2    1    2    0    0 -0.43413919071E+03 -0.22341481869E+03 -0.44964584375E+03  0.11104084571E+04  0.89018792329E+03 0.  0.
         23    2    4    4    0    0 -0.34587275778E+03 -0.47800364245E+03 -0.22341278450E+02  0.59685874290E+03  0.87325709154E+02 0.  0.
         23    2    4    4    0    0 -0.88266432928E+02  0.25458882377E+03 -0.42730456530E+03  0.51354971424E+03  0.92399594684E+02 0.  0.
          2    1    3    3  502    0  0.35914091735E+03  0.20026603286E+03  0.19170685175E+03  0.45369615321E+03  0.00000000000E+00 0. -1.
         -1    1    3    3    0  502  0.74998273364E+02  0.23148785829E+02  0.72749039602E+02  0.10701883038E+03  0.00000000000E+00 0.  1.
         11    1    5    5    0    0 -0.30465322680E+03 -0.40177278843E+03 -0.47952128671E+02  0.50649221985E+03  0.00000000000E+00 0. -1.
        -11    1    5    5    0    0 -0.41219530982E+02 -0.76230854021E+02  0.25610850221E+02  0.90366523050E+02  0.00000000000E+00 0.  1.
          4    1    6    6  503    0 -0.94791605340E+02  0.24093272093E+03 -0.35329486954E+03  0.43800832104E+03  0.00000000000E+00 0. -1.
         -4    1    6    6    0  503  0.65251724120E+01  0.13656102839E+02 -0.74009695758E+02  0.75541393196E+02  0.00000000000E+00 0.  1.
<mgrwt>
<rscale>  0 0.16608306E+04</rscale>
<asrwt>0</asrwt>
<pdfrwt beam="1">  1        2 0.11430258E+00 0.16608306E+04</pdfrwt>
<pdfrwt beam="2">  1       -1 0.14279334E+00 0.16608306E+04</pdfrwt>
<totfact> 0.16465030E+01</totfact>
</mgrwt>
</event>
<event>
12    6  0.9533401E-008  0.1891683E+04  0.7818608E-02  0.8659007E-01
          2   -1    0    0  501    0  0.00000000000E+00  0.00000000000E+00  0.10323151805E+04  0.10323151805E+04  0.00000000000E+00 0. -1.
         -1   -1    0    0    0  501 -0.00000000000E+00 -0.00000000000E+00 -0.86661173211E+03  0.86661173211E+03  0.00000000000E+00 0.  1.
         24    2    1    2    0    0 -0.71432155101E+02 -0.72110207672E+03  0.93821811141E+02  0.73510218214E+03  0.80510422439E+02 0.  0.
        254    2    1    2    0    0  0.71432155101E+02  0.72110207672E+03  0.71881637252E+02  0.11638247305E+04  0.90787128804E+03 0.  0.
         23    2    4    4    0    0  0.23938768182E+03  0.78533206758E+03 -0.17583161923E+03  0.84463195062E+03  0.91833845048E+02 0.  0.
         23    2    4    4    0    0 -0.16795552672E+03 -0.64229990867E+02  0.24771325648E+03  0.31919277985E+03  0.90485482756E+02 0.  0.
          2    1    3    3  502    0 -0.77305061363E+02 -0.41866071314E+03  0.37303307100E+02  0.42736916355E+03  0.00000000000E+00 0. -1.
         -1    1    3    3    0  502  0.58729062619E+01 -0.30244136358E+03  0.56518504040E+02  0.30773301859E+03  0.00000000000E+00 0.  1.
         11    1    5    5    0    0  0.16333730695E+03  0.62156508193E+03 -0.10763670482E+03  0.65161943429E+03  0.00000000000E+00 0.  1.
        -11    1    5    5    0    0  0.76050374871E+02  0.16376698565E+03 -0.68194914408E+02  0.19301251633E+03  0.00000000000E+00 0. -1.
          2    1    6    6  503    0 -0.10259964135E+03 -0.58892639878E+01  0.80962826185E+02  0.13082946556E+03  0.00000000000E+00 0. -1.
         -2    1    6    6    0  503 -0.65355885370E+02 -0.58340726879E+02  0.16675043030E+03  0.18836331429E+03  0.00000000000E+00 0.  1.
<mgrwt>
<rscale>  0 0.18916833E+04</rscale>
<asrwt>0</asrwt>
<pdfrwt beam="1">  1        2 0.15881772E+00 0.18916833E+04</pdfrwt>
<pdfrwt beam="2">  1       -1 0.13332488E+00 0.18916833E+04</pdfrwt>
<totfact> 0.12213611E+01</totfact>
</mgrwt>
</event>
<event>
12    6  0.9533401E-008  0.3199653E+04  0.7818608E-02  0.8188909E-01
          2   -1    0    0  501    0  0.00000000000E+00  0.00000000000E+00  0.17626661741E+04  0.17626661741E+04  0.00000000000E+00 0. -1.
         -1   -1    0    0    0  501 -0.00000000000E+00 -0.00000000000E+00 -0.14520306015E+04  0.14520306015E+04  0.00000000000E+00 0.  1.
         24    2    1    2    0    0 -0.92417392807E+03 -0.25962851721E+03 -0.98002629205E+03  0.13741866292E+04  0.80205626176E+02 0.  0.
        254    2    1    2    0    0  0.92417392807E+03  0.25962851721E+03  0.12906618647E+04  0.18405101464E+04  0.89451949875E+03 0.  0.
         23    2    4    4    0    0  0.30128635006E+03  0.53800567114E+03  0.64434474940E+03  0.89639772655E+03  0.90139675939E+02 0.  0.
         23    2    4    4    0    0  0.62288757801E+03 -0.27837715393E+03  0.64631711528E+03  0.94411241981E+03  0.90220136701E+02 0.  0.
          4    1    3    3  502    0 -0.35401188906E+02 -0.26107857618E+02 -0.37154450694E+02  0.57578794810E+02  0.00000000000E+00 0. -1.
         -3    1    3    3    0  502 -0.88877273916E+03 -0.23352065959E+03 -0.94287184135E+03  0.13166078344E+04  0.00000000000E+00 0.  1.
         11    1    5    5    0    0  0.25815487648E+03  0.38432985341E+03  0.49574146243E+03  0.67831627877E+03  0.00000000000E+00 0. -1.
        -11    1    5    5    0    0  0.43131473577E+02  0.15367581773E+03  0.14860328696E+03  0.21808144778E+03  0.00000000000E+00 0.  1.
          3    1    6    6  503    0  0.26034381807E+03 -0.16205656117E+03  0.31094293568E+03  0.43672272883E+03  0.00000000000E+00 0. -1.
         -3    1    6    6    0  503  0.36254375995E+03 -0.11632059276E+03  0.33537417960E+03  0.50738969098E+03  0.00000000000E+00 0.  1.
<mgrwt>
<rscale>  0 0.31996532E+04</rscale>
<asrwt>0</asrwt>
<pdfrwt beam="1">  1        2 0.27117941E+00 0.31996532E+04</pdfrwt>
<pdfrwt beam="2">  1       -1 0.22338932E+00 0.31996532E+04</pdfrwt>
<totfact> 0.90595486E-01</totfact>
</mgrwt>
</event>
<event>
12    6  0.9533401E-008  0.2872313E+04  0.7818608E-02  0.8281163E-01
          2   -1    0    0  501    0  0.00000000000E+00  0.00000000000E+00  0.17320608890E+04  0.17320608890E+04  0.00000000000E+00 0. -1.
         -1   -1    0    0    0  501 -0.00000000000E+00 -0.00000000000E+00 -0.11908044582E+04  0.11908044582E+04  0.00000000000E+00 0.  1.
         24    2    1    2    0    0  0.12717710462E+04  0.22617546290E+03  0.25927940134E+03  0.13201026822E+04  0.82996081380E+02 0.  0.
        254    2    1    2    0    0 -0.12717710462E+04 -0.22617546290E+03  0.28197702945E+03  0.16027626650E+04  0.90596919434E+03 0.  0.
         23    2    4    4    0    0 -0.48084029927E+03  0.28698937823E+03  0.32637783845E+03  0.65459836135E+03  0.91685465801E+02 0.  0.
         23    2    4    4    0    0 -0.79093074694E+03 -0.51316484113E+03 -0.44400809004E+02  0.94816430361E+03  0.90191541619E+02 0.  0.
          4    1    3    3  502    0  0.15987496009E+03  0.46958303120E+02  0.12219011775E+02  0.16707599871E+03  0.00000000000E+00 0. -1.
         -3    1    3    3    0  502  0.11118960861E+04  0.17921715978E+03  0.24706038957E+03  0.11530266835E+04  0.00000000000E+00 0.  1.
         11    1    5    5    0    0 -0.24304948706E+03  0.11059624656E+03  0.11460552409E+03  0.29058391054E+03  0.00000000000E+00 0.  1.
        -11    1    5    5    0    0 -0.23779081221E+03  0.17639313167E+03  0.21177231437E+03  0.36401445082E+03  0.00000000000E+00 0. -1.
          1    1    6    6  503    0 -0.39074199562E+03 -0.20566677970E+03 -0.37421870639E+00  0.44156343990E+03  0.00000000000E+00 0. -1.
         -1    1    6    6    0  503 -0.40018875132E+03 -0.30749806143E+03 -0.44026590297E+02  0.50660086371E+03  0.00000000000E+00 0.  1.
<mgrwt>
<rscale>  0 0.28723132E+04</rscale>
<asrwt>0</asrwt>
<pdfrwt beam="1">  1        2 0.26647091E+00 0.28723132E+04</pdfrwt>
<pdfrwt beam="2">  1       -1 0.18320068E+00 0.28723132E+04</pdfrwt>
<totfact> 0.18294711E+00</totfact>
</mgrwt>
</event>
<event>
12    6  0.9533401E-008  0.2146440E+04  0.7818608E-02  0.8541058E-01
         -1   -1    0    0    0  501 -0.00000000000E+00  0.00000000000E+00  0.24420488817E+04  0.24420488817E+04  0.00000000000E+00 0.  1.
          2   -1    0    0  501    0  0.00000000000E+00 -0.00000000000E+00 -0.47165372967E+03  0.47165372967E+03  0.00000000000E+00 0. -1.
         24    2    1    2    0    0 -0.45691472648E+03  0.31465256751E+03  0.17454179127E+04  0.18332315561E+04  0.80479455032E+02 0.  0.
        254    2    1    2    0    0  0.45691472648E+03 -0.31465256751E+03  0.22497723929E+03  0.10804710553E+04  0.89945852463E+03 0.  0.
         23    2    4    4    0    0  0.12964153559E+03  0.20184311765E+03 -0.20411901320E+03  0.32792501480E+03  0.91228679069E+02 0.  0.
         23    2    4    4    0    0  0.32727319089E+03 -0.51649568517E+03  0.42909625249E+03  0.75254604045E+03  0.91249190868E+02 0.  0.
          4    1    3    3  502    0 -0.95317168760E+02  0.44499103017E+02  0.25146095372E+03  0.27257685903E+03  0.00000000000E+00 0. -1.
         -3    1    3    3    0  502 -0.36159755772E+03  0.27015346450E+03  0.14939569590E+04  0.15606546971E+04  0.00000000000E+00 0.  1.
         11    1    5    5    0    0  0.11628872053E+03  0.19519387203E+03 -0.21226036181E+03  0.31093114253E+03  0.00000000000E+00 0.  1.
        -11    1    5    5    0    0  0.13352815060E+02  0.66492456243E+01  0.81413486083E+01  0.16993872265E+02  0.00000000000E+00 0. -1.
          4    1    6    6  503    0  0.21165354520E+02 -0.90088427554E+01  0.30972161213E+02  0.38579868454E+02  0.00000000000E+00 0. -1.
         -4    1    6    6    0  503  0.30610783637E+03 -0.50748684241E+03  0.39812409128E+03  0.71396617200E+03  0.00000000000E+00 0.  1.
<mgrwt>
<rscale>  0 0.21464403E+04</rscale>
<asrwt>0</asrwt>
<pdfrwt beam="1">  1        2 0.72562113E-01 0.21464403E+04</pdfrwt>
<pdfrwt beam="2">  1       -1 0.37569982E+00 0.21464403E+04</pdfrwt>
<totfact> 0.72362206E-01</totfact>
</mgrwt>
</event>
<event>
12    6  0.9533401E-008  0.1605894E+04  0.7818608E-02  0.8816935E-01
          2   -1    0    0  501    0  0.00000000000E+00  0.00000000000E+00  0.16384179709E+04  0.16384179709E+04  0.00000000000E+00 0. -1.
         -1   -1    0    0    0  501 -0.00000000000E+00 -0.00000000000E+00 -0.39350378573E+03  0.39350378573E+03  0.00000000000E+00 0.  1.
         24    2    1    2    0    0 -0.49571569057E+03 -0.21746872251E+03  0.35285012291E+03  0.65103538756E+03  0.79480661007E+02 0.  0.
        254    2    1    2    0    0  0.49571569057E+03  0.21746872251E+03  0.89206406225E+03  0.13808863691E+04  0.90445684362E+03 0.  0.
         23    2    4    4    0    0  0.33069474178E+03 -0.27301706033E+03  0.69106614939E+03  0.81832198112E+03  0.90449513384E+02 0.  0.
         23    2    4    4    0    0  0.16502094879E+03  0.49048578284E+03  0.20099791286E+03  0.56256438795E+03  0.90941260716E+02 0.  0.
          4    1    3    3  502    0 -0.93889739397E+02 -0.77057178532E+02  0.76776634701E+02  0.14369322727E+03  0.00000000000E+00 0. -1.
         -3    1    3    3    0  502 -0.40182595117E+03 -0.14041154398E+03  0.27607348821E+03  0.50734216029E+03  0.00000000000E+00 0.  1.
         11    1    5    5    0    0  0.10725647868E+03 -0.37565257657E+02  0.18324367352E+03  0.21562315434E+03  0.00000000000E+00 0.  1.
        -11    1    5    5    0    0  0.22343826310E+03 -0.23545180268E+03  0.50782247587E+03  0.60269882678E+03  0.00000000000E+00 0. -1.
          2    1    6    6  503    0 -0.78099114273E+01  0.40960260021E+02  0.28685107970E+01  0.41796722020E+02  0.00000000000E+00 0.  1.
         -2    1    6    6    0  503  0.17283086022E+03  0.44952552282E+03  0.19812940206E+03  0.52076766593E+03  0.00000000000E+00 0. -1.
<mgrwt>
<rscale>  0 0.16058937E+04</rscale>
<asrwt>0</asrwt>
<pdfrwt beam="1">  1        2 0.25206430E+00 0.16058937E+04</pdfrwt>
<pdfrwt beam="2">  1       -1 0.60539045E-01 0.16058937E+04</pdfrwt>
<totfact> 0.32068411E+01</totfact>
</mgrwt>
</event>
<event>
12    6  0.9533401E-008  0.2324175E+04  0.7818608E-02  0.8468450E-01
         -3   -1    0    0    0  501 -0.00000000000E+00  0.00000000000E+00  0.15203826450E+04  0.15203826450E+04  0.00000000000E+00 0.  1.
          2   -1    0    0  501    0  0.00000000000E+00 -0.00000000000E+00 -0.88822842802E+03  0.88822842802E+03  0.00000000000E+00 0. -1.
         24    2    1    2    0    0  0.90563323189E+03 -0.10297434064E+03 -0.12578271519E+03  0.92340006442E+03  0.77917404899E+02 0.  0.
        254    2    1    2    0    0 -0.90563323189E+03  0.10297434064E+03  0.75793693215E+03  0.14852110086E+04  0.89476705423E+03 0.  0.
         23    2    4    4    0    0 -0.10139235526E+04  0.18134795120E+03  0.81202923070E+03  0.13149660280E+04  0.93894266697E+02 0.  0.
         23    2    4    4    0    0  0.10829032071E+03 -0.78373610555E+02 -0.54092298549E+02  0.17024498059E+03  0.90488453764E+02 0.  0.
          4    1    3    3  502    0  0.72470007863E+03 -0.51590140628E+02 -0.10711661872E+03  0.73438798777E+03  0.00000000000E+00 0. -1.
         -3    1    3    3    0  502  0.18093315326E+03 -0.51384200015E+02 -0.18666096472E+02  0.18901207664E+03  0.00000000000E+00 0.  1.
         11    1    5    5    0    0 -0.35857753903E+03  0.10863532956E+03  0.28054313341E+03  0.46806402983E+03  0.00000000000E+00 0.  1.
        -11    1    5    5    0    0 -0.65534601357E+03  0.72712621633E+02  0.53148609729E+03  0.84690199815E+03  0.00000000000E+00 0. -1.
          4    1    6    6  503    0  0.78202669217E+02 -0.11354946201E+01 -0.20903491183E+02  0.80956178049E+02  0.00000000000E+00 0. -1.
         -4    1    6    6    0  503  0.30087651490E+02 -0.77238115935E+02 -0.33188807366E+02  0.89288802544E+02  0.00000000000E+00 0.  1.
<mgrwt>
<rscale>  0 0.23241748E+04</rscale>
<asrwt>0</asrwt>
<pdfrwt beam="1">  1        2 0.13665053E+00 0.23241748E+04</pdfrwt>
<pdfrwt beam="2">  1       -3 0.23390502E+00 0.23241748E+04</pdfrwt>
<totfact> 0.15410770E+00</totfact>
</mgrwt>
</event>
<event>
12    6  0.9533401E-008  0.2576265E+04  0.7818608E-02  0.8376308E-01
         -1   -1    0    0    0  501 -0.00000000000E+00  0.00000000000E+00  0.10107872021E+04  0.10107872021E+04  0.00000000000E+00 0.  1.
          2   -1    0    0  501    0  0.00000000000E+00 -0.00000000000E+00 -0.16415771589E+04  0.16415771589E+04  0.00000000000E+00 0. -1.
         24    2    1    2    0    0 -0.41978286963E+03  0.10119691310E+04 -0.56372683282E+03  0.12347221205E+04  0.80321810405E+02 0.  0.
        254    2    1    2    0    0  0.41978286963E+03 -0.10119691310E+04 -0.67063124060E+02  0.14176422405E+04  0.89716937069E+03 0.  0.
         23    2    4    4    0    0 -0.62654210915E+02  0.77610617885E+02  0.15013751480E+03  0.20283645341E+03  0.93018252646E+02 0.  0.
         23    2    4    4    0    0  0.48243708054E+03 -0.10895797489E+04 -0.21720063886E+03  0.12148057871E+04  0.92991488752E+02 0.  0.
          4    1    3    3  502    0 -0.30040527817E+03  0.76307005436E+03 -0.45660043599E+03  0.93861770555E+03  0.00000000000E+00 0. -1.
         -3    1    3    3    0  502 -0.11937759145E+03  0.24889907660E+03 -0.10712639683E+03  0.29610441498E+03  0.00000000000E+00 0.  1.
         11    1    5    5    0    0  0.54567927038E+01  0.15148084274E+02  0.92564242718E+02  0.93954138141E+02  0.00000000000E+00 0. -1.
        -11    1    5    5    0    0 -0.68111003619E+02  0.62462533611E+02  0.57573272085E+02  0.10888231527E+03  0.00000000000E+00 0.  1.
          3    1    6    6  503    0  0.45005300627E+03 -0.99850977911E+03 -0.22396421834E+03  0.11179129924E+04  0.00000000000E+00 0. -1.
         -3    1    6    6    0  503  0.32384074275E+02 -0.91069969746E+02  0.67635794802E+01  0.96892794693E+02  0.00000000000E+00 0.  1.
<mgrwt>
<rscale>  0 0.25762649E+04</rscale>
<asrwt>0</asrwt>
<pdfrwt beam="1">  1        2 0.25255033E+00 0.25762649E+04</pdfrwt>
<pdfrwt beam="2">  1       -1 0.15550573E+00 0.25762649E+04</pdfrwt>
<totfact> 0.33739378E+00</totfact>
</mgrwt>
</event>
<event>
12    6  0.9533401E-008  0.1513523E+04  0.7818608E-02  0.8875510E-01
         -1   -1    0    0    0  501 -0.00000000000E+00  0.00000000000E+00  0.34828455222E+03  0.34828455222E+03  0.00000000000E+00 0.  1.
          2   -1    0    0  501    0  0.00000000000E+00 -0.00000000000E+00 -0.16443111974E+04  0.16443111974E+04  0.00000000000E+00 0. -1.
         24    2    1    2    0    0  0.14336316022E+03  0.29426618746E+03  0.46067638860E+02  0.34027338875E+03  0.80735165506E+02 0.  0.
        254    2    1    2    0    0 -0.14336316022E+03 -0.29426618746E+03 -0.13420942841E+04  0.16523223609E+04  0.90653545555E+03 0.  0.
         23    2    4    4    0    0 -0.46270735809E+03 -0.39777290073E+03 -0.83354722668E+03  0.10362805405E+04  0.82188804799E+02 0.  0.
         23    2    4    4    0    0  0.31934419787E+03  0.10350671327E+03 -0.50854705737E+03  0.61604182042E+03  0.90515515466E+02 0.  0.
          2    1    3    3  502    0  0.13917512518E+03  0.21171157352E+03  0.22711777648E+02  0.25437635636E+03  0.00000000000E+00 0. -1.
         -1    1    3    3    0  502  0.41880350437E+01  0.82554613942E+02  0.23355861213E+02  0.85897032391E+02  0.00000000000E+00 0.  1.
         11    1    5    5    0    0 -0.33533874748E+03 -0.28884502355E+03 -0.53937539659E+03  0.69771723616E+03  0.00000000000E+00 0.  1.
        -11    1    5    5    0    0 -0.12736861061E+03 -0.10892787718E+03 -0.29417183009E+03  0.33856330429E+03  0.00000000000E+00 0. -1.
          2    1    6    6  503    0  0.24196932239E+03  0.80204243917E+02 -0.44656498040E+03  0.51420050121E+03  0.00000000000E+00 0.  1.
         -2    1    6    6    0  503  0.77374875482E+02  0.23302469349E+02 -0.61982076969E+02  0.10184131921E+03  0.00000000000E+00 0. -1.
<mgrwt>
<rscale>  0 0.15135233E+04</rscale>
<asrwt>0</asrwt>
<pdfrwt beam="1">  1        2 0.25297095E+00 0.15135233E+04</pdfrwt>
<pdfrwt beam="2">  1       -1 0.53582239E-01 0.15135233E+04</pdfrwt>
<totfact> 0.40708133E+01</totfact>
</mgrwt>
</event>
<event>
12    6  0.9533401E-008  0.1888934E+04  0.7818608E-02  0.8660385E-01
          2   -1    0    0  501    0  0.00000000000E+00  0.00000000000E+00  0.80071141119E+03  0.80071141119E+03  0.00000000000E+00 0. -1.
         -1   -1    0    0    0  501 -0.00000000000E+00 -0.00000000000E+00 -0.11140312356E+04  0.11140312356E+04  0.00000000000E+00 0.  1.
         24    2    1    2    0    0  0.49036358750E+03  0.52132949832E+03 -0.24005362920E+03  0.75932841324E+03  0.81932902418E+02 0.  0.
        254    2    1    2    0    0 -0.49036358750E+03 -0.52132949832E+03 -0.73266195213E+02  0.11554142335E+04  0.90408695486E+03 0.  0.
         23    2    4    4    0    0  0.13737937181E+03  0.22749172290E+01  0.22664865179E+03  0.28064266115E+03  0.92262803170E+02 0.  0.
         23    2    4    4    0    0 -0.62774295931E+03 -0.52360441555E+03 -0.29991484701E+03  0.87477157240E+03  0.83985602802E+02 0.  0.
          2    1    3    3  502    0  0.47175262034E+03  0.47405292072E+03 -0.23200878809E+03  0.70788755053E+03  0.00000000000E+00 0. -1.
         -1    1    3    3    0  502  0.18610967163E+02  0.47276577604E+02 -0.80448411088E+01  0.51440862718E+02  0.00000000000E+00 0.  1.
         11    1    5    5    0    0  0.38062327622E+02  0.37076561750E+01  0.60559963469E+01  0.38719021037E+02  0.00000000000E+00 0. -1.
        -11    1    5    5    0    0  0.99317044184E+02 -0.14327389461E+01  0.22059265545E+03  0.24192364011E+03  0.00000000000E+00 0.  1.
          1    1    6    6  503    0 -0.14422114793E+02 -0.51007340460E+01 -0.17959752017E+02  0.23591684455E+02  0.00000000000E+00 0. -1.
         -1    1    6    6    0  503 -0.61332084452E+03 -0.51850368151E+03 -0.28195509499E+03  0.85117988795E+03  0.00000000000E+00 0.  1.
<mgrwt>
<rscale>  0 0.18889336E+04</rscale>
<asrwt>0</asrwt>
<pdfrwt beam="1">  1        2 0.12318637E+00 0.18889336E+04</pdfrwt>
<pdfrwt beam="2">  1       -1 0.17138942E+00 0.18889336E+04</pdfrwt>
<totfact> 0.88472806E+00</totfact>
</mgrwt>
</event>
<event>
12    6  0.9533401E-008  0.1304067E+04  0.7818608E-02  0.9026346E-01
          2   -1    0    0  501    0  0.00000000000E+00  0.00000000000E+00  0.61509744875E+03  0.61509744875E+03  0.00000000000E+00 0. -1.
         -1   -1    0    0    0  501 -0.00000000000E+00 -0.00000000000E+00 -0.69118756007E+03  0.69118756007E+03  0.00000000000E+00 0.  1.
         24    2    1    2    0    0 -0.16049117570E+03 -0.21924990657E+02 -0.31318829131E+03  0.36248381040E+03  0.84080225374E+02 0.  0.
        254    2    1    2    0    0  0.16049117570E+03  0.21924990657E+02  0.23709817999E+03  0.94380119841E+03  0.89905897052E+03 0.  0.
         23    2    4    4    0    0 -0.20770721511E+03 -0.12524666762E+03 -0.21379095509E+03  0.33636949669E+03  0.92783893371E+02 0.  0.
         23    2    4    4    0    0  0.36819839081E+03  0.14717165828E+03  0.45088913507E+03  0.60743170172E+03  0.91884210464E+02 0.  0.
          4    1    3    3  502    0  0.34297077535E+01 -0.16526355751E+02 -0.17231736681E+02  0.24120863972E+02  0.00000000000E+00 0. -1.
         -3    1    3    3    0  502 -0.16392088345E+03 -0.53986349055E+01 -0.29595655462E+03  0.33836294643E+03  0.00000000000E+00 0.  1.
         11    1    5    5    0    0 -0.18907158235E+03 -0.13902927053E+03 -0.18180073177E+03  0.29686479648E+03  0.00000000000E+00 0. -1.
        -11    1    5    5    0    0 -0.18635632758E+02  0.13782602905E+02 -0.31990223317E+02  0.39504700214E+02  0.00000000000E+00 0.  1.
          1    1    6    6  503    0  0.34977219721E+03  0.14450073293E+03  0.38864641422E+03  0.54246390391E+03  0.00000000000E+00 0. -1.
         -1    1    6    6    0  503  0.18426193597E+02  0.26709253433E+01  0.62242720859E+02  0.64967797812E+02  0.00000000000E+00 0.  1.
<mgrwt>
<rscale>  0 0.13040670E+04</rscale>
<asrwt>0</asrwt>
<pdfrwt beam="1">  1        2 0.94630377E-01 0.13040670E+04</pdfrwt>
<pdfrwt beam="2">  1       -1 0.10633655E+00 0.13040670E+04</pdfrwt>
<totfact> 0.44558917E+01</totfact>
</mgrwt>
</event>
<event>
12    6  0.9725699E-008  0.1593354E+04  0.7818608E-02  0.8824641E-01
         -1   -1    0    0    0  501 -0.00000000000E+00  0.00000000000E+00  0.35687421805E+03  0.35687421805E+03  0.00000000000E+00 0.  1.
          2   -1    0    0  501    0  0.00000000000E+00 -0.00000000000E+00 -0.17784817714E+04  0.17784817714E+04  0.00000000000E+00 0. -1.
         24    2    1    2    0    0  0.52058541462E+03 -0.90409904917E+02 -0.29313874122E+03  0.60943377254E+03  0.79347820890E+02 0.  0.
        254    2    1    2    0    0 -0.52058541462E+03  0.90409904917E+02 -0.11284688121E+04  0.15259222169E+04  0.88080283113E+03 0.  0.
         23    2    4    4    0    0 -0.55891074120E+02  0.41920656245E+03 -0.62650711830E+03  0.76151849951E+03  0.92419162735E+02 0.  0.
         23    2    4    4    0    0 -0.46469434050E+03 -0.32879665753E+03 -0.50196169385E+03  0.76440371743E+03  0.91101202121E+02 0.  0.
          4    1    3    3  502    0  0.66314013520E+02 -0.45584578808E+01 -0.97620282127E+01  0.67183518233E+02  0.00000000000E+00 0. -1.
         -3    1    3    3    0  502  0.45427140110E+03 -0.85851447036E+02 -0.28337671301E+03  0.54225025431E+03  0.00000000000E+00 0.  1.
         11    1    5    5    0    0 -0.36627627031E+02  0.31876993833E+03 -0.53726961877E+03  0.62579109925E+03  0.00000000000E+00 0.  1.
        -11    1    5    5    0    0 -0.19263447090E+02  0.10043662412E+03 -0.89237499529E+02  0.13572740025E+03  0.00000000000E+00 0. -1.
          4    1    6    6  503    0 -0.12318714904E+03 -0.78966054852E+02 -0.79715141788E+02  0.16662897509E+03  0.00000000000E+00 0.  1.
         -4    1    6    6    0  503 -0.34150719146E+03 -0.24983060268E+03 -0.42224655206E+03  0.59777474234E+03  0.00000000000E+00 0. -1.
<mgrwt>
<rscale>  0 0.15933541E+04</rscale>
<asrwt>0</asrwt>
<pdfrwt beam="1">  1        2 0.27361258E+00 0.15933541E+04</pdfrwt>
<pdfrwt beam="2">  1       -1 0.54903727E-01 0.15933541E+04</pdfrwt>
<totfact> 0.32497446E+01</totfact>
</mgrwt>
</event>
<event>
12    6  0.9533401E-008  0.1209585E+04  0.7818608E-02  0.9104508E-01
          2   -1    0    0  501    0  0.00000000000E+00  0.00000000000E+00  0.25546479293E+04  0.25546479293E+04  0.00000000000E+00 0. -1.
         -1   -1    0    0    0  501 -0.00000000000E+00 -0.00000000000E+00 -0.14317981605E+03  0.14317981605E+03  0.00000000000E+00 0.  1.
         24    2    1    2    0    0 -0.25287722968E+03 -0.61686297073E+02  0.51303719223E+03  0.58087576068E+03  0.80357925577E+02 0.  0.
        254    2    1    2    0    0  0.25287722968E+03  0.61686297073E+02  0.18984309211E+04  0.21169519847E+04  0.89982978998E+03 0.  0.
         23    2    4    4    0    0  0.33354123082E+03 -0.14691868888E+03  0.25240752723E+03  0.45327096142E+03  0.94393595465E+02 0.  0.
         23    2    4    4    0    0 -0.80664001141E+02  0.20860498595E+03  0.16460233938E+04  0.16636810233E+04  0.91754089397E+02 0.  0.
          2    1    3    3  502    0 -0.26968529552E+02  0.31550985446E+01  0.11908351982E+03  0.12213984168E+03  0.00000000000E+00 0. -1.
         -1    1    3    3    0  502 -0.22590870013E+03 -0.64841395617E+02  0.39395367240E+03  0.45873591900E+03  0.00000000000E+00 0.  1.
         11    1    5    5    0    0  0.29833277160E+03 -0.12003368930E+03  0.18037904101E+03  0.36871008613E+03  0.00000000000E+00 0.  1.
        -11    1    5    5    0    0  0.35208459220E+02 -0.26884999574E+02  0.72028486214E+02  0.84560875285E+02  0.00000000000E+00 0. -1.
          2    1    6    6  503    0  0.13687396080E+02  0.18588566530E+02  0.31617325708E+03  0.31701483895E+03  0.00000000000E+00 0. -1.
         -2    1    6    6    0  503 -0.94351397221E+02  0.19001641942E+03  0.13298501368E+04  0.13466661843E+04  0.00000000000E+00 0.  1.
<mgrwt>
<rscale>  0 0.12095851E+04</rscale>
<asrwt>0</asrwt>
<pdfrwt beam="1">  1        2 0.39302272E+00 0.12095851E+04</pdfrwt>
<pdfrwt beam="2">  1       -1 0.22027666E-01 0.12095851E+04</pdfrwt>
<totfact> 0.63607162E+01</totfact>
</mgrwt>
</event>
<event>
12    6  0.9533401E-008  0.3075334E+04  0.7818608E-02  0.8222540E-01
          2   -1    0    0  501    0  0.00000000000E+00  0.00000000000E+00  0.27001173885E+04  0.27001173885E+04  0.00000000000E+00 0. -1.
         -1   -1    0    0    0  501 -0.00000000000E+00 -0.00000000000E+00 -0.87567284299E+03  0.87567284299E+03  0.00000000000E+00 0.  1.
         24    2    1    2    0    0 -0.54596147723E+03  0.12909348588E+04  0.93047681197E+03  0.16841338870E+04  0.77026665988E+02 0.  0.
        254    2    1    2    0    0  0.54596147723E+03 -0.12909348588E+04  0.89396773356E+03  0.18916563446E+04  0.90255120240E+03 0.  0.
         23    2    4    4    0    0  0.25978098141E+03 -0.10297587004E+04  0.18981865371E+03  0.10827556354E+04  0.91866780620E+02 0.  0.
         23    2    4    4    0    0  0.28618049581E+03 -0.26117615843E+03  0.70414907985E+03  0.80890070915E+03  0.91554184486E+02 0.  0.
          2    1    3    3  502    0 -0.19937827036E+03  0.55715046929E+03  0.37056536853E+03  0.69820271589E+03  0.00000000000E+00 0. -1.
         -1    1    3    3    0  502 -0.34658320687E+03  0.73378438953E+03  0.55991144344E+03  0.98593117107E+03  0.00000000000E+00 0.  1.
         11    1    5    5    0    0  0.85231962170E+01 -0.16848703484E+03  0.24335433834E+02  0.17044864072E+03  0.00000000000E+00 0.  1.
        -11    1    5    5    0    0  0.25125778520E+03 -0.86127166555E+03  0.16548321988E+03  0.91230699469E+03  0.00000000000E+00 0. -1.
          1    1    6    6  503    0  0.62472301304E+01 -0.30657329843E+02  0.94596917070E+02  0.99636722530E+02  0.00000000000E+00 0. -1.
         -1    1    6    6    0  503  0.27993326568E+03 -0.23051882858E+03  0.60955216278E+03  0.70926398662E+03  0.00000000000E+00 0.  1.
<mgrwt>
<rscale>  0 0.30753338E+04</rscale>
<asrwt>0</asrwt>
<pdfrwt beam="1">  1        2 0.41540267E+00 0.30753338E+04</pdfrwt>
<pdfrwt beam="2">  1       -1 0.13471890E+00 0.30753338E+04</pdfrwt>
<totfact> 0.11882053E+00</totfact>
</mgrwt>
</event>
<event>
12    6  0.9533401E-008  0.2113329E+04  0.7818608E-02  0.8555394E-01
         -1   -1    0    0    0  501 -0.00000000000E+00  0.00000000000E+00  0.82948875729E+03  0.82948875729E+03  0.00000000000E+00 0.  1.
          2   -1    0    0  501    0  0.00000000000E+00 -0.00000000000E+00 -0.13460584745E+04  0.13460584745E+04  0.00000000000E+00 0. -1.
         24    2    1    2    0    0 -0.42410575179E+03  0.62666908878E+03 -0.63460816815E+03  0.99107498707E+03  0.83200164512E+02 0.  0.
        254    2    1    2    0    0  0.42410575179E+03 -0.62666908878E+03  0.11803845095E+03  0.11844722447E+04  0.90358263986E+03 0.  0.
         23    2    4    4    0    0  0.60647727608E+03 -0.68692640440E+03 -0.37004988838E+02  0.92156997944E+03  0.90770514767E+02 0.  0.
         23    2    4    4    0    0 -0.18237152429E+03  0.60257315612E+02  0.15504343979E+03  0.26290226528E+03  0.90492076503E+02 0.  0.
          4    1    3    3  502    0 -0.23831227576E+03  0.42341124473E+03 -0.40621736565E+03  0.63331064344E+03  0.00000000000E+00 0. -1.
         -1    1    3    3    0  502 -0.18579347603E+03  0.20325784406E+03 -0.22839080250E+03  0.35776434363E+03  0.00000000000E+00 0.  1.
         11    1    5    5    0    0  0.19778163423E+03 -0.22529725705E+03  0.30472698583E+02  0.30133870351E+03  0.00000000000E+00 0.  1.
        -11    1    5    5    0    0  0.40869564185E+03 -0.46162914735E+03 -0.67477687421E+02  0.62023127593E+03  0.00000000000E+00 0. -1.
          2    1    6    6  503    0 -0.17593814473E+02  0.94706145478E+00  0.62280215609E+02  0.64724527727E+02  0.00000000000E+00 0. -1.
         -2    1    6    6    0  503 -0.16477770981E+03  0.59310254157E+02  0.92763224182E+02  0.19817773755E+03  0.00000000000E+00 0.  1.
<mgrwt>
<rscale>  0 0.21133295E+04</rscale>
<asrwt>0</asrwt>
<pdfrwt beam="1">  1        2 0.20708592E+00 0.21133295E+04</pdfrwt>
<pdfrwt beam="2">  1       -1 0.12761365E+00 0.21133295E+04</pdfrwt>
<totfact> 0.86659066E+00</totfact>
</mgrwt>
</event>
<event>
12    6  0.9533401E-008  0.1398891E+04  0.7818608E-02  0.8954622E-01
         -1   -1    0    0    0  501 -0.00000000000E+00  0.00000000000E+00  0.34044977708E+03  0.34044977708E+03  0.00000000000E+00 0.  1.
          2   -1    0    0  501    0  0.00000000000E+00 -0.00000000000E+00 -0.14369927451E+04  0.14369927451E+04  0.00000000000E+00 0. -1.
         24    2    1    2    0    0  0.15890805614E+03  0.25319875788E+03 -0.66376084261E+03  0.73245211874E+03  0.80909015388E+02 0.  0.
        254    2    1    2    0    0 -0.15890805614E+03 -0.25319875788E+03 -0.43278212545E+03  0.10449904035E+04  0.90296356182E+03 0.  0.
         23    2    4    4    0    0 -0.71125673761E+02 -0.21985033929E+03  0.24829530063E+03  0.35148468599E+03  0.92184027999E+02 0.  0.
         23    2    4    4    0    0 -0.87782382376E+02 -0.33348418592E+02 -0.68107742608E+03  0.69350571749E+03  0.90916754251E+02 0.  0.
          4    1    3    3  502    0  0.15004215213E+03  0.20068557631E+03 -0.48468924892E+03  0.54562900947E+03  0.00000000000E+00 0. -1.
         -3    1    3    3    0  502  0.88659040083E+01  0.52513181569E+02 -0.17907159369E+03  0.18682310927E+03  0.00000000000E+00 0.  1.
         11    1    5    5    0    0 -0.36718775211E+02 -0.20238570940E+03  0.23068845026E+03  0.30907184425E+03  0.00000000000E+00 0. -1.
        -11    1    5    5    0    0 -0.34406898550E+02 -0.17464629891E+02  0.17606850369E+02  0.42412841746E+02  0.00000000000E+00 0.  1.
          4    1    6    6  503    0 -0.10450540140E+03 -0.15014921214E+02 -0.56926576292E+03  0.57897351893E+03  0.00000000000E+00 0. -1.
         -4    1    6    6    0  503  0.16723019020E+02 -0.18333497378E+02 -0.11181166316E+03  0.11453219857E+03  0.00000000000E+00 0.  1.
<mgrwt>
<rscale>  0 0.13988908E+04</rscale>
<asrwt>0</asrwt>
<pdfrwt beam="1">  1        2 0.22107580E+00 0.13988908E+04</pdfrwt>
<pdfrwt beam="2">  1       -1 0.52376890E-01 0.13988908E+04</pdfrwt>
<totfact> 0.56138463E+01</totfact>
</mgrwt>
</event>
<event>
12    6  0.9533401E-008  0.1687246E+04  0.7818608E-02  0.8768672E-01
          2   -1    0    0  501    0  0.00000000000E+00  0.00000000000E+00  0.11898353837E+04  0.11898353837E+04  0.00000000000E+00 0. -1.
         -1   -1    0    0    0  501 -0.00000000000E+00 -0.00000000000E+00 -0.59814987380E+03  0.59814987380E+03  0.00000000000E+00 0.  1.
         24    2    1    2    0    0 -0.19725097915E+03  0.51748658306E+03 -0.25145697617E+02  0.56024574839E+03  0.80886834920E+02 0.  0.
        254    2    1    2    0    0  0.19725097915E+03 -0.51748658306E+03  0.61683120752E+03  0.12277395091E+04  0.90562864975E+03 0.  0.
         23    2    4    4    0    0 -0.26570450580E+03  0.58872412535E+02  0.48465904680E+02  0.29114545602E+03  0.91388660575E+02 0.  0.
         23    2    4    4    0    0  0.46295548495E+03 -0.57635899559E+03  0.56836530284E+03  0.93659405310E+03  0.87474739071E+02 0.  0.
          2    1    3    3  502    0 -0.52675910124E+02  0.14280645558E+03 -0.43234344431E+02  0.15823287838E+03  0.00000000000E+00 0. -1.
         -1    1    3    3    0  502 -0.14457506902E+03  0.37468012748E+03  0.18088646815E+02  0.40201287001E+03  0.00000000000E+00 0.  1.
         11    1    5    5    0    0 -0.11703563343E+03  0.64640004854E+02  0.48906708690E+02  0.14236409616E+03  0.00000000000E+00 0. -1.
        -11    1    5    5    0    0 -0.14866887237E+03 -0.57675923185E+01 -0.44080401007E+00  0.14878135986E+03  0.00000000000E+00 0.  1.
          1    1    6    6  503    0  0.36237379656E+01 -0.23623239822E+02  0.77780257454E+01  0.25133376634E+02  0.00000000000E+00 0. -1.
         -1    1    6    6    0  503  0.45933174699E+03 -0.55273575577E+03  0.56058727710E+03  0.91146067646E+03  0.00000000000E+00 0.  1.
<mgrwt>
<rscale>  0 0.16872461E+04</rscale>
<asrwt>0</asrwt>
<pdfrwt beam="1">  1        2 0.18305160E+00 0.16872461E+04</pdfrwt>
<pdfrwt beam="2">  1       -1 0.92023058E-01 0.16872461E+04</pdfrwt>
<totfact> 0.23991855E+01</totfact>
</mgrwt>
</event>
<event>
12    6  0.9533401E-008  0.2153286E+04  0.7818608E-02  0.8538127E-01
         -1   -1    0    0    0  501 -0.00000000000E+00  0.00000000000E+00  0.72687537323E+03  0.72687537323E+03  0.00000000000E+00 0.  1.
          2   -1    0    0  501    0  0.00000000000E+00 -0.00000000000E+00 -0.15947159519E+04  0.15947159519E+04  0.00000000000E+00 0. -1.
         24    2    1    2    0    0 -0.49170164813E+03  0.69001950889E+03 -0.74896198605E+02  0.85434476247E+03  0.79988118859E+02 0.  0.
        254    2    1    2    0    0  0.49170164813E+03 -0.69001950889E+03 -0.79294438002E+03  0.14672465626E+04  0.89786093149E+03 0.  0.
         23    2    4    4    0    0  0.25453104710E+03 -0.65097096912E+03 -0.93623935773E+03  0.11718892962E+04  0.90725581202E+02 0.  0.
         23    2    4    4    0    0  0.23717060103E+03 -0.39048539779E+02  0.14329497771E+03  0.29535726639E+03  0.94486939435E+02 0.  0.
          2    1    3    3  502    0 -0.10259970011E+03  0.15318465366E+03 -0.49236873619E+02  0.19083109364E+03  0.00000000000E+00 0. -1.
         -1    1    3    3    0  502 -0.38910194802E+03  0.53683485524E+03 -0.25659324986E+02  0.66351366882E+03  0.00000000000E+00 0.  1.
         11    1    5    5    0    0  0.11792778562E+03 -0.22988432834E+03 -0.28794506204E+03  0.38686706475E+03  0.00000000000E+00 0.  1.
        -11    1    5    5    0    0  0.13660326148E+03 -0.42108664078E+03 -0.64829429569E+03  0.78502223148E+03  0.00000000000E+00 0. -1.
          4    1    6    6  503    0  0.22115901398E+03 -0.21543064219E+02  0.15293583354E+03  0.26974948056E+03  0.00000000000E+00 0. -1.
         -4    1    6    6    0  503  0.16011587049E+02 -0.17505475560E+02 -0.96408558288E+01  0.25607785838E+02  0.00000000000E+00 0.  1.
<mgrwt>
<rscale>  0 0.21532856E+04</rscale>
<asrwt>0</asrwt>
<pdfrwt beam="1">  1        2 0.24534091E+00 0.21532856E+04</pdfrwt>
<pdfrwt beam="2">  1       -1 0.11182698E+00 0.21532856E+04</pdfrwt>
<totfact> 0.86122678E+00</totfact>
</mgrwt>
</event>
<event>
12    6  0.9533401E-008  0.1546103E+04  0.7818608E-02  0.8854361E-01
         -1   -1    0    0    0  501 -0.00000000000E+00  0.00000000000E+00  0.19122503980E+04  0.19122503980E+04  0.00000000000E+00 0.  1.
          2   -1    0    0  501    0  0.00000000000E+00 -0.00000000000E+00 -0.31251580866E+03  0.31251580866E+03  0.00000000000E+00 0. -1.
         24    2    1    2    0    0 -0.21235192536E+03 -0.16690027178E+03  0.11411014571E+04  0.11753914406E+04  0.80519950325E+02 0.  0.
        254    2    1    2    0    0  0.21235192536E+03  0.16690027178E+03  0.45863313227E+03  0.10493747661E+04  0.90437492706E+03 0.  0.
         23    2    4    4    0    0  0.43561391850E+03 -0.12650278749E+03  0.48419264339E+03  0.66969160327E+03  0.91004869934E+02 0.  0.
         23    2    4    4    0    0 -0.22326199315E+03  0.29340305927E+03 -0.25559511118E+02  0.37968316278E+03  0.87032997853E+02 0.  0.
          2    1    3    3  502    0 -0.19661393655E+02  0.34962808629E+01  0.15550833636E+03  0.15678532157E+03  0.00000000000E+00 0. -1.
         -1    1    3    3    0  502 -0.19269053170E+03 -0.17039655265E+03  0.98559312070E+03  0.10186061190E+04  0.00000000000E+00 0.  1.
         11    1    5    5    0    0  0.17553201900E+03 -0.23640691157E+02  0.24085522542E+03  0.29896757614E+03  0.00000000000E+00 0.  1.
        -11    1    5    5    0    0  0.26008189950E+03 -0.10286209633E+03  0.24333741797E+03  0.37072402713E+03  0.00000000000E+00 0. -1.
          3    1    6    6  503    0 -0.41111627886E+02  0.10039154167E+03  0.20280509521E+02  0.11036270499E+03  0.00000000000E+00 0. -1.
         -3    1    6    6    0  503 -0.18215036526E+03  0.19301151760E+03 -0.45840020638E+02  0.26932045779E+03  0.00000000000E+00 0.  1.
<mgrwt>
<rscale>  0 0.15461028E+04</rscale>
<asrwt>0</asrwt>
<pdfrwt beam="1">  1        2 0.48079356E-01 0.15461028E+04</pdfrwt>
<pdfrwt beam="2">  1       -1 0.29419236E+00 0.15461028E+04</pdfrwt>
<totfact> 0.41726247E+00</totfact>
</mgrwt>
</event>
<event>
12    6  0.9533401E-008  0.2463686E+04  0.7818608E-02  0.8416038E-01
          2   -1    0    0  501    0  0.00000000000E+00  0.00000000000E+00  0.24387840093E+04  0.24387840093E+04  0.00000000000E+00 0. -1.
         -1   -1    0    0    0  501 -0.00000000000E+00 -0.00000000000E+00 -0.62221062012E+03  0.62221062012E+03  0.00000000000E+00 0.  1.
         24    2    1    2    0    0 -0.63252350361E+02  0.29653250954E+03  0.20564030071E+04  0.20802812708E+04  0.82731183426E+02 0.  0.
        254    2    1    2    0    0  0.63252350361E+02 -0.29653250954E+03 -0.23982961798E+03  0.98071335862E+03  0.90130353216E+03 0.  0.
         23    2    4    4    0    0 -0.10744041699E+03  0.12776640773E+03 -0.43514468728E+03  0.47469818225E+03  0.90109750948E+02 0.  0.
         23    2    4    4    0    0  0.17069276735E+03 -0.42429891727E+03  0.19531506930E+03  0.50601517637E+03  0.93476148832E+02 0.  0.
          2    1    3    3  502    0 -0.73476030335E+02  0.18150030502E+03  0.14269369615E+04  0.14403090570E+04  0.00000000000E+00 0. -1.
         -1    1    3    3    0  502  0.10223679973E+02  0.11503220453E+03  0.62946604565E+03  0.63997221372E+03  0.00000000000E+00 0.  1.
         11    1    5    5    0    0 -0.11718717105E+03  0.13078618700E+03 -0.37995791549E+03  0.41857601139E+03  0.00000000000E+00 0. -1.
        -11    1    5    5    0    0  0.97467540558E+01 -0.30197792680E+01 -0.55186771790E+02  0.56122170861E+02  0.00000000000E+00 0.  1.
          2    1    6    6  503    0  0.10732501973E+03 -0.24434917110E+03  0.64111554515E+02  0.27447307463E+03  0.00000000000E+00 0. -1.
         -2    1    6    6    0  503  0.63367747627E+02 -0.17994974617E+03  0.13120351478E+03  0.23154210174E+03  0.00000000000E+00 0.  1.
<mgrwt>
<rscale>  0 0.24636861E+04</rscale>
<asrwt>0</asrwt>
<pdfrwt beam="1">  1        2 0.37519753E+00 0.24636861E+04</pdfrwt>
<pdfrwt beam="2">  1       -1 0.95724712E-01 0.24636861E+04</pdfrwt>
<totfact> 0.40442045E+00</totfact>
</mgrwt>
</event>
<event>
12    6  0.9533401E-008  0.1876877E+04  0.7818608E-02  0.8666452E-01
         -1   -1    0    0    0  501 -0.00000000000E+00  0.00000000000E+00  0.14718787680E+04  0.14718787680E+04  0.00000000000E+00 0.  1.
          2   -1    0    0  501    0  0.00000000000E+00 -0.00000000000E+00 -0.59832854278E+03  0.59832854278E+03  0.00000000000E+00 0. -1.
         24    2    1    2    0    0  0.44137059642E+03 -0.56563428113E+03  0.23605341410E+03  0.75981857953E+03  0.82782341817E+02 0.  0.
        254    2    1    2    0    0 -0.44137059642E+03  0.56563428113E+03  0.63749681116E+03  0.13103887313E+04  0.89216943428E+03 0.  0.
         23    2    4    4    0    0  0.18233813021E+03 -0.85175842875E+02  0.21107177104E+03  0.30913493735E+03  0.10252316336E+03 0.  0.
         23    2    4    4    0    0 -0.62370872663E+03  0.65081012400E+03  0.42642504013E+03  0.10012537939E+04  0.90024728991E+02 0.  0.
          4    1    3    3  502    0  0.44069176753E+03 -0.56598101422E+03  0.22937676804E+03  0.75309856203E+03  0.00000000000E+00 0. -1.
         -3    1    3    3    0  502  0.67882888649E+00  0.34673308698E+00  0.66766460600E+01  0.67200174927E+01  0.00000000000E+00 0.  1.
         11    1    5    5    0    0  0.10795684046E+03 -0.52096055185E+02  0.19065771177E+03  0.22520888399E+03  0.00000000000E+00 0.  1.
        -11    1    5    5    0    0  0.74381289749E+02 -0.33079787690E+02  0.20414059267E+02  0.83926053369E+02  0.00000000000E+00 0. -1.
          1    1    6    6  503    0 -0.60203682093E+03  0.64056020131E+03  0.42696491253E+03  0.97727413851E+03  0.00000000000E+00 0. -1.
         -1    1    6    6    0  503 -0.21671905703E+02  0.10249922691E+02 -0.53987240775E+00  0.23979655423E+02  0.00000000000E+00 0.  1.
<mgrwt>
<rscale>  0 0.18768773E+04</rscale>
<asrwt>0</asrwt>
<pdfrwt beam="1">  1        2 0.92050545E-01 0.18768773E+04</pdfrwt>
<pdfrwt beam="2">  1       -1 0.22644289E+00 0.18768773E+04</pdfrwt>
<totfact> 0.53148715E+00</totfact>
</mgrwt>
</event>
<event>
12    6  0.9533401E-008  0.1749789E+04  0.7818608E-02  0.8733467E-01
          2   -1    0    0  501    0  0.00000000000E+00  0.00000000000E+00  0.17705149820E+04  0.17705149820E+04  0.00000000000E+00 0. -1.
         -1   -1    0    0    0  501 -0.00000000000E+00 -0.00000000000E+00 -0.43232621629E+03  0.43232621629E+03  0.00000000000E+00 0.  1.
         24    2    1    2    0    0 -0.53864409487E+03 -0.80606261867E+02  0.64994406058E+02  0.55439404745E+03  0.80583228039E+02 0.  0.
        254    2    1    2    0    0  0.53864409487E+03  0.80606261867E+02  0.12731943597E+04  0.16484471509E+04  0.89427026190E+03 0.  0.
         23    2    4    4    0    0  0.76736298613E+03  0.45439323101E+02  0.10988534416E+04  0.13438662258E+04  0.87102595576E+02 0.  0.
         23    2    4    4    0    0 -0.22871889125E+03  0.35166938767E+02  0.17434091809E+03  0.30458092509E+03  0.93945406534E+02 0.  0.
          2    1    3    3  502    0 -0.25050184575E+03 -0.14590192249E+02 -0.35154676334E+01  0.25095100507E+03  0.00000000000E+00 0. -1.
         -1    1    3    3    0  502 -0.28814224912E+03 -0.66016069618E+02  0.68509873691E+02  0.30344304238E+03  0.00000000000E+00 0.  1.
         11    1    5    5    0    0  0.99998058538E+02  0.47035970311E+01  0.96977829743E+02  0.13937874658E+03  0.00000000000E+00 0.  1.
        -11    1    5    5    0    0  0.66736492759E+03  0.40735726070E+02  0.10018756119E+04  0.12044874792E+04  0.00000000000E+00 0. -1.
          1    1    6    6  503    0 -0.12448448353E+03 -0.14854038352E+00  0.39652960605E+02  0.13064748750E+03  0.00000000000E+00 0. -1.
         -1    1    6    6    0  503 -0.10423440772E+03  0.35315479150E+02  0.13468795749E+03  0.17393343759E+03  0.00000000000E+00 0.  1.
<mgrwt>
<rscale>  0 0.17497886E+04</rscale>
<asrwt>0</asrwt>
<pdfrwt beam="1">  1        2 0.27238692E+00 0.17497886E+04</pdfrwt>
<pdfrwt beam="2">  1       -1 0.66511727E-01 0.17497886E+04</pdfrwt>
<totfact> 0.22157063E+01</totfact>
</mgrwt>
</event>
<event>
12    6  0.9533401E-008  0.1429269E+04  0.7818608E-02  0.8932900E-01
         -1   -1    0    0    0  501 -0.00000000000E+00  0.00000000000E+00  0.23401687170E+03  0.23401687170E+03  0.00000000000E+00 0.  1.
          2   -1    0    0  501    0  0.00000000000E+00 -0.00000000000E+00 -0.21823329914E+04  0.21823329914E+04  0.00000000000E+00 0. -1.
         24    2    1    2    0    0 -0.17821570386E+03 -0.37969707696E+03 -0.68267454233E+03  0.80513371092E+03  0.79152096420E+02 0.  0.
        254    2    1    2    0    0  0.17821570386E+03  0.37969707696E+03 -0.12656415774E+04  0.16112161522E+04  0.90456518797E+03 0.  0.
         23    2    4    4    0    0 -0.11837000391E+03 -0.20579891165E+03 -0.10487688681E+03  0.27460342837E+03  0.89684065625E+02 0.  0.
         23    2    4    4    0    0  0.29658570777E+03  0.58549598861E+03 -0.11607646906E+04  0.13366127238E+04  0.91598427036E+02 0.  0.
          4    1    3    3  502    0 -0.77082903988E+02 -0.21143778704E+03 -0.42817579277E+03  0.48371708817E+03  0.00000000000E+00 0. -1.
         -3    1    3    3    0  502 -0.10113279987E+03 -0.16825928992E+03 -0.25449874956E+03  0.32141662275E+03  0.00000000000E+00 0.  1.
         11    1    5    5    0    0  0.10666676119E+02 -0.16330486541E+02 -0.25306008746E+02  0.31950850517E+02  0.00000000000E+00 0. -1.
        -11    1    5    5    0    0 -0.12903668003E+03 -0.18946842511E+03 -0.79570878060E+02  0.24265257785E+03  0.00000000000E+00 0.  1.
          3    1    6    6  503    0  0.59991736553E+02  0.11098434892E+03 -0.30276963993E+03  0.32800303203E+03  0.00000000000E+00 0. -1.
         -3    1    6    6    0  503  0.23659397121E+03  0.47451163968E+03 -0.85799505063E+03  0.10086096918E+04  0.00000000000E+00 0.  1.
<mgrwt>
<rscale>  0 0.14292694E+04</rscale>
<asrwt>0</asrwt>
<pdfrwt beam="1">  1        2 0.33574352E+00 0.14292694E+04</pdfrwt>
<pdfrwt beam="2">  1       -1 0.36002597E-01 0.14292694E+04</pdfrwt>
<totfact> 0.43164075E+01</totfact>
</mgrwt>
</event>
<event>
12    6  0.9533401E-008  0.1237353E+04  0.7818608E-02  0.9080775E-01
          2   -1    0    0  501    0  0.00000000000E+00  0.00000000000E+00  0.58298256712E+03  0.58298256712E+03  0.00000000000E+00 0. -1.
         -1   -1    0    0    0  501 -0.00000000000E+00 -0.00000000000E+00 -0.65655621720E+03  0.65655621720E+03  0.00000000000E+00 0.  1.
         24    2    1    2    0    0 -0.11355203193E+03 -0.29612098577E+02 -0.25697337748E+03  0.29429215000E+03  0.82471889041E+02 0.  0.
        254    2    1    2    0    0  0.11355203193E+03  0.29612098577E+02  0.18339972739E+03  0.94524663432E+03  0.91982867935E+03 0.  0.
         23    2    4    4    0    0  0.41100871671E+03  0.14360299629E+02  0.38697531235E+03  0.57341218905E+03  0.99585454595E+02 0.  0.
         23    2    4    4    0    0 -0.29745668479E+03  0.15251798948E+02 -0.20357558496E+03  0.37183444527E+03  0.90026325051E+02 0.  0.
          2    1    3    3  502    0 -0.85896475632E+01  0.70684486748E+01 -0.10711307200E+03  0.10768916011E+03  0.00000000000E+00 0. -1.
         -1    1    3    3    0  502 -0.10496238436E+03 -0.36680547252E+02 -0.14986030548E+03  0.18660298989E+03  0.00000000000E+00 0.  1.
         11    1    5    5    0    0  0.35125698987E+03  0.47584715590E+02  0.31610406231E+03  0.47493952910E+03  0.00000000000E+00 0. -1.
        -11    1    5    5    0    0  0.59751726848E+02 -0.33224415961E+02  0.70871250041E+02  0.98472659960E+02  0.00000000000E+00 0.  1.
          1    1    6    6  503    0 -0.21802244202E+03 -0.15364743822E+02 -0.10782852598E+03  0.24371469301E+03  0.00000000000E+00 0. -1.
         -1    1    6    6    0  503 -0.79434242773E+02  0.30616542770E+02 -0.95747058973E+02  0.12811975226E+03  0.00000000000E+00 0.  1.
<mgrwt>
<rscale>  0 0.12373534E+04</rscale>
<asrwt>0</asrwt>
<pdfrwt beam="1">  1        2 0.89689626E-01 0.12373534E+04</pdfrwt>
<pdfrwt beam="2">  1       -1 0.10100865E+00 0.12373534E+04</pdfrwt>
<totfact> 0.53836185E+01</totfact>
</mgrwt>
</event>
<event>
12    6  0.9533401E-008  0.1677365E+04  0.7818608E-02  0.8774380E-01
          2   -1    0    0  501    0  0.00000000000E+00  0.00000000000E+00  0.27435276649E+04  0.27435276649E+04  0.00000000000E+00 0. -1.
         -1   -1    0    0    0  501 -0.00000000000E+00 -0.00000000000E+00 -0.25638092524E+03  0.25638092524E+03  0.00000000000E+00 0.  1.
         24    2    1    2    0    0  0.36093023305E+03 -0.36447113931E+03  0.34978108139E+03  0.62593784601E+03  0.79633772059E+02 0.  0.
        254    2    1    2    0    0 -0.36093023305E+03  0.36447113931E+03  0.21373656583E+04  0.23739707442E+04  0.89682511802E+03 0.  0.
         23    2    4    4    0    0 -0.59216370283E+03  0.15789100714E+03  0.18125083678E+04  0.19155864634E+04  0.93260356980E+02 0.  0.
         23    2    4    4    0    0  0.23123346978E+03  0.20658013217E+03  0.32485729047E+03  0.45838428077E+03  0.91867410573E+02 0.  0.
          4    1    3    3  502    0  0.11164045218E+02  0.14040050544E+00  0.19003758897E+02  0.22040836421E+02  0.00000000000E+00 0. -1.
         -3    1    3    3    0  502  0.34976618783E+03 -0.36461153982E+03  0.33077732249E+03  0.60389700959E+03  0.00000000000E+00 0.  1.
         11    1    5    5    0    0 -0.18337590303E+03  0.41812127956E+02  0.43235221577E+03  0.47149063017E+03  0.00000000000E+00 0.  1.
        -11    1    5    5    0    0 -0.40878779981E+03  0.11607887919E+03  0.13801561521E+04  0.14440958332E+04  0.00000000000E+00 0. -1.
          1    1    6    6  503    0  0.11244597970E+03  0.61460658495E+02  0.84406085396E+02  0.15344672738E+03  0.00000000000E+00 0. -1.
         -1    1    6    6    0  503  0.11878749009E+03  0.14511947367E+03  0.24045120508E+03  0.30493755338E+03  0.00000000000E+00 0.  1.
<mgrwt>
<rscale>  0 0.16773648E+04</rscale>
<asrwt>0</asrwt>
<pdfrwt beam="1">  1        2 0.42208116E+00 0.16773648E+04</pdfrwt>
<pdfrwt beam="2">  1       -1 0.39443221E-01 0.16773648E+04</pdfrwt>
<totfact> 0.17017882E+01</totfact>
</mgrwt>
</event>
<event>
12    6  0.9533401E-008  0.2499321E+04  0.7818608E-02  0.8403227E-01
         -1   -1    0    0    0  501 -0.00000000000E+00  0.00000000000E+00  0.17054338398E+04  0.17054338398E+04  0.00000000000E+00 0.  1.
          2   -1    0    0  501    0  0.00000000000E+00 -0.00000000000E+00 -0.91569160805E+03  0.91569160805E+03  0.00000000000E+00 0. -1.
         24    2    1    2    0    0 -0.72080540624E+03 -0.59361110395E+03 -0.23646108251E+03  0.96677705993E+03  0.82519474418E+02 0.  0.
        254    2    1    2    0    0  0.72080540624E+03  0.59361110395E+03  0.10262033142E+04  0.16543483879E+04  0.90102206963E+03 0.  0.
         23    2    4    4    0    0  0.42367543249E+03 -0.14873782396E+03  0.19507380227E+03  0.49807640982E+03  0.91665202302E+02 0.  0.
         23    2    4    4    0    0  0.29712997375E+03  0.74234892790E+03  0.83112951195E+03  0.11562719781E+04  0.82586134127E+02 0.  0.
          2    1    3    3  502    0 -0.64353646802E+03 -0.52185856457E+03 -0.18280850510E+03  0.84846596669E+03  0.00000000000E+00 0. -1.
         -1    1    3    3    0  502 -0.77268938224E+02 -0.71752539379E+02 -0.53652577406E+02  0.11831109324E+03  0.00000000000E+00 0.  1.
         11    1    5    5    0    0  0.41019770022E+03 -0.15104858875E+03  0.16904194131E+03  0.46867153461E+03  0.00000000000E+00 0. -1.
        -11    1    5    5    0    0  0.13477732276E+02  0.23107647958E+01  0.26031860962E+02  0.29404875215E+02  0.00000000000E+00 0.  1.
          1    1    6    6  503    0  0.14268941982E+03  0.46274717568E+03  0.51311075413E+03  0.70553374486E+03  0.00000000000E+00 0. -1.
         -1    1    6    6    0  503  0.15444055393E+03  0.27960175223E+03  0.31801875782E+03  0.45073823320E+03  0.00000000000E+00 0.  1.
<mgrwt>
<rscale>  0 0.24993211E+04</rscale>
<asrwt>0</asrwt>
<pdfrwt beam="1">  1        2 0.14087563E+00 0.24993211E+04</pdfrwt>
<pdfrwt beam="2">  1       -1 0.26237444E+00 0.24993211E+04</pdfrwt>
<totfact> 0.16852540E+00</totfact>
</mgrwt>
</event>
<event>
12    6  0.9533401E-008  0.1945292E+04  0.7818608E-02  0.8632634E-01
          2   -1    0    0  501    0  0.00000000000E+00  0.00000000000E+00  0.78535429263E+03  0.78535429263E+03  0.00000000000E+00 0. -1.
         -1   -1    0    0    0  501 -0.00000000000E+00 -0.00000000000E+00 -0.12046035357E+04  0.12046035357E+04  0.00000000000E+00 0.  1.
         24    2    1    2    0    0 -0.19811787476E+03  0.71628896126E+03 -0.30503207889E+02  0.74813694754E+03  0.80360925006E+02 0.  0.
        254    2    1    2    0    0  0.19811787476E+03 -0.71628896126E+03 -0.38874603521E+03  0.12418208808E+04  0.91579203526E+03 0.  0.
         23    2    4    4    0    0 -0.11541336450E+03 -0.24941649192E+03 -0.57348347703E+03  0.64233090932E+03  0.90426033287E+02 0.  0.
         23    2    4    4    0    0  0.31353123926E+03 -0.46687246933E+03  0.18473744182E+03  0.59948997150E+03  0.94808031848E+02 0.  0.
          4    1    3    3  502    0 -0.68908391506E+02  0.26312761593E+03 -0.49789309052E+02  0.27652031386E+03  0.00000000000E+00 0. -1.
         -3    1    3    3    0  502 -0.12920948325E+03  0.45316134533E+03  0.19286101163E+02  0.47161663368E+03  0.00000000000E+00 0.  1.
         11    1    5    5    0    0 -0.11367237466E+03 -0.16747214743E+03 -0.45785622571E+03  0.50060029199E+03  0.00000000000E+00 0.  1.
        -11    1    5    5    0    0 -0.17409898441E+01 -0.81944344493E+02 -0.11562725132E+03  0.14173061733E+03  0.00000000000E+00 0. -1.
          1    1    6    6  503    0  0.16742627285E+02 -0.63609639412E+02 -0.49014657161E-01  0.65776167393E+02  0.00000000000E+00 0. -1.
         -1    1    6    6    0  503  0.29678861198E+03 -0.40326282992E+03  0.18478645648E+03  0.53371380411E+03  0.00000000000E+00 0.  1.
<mgrwt>
<rscale>  0 0.19452923E+04</rscale>
<asrwt>0</asrwt>
<pdfrwt beam="1">  1        2 0.12082374E+00 0.19452923E+04</pdfrwt>
<pdfrwt beam="2">  1       -1 0.18532362E+00 0.19452923E+04</pdfrwt>
<totfact> 0.71682360E+00</totfact>
</mgrwt>
</event>
<event>
12    6  0.9533401E-008  0.1945774E+04  0.7818608E-02  0.8632401E-01
         -1   -1    0    0    0  501 -0.00000000000E+00  0.00000000000E+00  0.38848595738E+03  0.38848595738E+03  0.00000000000E+00 0.  1.
          2   -1    0    0  501    0  0.00000000000E+00 -0.00000000000E+00 -0.24364061837E+04  0.24364061837E+04  0.00000000000E+00 0. -1.
         24    2    1    2    0    0  0.31124869597E+03 -0.62676036511E+03 -0.12513466330E+04  0.14360678848E+04  0.81965040260E+02 0.  0.
        254    2    1    2    0    0 -0.31124869597E+03  0.62676036511E+03 -0.79657359333E+03  0.13888242563E+04  0.89699443659E+03 0.  0.
         23    2    4    4    0    0  0.86176695715E+02  0.40067421917E+03  0.49332176096E+02  0.42299893151E+03  0.92348143844E+02 0.  0.
         23    2    4    4    0    0 -0.39742539169E+03  0.22608614594E+03 -0.84590576942E+03  0.96582532478E+03  0.90554403012E+02 0.  0.
          4    1    3    3  502    0  0.18557432242E+03 -0.44620046523E+03 -0.89991214029E+03  0.10214570694E+04  0.00000000000E+00 0. -1.
         -3    1    3    3    0  502  0.12567437355E+03 -0.18055989987E+03 -0.35143449271E+03  0.41461081543E+03  0.00000000000E+00 0.  1.
         11    1    5    5    0    0  0.10075141497E+03  0.30372547561E+03  0.55455840938E+02  0.32476970679E+03  0.00000000000E+00 0.  1.
        -11    1    5    5    0    0 -0.14574719254E+02  0.96948743558E+02 -0.61236648415E+01  0.98229224725E+02  0.00000000000E+00 0. -1.
          2    1    6    6  503    0 -0.41472933644E+02  0.49412025091E+02 -0.78263746012E+02  0.10142369737E+03  0.00000000000E+00 0. -1.
         -2    1    6    6    0  503 -0.35595245804E+03  0.17667412085E+03 -0.76764202341E+03  0.86440162741E+03  0.00000000000E+00 0.  1.
<mgrwt>
<rscale>  0 0.19457745E+04</rscale>
<asrwt>0</asrwt>
<pdfrwt beam="1">  1        2 0.37483171E+00 0.19457745E+04</pdfrwt>
<pdfrwt beam="2">  1       -1 0.59767071E-01 0.19457745E+04</pdfrwt>
<totfact> 0.11429104E+01</totfact>
</mgrwt>
</event>
<event>
12    6  0.9533401E-008  0.2168864E+04  0.7818608E-02  0.8531500E-01
         -1   -1    0    0    0  501 -0.00000000000E+00  0.00000000000E+00  0.10588098455E+04  0.10588098455E+04  0.00000000000E+00 0.  1.
          2   -1    0    0  501    0  0.00000000000E+00 -0.00000000000E+00 -0.11106746727E+04  0.11106746727E+04  0.00000000000E+00 0. -1.
         24    2    1    2    0    0  0.92328272777E+02  0.31975605211E+03 -0.85248548148E+03  0.91910842044E+03  0.85207684934E+02 0.  0.
        254    2    1    2    0    0 -0.92328272777E+02 -0.31975605211E+03  0.80062065426E+03  0.12503760979E+04  0.90093202364E+03 0.  0.
         23    2    4    4    0    0 -0.28939413324E+03 -0.26851595980E+01  0.81147174493E+03  0.86633844201E+03  0.91102847608E+02 0.  0.
         23    2    4    4    0    0  0.19706586046E+03 -0.31707089252E+03 -0.10851090672E+02  0.38403765584E+03  0.89433051454E+02 0.  0.
          4    1    3    3  502    0  0.61043506503E+02  0.13749626272E+03 -0.48371656738E+03  0.50657008351E+03  0.00000000000E+00 0. -1.
         -3    1    3    3    0  502  0.31284766274E+02  0.18225978940E+03 -0.36876891409E+03  0.41253833692E+03  0.00000000000E+00 0.  1.
         11    1    5    5    0    0 -0.17279724214E+03 -0.43720206880E+02  0.52154339984E+03  0.55116046783E+03  0.00000000000E+00 0.  1.
        -11    1    5    5    0    0 -0.11659689111E+03  0.41035047282E+02  0.28992834509E+03  0.31517797418E+03  0.00000000000E+00 0. -1.
          3    1    6    6  503    0  0.92752387647E+02 -0.90217909167E+02  0.25015189705E+02  0.13178784566E+03  0.00000000000E+00 0. -1.
         -3    1    6    6    0  503  0.10431347282E+03 -0.22685298335E+03 -0.35866280378E+02  0.25224981018E+03  0.00000000000E+00 0.  1.
<mgrwt>
<rscale>  0 0.21688645E+04</rscale>
<asrwt>0</asrwt>
<pdfrwt beam="1">  1        2 0.17087303E+00 0.21688645E+04</pdfrwt>
<pdfrwt beam="2">  1       -1 0.16289382E+00 0.21688645E+04</pdfrwt>
<totfact> 0.62312634E+00</totfact>
</mgrwt>
</event>
<event>
12    6  0.9533401E-008  0.1318099E+04  0.7818608E-02  0.9015334E-01
          2   -1    0    0  501    0  0.00000000000E+00  0.00000000000E+00  0.40145858834E+03  0.40145858834E+03  0.00000000000E+00 0. -1.
         -1   -1    0    0    0  501 -0.00000000000E+00 -0.00000000000E+00 -0.10819208684E+04  0.10819208684E+04  0.00000000000E+00 0.  1.
         24    2    1    2    0    0  0.31383218663E+03  0.10876725885E+03 -0.20308467501E+03  0.39752808089E+03  0.80400447188E+02 0.  0.
        254    2    1    2    0    0 -0.31383218663E+03 -0.10876725885E+03 -0.47737760507E+03  0.10858513759E+04  0.91698575491E+03 0.  0.
         23    2    4    4    0    0  0.20365969319E+03  0.21704969609E+03 -0.32142342740E+03  0.44791044511E+03  0.93396498599E+02 0.  0.
         23    2    4    4    0    0 -0.51749187982E+03 -0.32581695494E+03 -0.15595417766E+03  0.63794093077E+03  0.93232997459E+02 0.  0.
          2    1    3    3  502    0  0.18261452147E+03  0.66898196713E+02 -0.16387672080E+03  0.25432068691E+03  0.00000000000E+00 0. -1.
         -1    1    3    3    0  502  0.13121766516E+03  0.41869062137E+02 -0.39207954214E+02  0.14320739397E+03  0.00000000000E+00 0.  1.
         11    1    5    5    0    0  0.83980057654E+02  0.47265064674E+02 -0.15143182952E+03  0.17949438826E+03  0.00000000000E+00 0. -1.
        -11    1    5    5    0    0  0.11967963553E+03  0.16978463141E+03 -0.16999159788E+03  0.26841605685E+03  0.00000000000E+00 0.  1.
          2    1    6    6  503    0 -0.76782501974E+02 -0.32750559006E+02  0.80330413470E+01  0.83861084407E+02  0.00000000000E+00 0. -1.
         -2    1    6    6    0  503 -0.44070937784E+03 -0.29306639593E+03 -0.16398721901E+03  0.55407984636E+03  0.00000000000E+00 0.  1.
<mgrwt>
<rscale>  0 0.13180993E+04</rscale>
<asrwt>0</asrwt>
<pdfrwt beam="1">  1        2 0.61762859E-01 0.13180993E+04</pdfrwt>
<pdfrwt beam="2">  1       -1 0.16644937E+00 0.13180993E+04</pdfrwt>
<totfact> 0.23190197E+01</totfact>
</mgrwt>
</event>
<event>
12    6  0.9533401E-008  0.1521265E+04  0.7818608E-02  0.8870434E-01
          2   -1    0    0  501    0  0.00000000000E+00  0.00000000000E+00  0.27443252396E+04  0.27443252396E+04  0.00000000000E+00 0. -1.
         -1   -1    0    0    0  501 -0.00000000000E+00 -0.00000000000E+00 -0.21082119818E+03  0.21082119818E+03  0.00000000000E+00 0.  1.
         24    2    1    2    0    0 -0.62239008050E+02  0.83380510568E+02  0.17430549487E+04  0.17483405839E+04  0.87339792162E+02 0.  0.
        254    2    1    2    0    0  0.62239008050E+02 -0.83380510568E+02  0.79044909271E+03  0.12068058539E+04  0.90594955555E+03 0.  0.
         23    2    4    4    0    0  0.27933145610E+03 -0.34593901676E+03  0.15417204750E+03  0.47934502087E+03  0.91119499093E+02 0.  0.
         23    2    4    4    0    0 -0.21709244805E+03  0.26255850620E+03  0.63627704522E+03  0.72746083305E+03  0.91020245960E+02 0.  0.
          2    1    3    3  502    0 -0.56939330537E+02  0.10115139475E+03  0.15731630995E+04  0.15774396438E+04  0.00000000000E+00 0. -1.
         -1    1    3    3    0  502 -0.52996775125E+01 -0.17770884178E+02  0.16989184917E+03  0.17090094008E+03  0.00000000000E+00 0.  1.
         11    1    5    5    0    0  0.91182321100E+02 -0.81858075759E+02  0.55650402840E+01  0.12266185194E+03  0.00000000000E+00 0. -1.
        -11    1    5    5    0    0  0.18814913500E+03 -0.26408094100E+03  0.14860700721E+03  0.35668316892E+03  0.00000000000E+00 0.  1.
          3    1    6    6  503    0  0.75019567303E+01  0.15726726511E+02  0.19220605628E+02  0.25943033019E+02  0.00000000000E+00 0. -1.
         -3    1    6    6    0  503 -0.22459440478E+03  0.24683177968E+03  0.61705643959E+03  0.70151780003E+03  0.00000000000E+00 0.  1.
<mgrwt>
<rscale>  0 0.15212652E+04</rscale>
<asrwt>0</asrwt>
<pdfrwt beam="1">  1        2 0.42220386E+00 0.15212652E+04</pdfrwt>
<pdfrwt beam="2">  1       -1 0.32434033E-01 0.15212652E+04</pdfrwt>
<totfact> 0.24507386E+01</totfact>
</mgrwt>
</event>
<event>
12    6  0.9533401E-008  0.2870688E+04  0.7818608E-02  0.8281652E-01
         -1   -1    0    0    0  501 -0.00000000000E+00  0.00000000000E+00  0.15524949138E+04  0.15524949138E+04  0.00000000000E+00 0.  1.
          2   -1    0    0  501    0  0.00000000000E+00 -0.00000000000E+00 -0.13270333923E+04  0.13270333923E+04  0.00000000000E+00 0. -1.
         24    2    1    2    0    0 -0.19658438933E+03 -0.53666644522E+03 -0.10600991786E+04  0.12068763879E+04  0.78000330906E+02 0.  0.
        254    2    1    2    0    0  0.19658438933E+03  0.53666644522E+03  0.12855607001E+04  0.16726519182E+04  0.90467774937E+03 0.  0.
         23    2    4    4    0    0 -0.25192511315E+03  0.36288501577E+03  0.10215048652E+04  0.11166013036E+04  0.90412854735E+02 0.  0.
         23    2    4    4    0    0  0.44850950247E+03  0.17378142945E+03  0.26405583489E+03  0.55605061456E+03  0.90033565878E+02 0.  0.
          4    1    3    3  502    0 -0.17093701001E+03 -0.42818162951E+03 -0.79022022180E+03  0.91488084918E+03  0.00000000000E+00 0. -1.
         -3    1    3    3    0  502 -0.25647379317E+02 -0.10848481571E+03 -0.26987895683E+03  0.29199553874E+03  0.00000000000E+00 0.  1.
         11    1    5    5    0    0 -0.25163104857E+03  0.35653032724E+03  0.95718119945E+03  0.10519638337E+04  0.00000000000E+00 0.  1.
        -11    1    5    5    0    0 -0.29406457217E+00  0.63546885262E+01  0.64323665750E+02  0.64637469905E+02  0.00000000000E+00 0. -1.
          1    1    6    6  503    0  0.23796023567E+03  0.13025872547E+03  0.11621029226E+03  0.29512241756E+03  0.00000000000E+00 0. -1.
         -1    1    6    6    0  503  0.21054926681E+03  0.43522703979E+02  0.14784554263E+03  0.26092819700E+03  0.00000000000E+00 0.  1.
<mgrwt>
<rscale>  0 0.28706881E+04</rscale>
<asrwt>0</asrwt>
<pdfrwt beam="1">  1        2 0.20415898E+00 0.28706881E+04</pdfrwt>
<pdfrwt beam="2">  1       -1 0.23884537E+00 0.28706881E+04</pdfrwt>
<totfact> 0.12962430E+00</totfact>
</mgrwt>
</event>
<event>
12    6  0.9533401E-008  0.1702431E+04  0.7818608E-02  0.8759979E-01
         -1   -1    0    0    0  501 -0.00000000000E+00  0.00000000000E+00  0.32905734840E+03  0.32905734840E+03  0.00000000000E+00 0.  1.
          2   -1    0    0  501    0  0.00000000000E+00 -0.00000000000E+00 -0.22019512177E+04  0.22019512177E+04  0.00000000000E+00 0. -1.
         24    2    1    2    0    0  0.36803033892E+03  0.35627250966E+03 -0.97739966156E+03  0.11062955938E+04  0.78761735752E+02 0.  0.
        254    2    1    2    0    0 -0.36803033892E+03 -0.35627250966E+03 -0.89549420779E+03  0.14247129723E+04  0.98260915209E+03 0.  0.
         23    2    4    4    0    0 -0.17380477093E+03 -0.44247162856E+03 -0.10430496301E+04  0.11498233106E+04  0.90287730526E+02 0.  0.
         23    2    4    4    0    0 -0.19422556800E+03  0.86199118892E+02  0.14755542227E+03  0.27488966174E+03  0.92940110430E+02 0.  0.
          4    1    3    3  502    0  0.21812716586E+03  0.22489614650E+03 -0.51576060547E+03  0.60346229323E+03  0.00000000000E+00 0. -1.
         -3    1    3    3    0  502  0.14990317306E+03  0.13137636317E+03 -0.46163905609E+03  0.50283330061E+03  0.00000000000E+00 0.  1.
         11    1    5    5    0    0 -0.10762918291E+03 -0.18081444909E+03 -0.38879170614E+03  0.44208245473E+03  0.00000000000E+00 0. -1.
        -11    1    5    5    0    0 -0.66175588015E+02 -0.26165717947E+03 -0.65425792392E+03  0.70774085584E+03  0.00000000000E+00 0.  1.
          2    1    6    6  503    0  0.11936978568E+01  0.25750708966E+02  0.27558183806E+02  0.37735625363E+02  0.00000000000E+00 0. -1.
         -2    1    6    6    0  503 -0.19541926585E+03  0.60448409926E+02  0.11999723847E+03  0.23715403638E+03  0.00000000000E+00 0.  1.
<mgrwt>
<rscale>  0 0.17024315E+04</rscale>
<asrwt>0</asrwt>
<pdfrwt beam="1">  1        2 0.33876172E+00 0.17024315E+04</pdfrwt>
<pdfrwt beam="2">  1       -1 0.50624209E-01 0.17024315E+04</pdfrwt>
<totfact> 0.21886787E+01</totfact>
</mgrwt>
</event>
<event>
12    6  0.9533401E-008  0.1851601E+04  0.7818608E-02  0.8679330E-01
          2   -1    0    0  501    0  0.00000000000E+00  0.00000000000E+00  0.11143793536E+04  0.11143793536E+04  0.00000000000E+00 0. -1.
         -1   -1    0    0    0  501 -0.00000000000E+00 -0.00000000000E+00 -0.76913343711E+03  0.76913343711E+03  0.00000000000E+00 0.  1.
         24    2    1    2    0    0  0.51044224865E+03  0.17237474935E+03  0.58985172092E+03  0.80292120664E+03  0.80579575462E+02 0.  0.
        254    2    1    2    0    0 -0.51044224865E+03 -0.17237474935E+03 -0.24460580437E+03  0.10805915841E+04  0.90420231625E+03 0.  0.
         23    2    4    4    0    0  0.64182002453E+02 -0.40268674919E+03 -0.30540679852E+02  0.41915918328E+03  0.92118078485E+02 0.  0.
         23    2    4    4    0    0 -0.57462425110E+03  0.23031199985E+03 -0.21406512452E+03  0.66143240084E+03  0.91827534631E+02 0.  0.
          2    1    3    3  502    0  0.50808199284E+03  0.17716580560E+03  0.57679305664E+03  0.78881256602E+03  0.00000000000E+00 0. -1.
         -1    1    3    3    0  502  0.23602558139E+01 -0.47910562502E+01  0.13058664278E+02  0.14108640622E+02  0.00000000000E+00 0.  1.
         11    1    5    5    0    0  0.14355879204E+02 -0.31411413482E+03 -0.54821695011E+01  0.31448980133E+03  0.00000000000E+00 0. -1.
        -11    1    5    5    0    0  0.49826123249E+02 -0.88572614378E+02 -0.25058510351E+02  0.10466938194E+03  0.00000000000E+00 0.  1.
          3    1    6    6  503    0 -0.51382101031E+03  0.19799023097E+03 -0.21853566175E+03  0.59242720874E+03  0.00000000000E+00 0. -1.
         -3    1    6    6    0  503 -0.60803240793E+02  0.32321768878E+02  0.44705372260E+01  0.69005192105E+02  0.00000000000E+00 0.  1.
<mgrwt>
<rscale>  0 0.18516008E+04</rscale>
<asrwt>0</asrwt>
<pdfrwt beam="1">  1        2 0.17144298E+00 0.18516008E+04</pdfrwt>
<pdfrwt beam="2">  1       -1 0.11832822E+00 0.18516008E+04</pdfrwt>
<totfact> 0.14666655E+01</totfact>
</mgrwt>
</event>
<event>
12    6  0.9533401E-008  0.1193184E+04  0.7818608E-02  0.9118843E-01
          2   -1    0    0  501    0  0.00000000000E+00  0.00000000000E+00  0.64996610382E+03  0.64996610382E+03  0.00000000000E+00 0. -1.
         -1   -1    0    0    0  501 -0.00000000000E+00 -0.00000000000E+00 -0.54760134078E+03  0.54760134078E+03  0.00000000000E+00 0.  1.
         24    2    1    2    0    0 -0.14574581428E+03  0.30938953578E+02 -0.16381020337E+03  0.23461108356E+03  0.77521071804E+02 0.  0.
        254    2    1    2    0    0  0.14574581428E+03 -0.30938953578E+02  0.26617496641E+03  0.96295636104E+03  0.91336563286E+03 0.  0.
         23    2    4    4    0    0  0.43811539416E+03 -0.24559712526E+03  0.29203791647E+03  0.58854239286E+03  0.93983812418E+02 0.  0.
         23    2    4    4    0    0 -0.29236957988E+03  0.21465817168E+03 -0.25862950063E+02  0.37441396818E+03  0.89212249545E+02 0.  0.
          2    1    3    3  502    0 -0.75786785409E+01  0.21128221608E+01  0.86928233961E+01  0.11724570973E+02  0.00000000000E+00 0. -1.
         -1    1    3    3    0  502 -0.13816713574E+03  0.28826131418E+02 -0.17250302677E+03  0.22288651259E+03  0.00000000000E+00 0.  1.
         11    1    5    5    0    0  0.18196758103E+02 -0.30489777019E+02  0.39314554670E+01  0.35724009436E+02  0.00000000000E+00 0. -1.
        -11    1    5    5    0    0  0.41991863606E+03 -0.21510734824E+03  0.28810646100E+03  0.55281838342E+03  0.00000000000E+00 0.  1.
          2    1    6    6  503    0 -0.37499247032E+02  0.64450071887E+01 -0.24591479811E+02  0.45304221933E+02  0.00000000000E+00 0. -1.
         -2    1    6    6    0  503 -0.25487033285E+03  0.20821316450E+03 -0.12714702522E+01  0.32910974624E+03  0.00000000000E+00 0.  1.
<mgrwt>
<rscale>  0 0.11931845E+04</rscale>
<asrwt>0</asrwt>
<pdfrwt beam="1">  1        2 0.99994784E-01 0.11931845E+04</pdfrwt>
<pdfrwt beam="2">  1       -1 0.84246361E-01 0.11931845E+04</pdfrwt>
<totfact> 0.70824362E+01</totfact>
</mgrwt>
</event>
<event>
12    6  0.9533401E-008  0.1472411E+04  0.7818608E-02  0.8903009E-01
          2   -1    0    0  501    0  0.00000000000E+00  0.00000000000E+00  0.73985000566E+03  0.73985000566E+03  0.00000000000E+00 0. -1.
         -1   -1    0    0    0  501 -0.00000000000E+00 -0.00000000000E+00 -0.73257912319E+03  0.73257912319E+03  0.00000000000E+00 0.  1.
         24    2    1    2    0    0  0.33144990380E+03 -0.10005789357E+02 -0.31222625613E+03  0.46188275650E+03  0.76754746978E+02 0.  0.
        254    2    1    2    0    0 -0.33144990380E+03  0.10005789357E+02  0.31949713861E+03  0.10105463724E+04  0.89953676665E+03 0.  0.
         23    2    4    4    0    0 -0.34559104819E+03  0.14590580935E+03  0.58441815796E+03  0.70035962162E+03  0.90759784295E+02 0.  0.
         23    2    4    4    0    0  0.14141144390E+02 -0.13590002000E+03 -0.26492101935E+03  0.31018675074E+03  0.85813090141E+02 0.  0.
          2    1    3    3  502    0  0.11204713654E+03 -0.39894802389E+02 -0.10969075935E+03  0.16179684407E+03  0.00000000000E+00 0. -1.
         -1    1    3    3    0  502  0.21940276726E+03  0.29889013033E+02 -0.20253549678E+03  0.30008591243E+03  0.00000000000E+00 0.  1.
         11    1    5    5    0    0 -0.36419049412E+02 -0.20201737738E+01  0.10402982297E+03  0.11023897827E+03  0.00000000000E+00 0. -1.
        -11    1    5    5    0    0 -0.30917199878E+03  0.14792598313E+03  0.48038833499E+03  0.59012064335E+03  0.00000000000E+00 0.  1.
          2    1    6    6  503    0 -0.13256820439E+02 -0.36312161120E+02 -0.18217634558E+02  0.42734044300E+02  0.00000000000E+00 0. -1.
         -2    1    6    6    0  503  0.27397964830E+02 -0.99587858877E+02 -0.24670338479E+03  0.26745270644E+03  0.00000000000E+00 0.  1.
<mgrwt>
<rscale>  0 0.14724112E+04</rscale>
<asrwt>0</asrwt>
<pdfrwt beam="1">  1        2 0.11382308E+00 0.14724112E+04</pdfrwt>
<pdfrwt beam="2">  1       -1 0.11270448E+00 0.14724112E+04</pdfrwt>
<totfact> 0.30410527E+01</totfact>
</mgrwt>
</event>
<event>
12    6  0.9533401E-008  0.1848978E+04  0.7818608E-02  0.8680679E-01
          2   -1    0    0  501    0  0.00000000000E+00  0.00000000000E+00  0.24237343647E+04  0.24237343647E+04  0.00000000000E+00 0. -1.
         -1   -1    0    0    0  501 -0.00000000000E+00 -0.00000000000E+00 -0.35262926486E+03  0.35262926486E+03  0.00000000000E+00 0.  1.
         24    2    1    2    0    0  0.46188743181E+03 -0.13533504683E+03  0.15588941558E+04  0.16332778354E+04  0.76091551463E+02 0.  0.
        254    2    1    2    0    0 -0.46188743181E+03  0.13533504683E+03  0.51221094405E+03  0.11430857941E+04  0.90145965352E+03 0.  0.
         23    2    4    4    0    0 -0.57469779434E+03  0.15494855863E+03  0.68761388889E+03  0.91388757509E+03  0.89950147703E+02 0.  0.
         23    2    4    4    0    0  0.11281036253E+03 -0.19613511804E+02 -0.17540294485E+03  0.22919821902E+03  0.93030977633E+02 0.  0.
          2    1    3    3  502    0  0.35560942259E+03 -0.12764494030E+03  0.12847230613E+04  0.13391283122E+04  0.00000000000E+00 0. -1.
         -1    1    3    3    0  502  0.10627800922E+03 -0.76901065261E+01  0.27417109442E+03  0.29414952320E+03  0.00000000000E+00 0.  1.
         11    1    5    5    0    0 -0.42304702681E+03  0.10927807680E+03  0.56125443446E+03  0.71127844418E+03  0.00000000000E+00 0. -1.
        -11    1    5    5    0    0 -0.15165076753E+03  0.45670481830E+02  0.12635945444E+03  0.20260913091E+03  0.00000000000E+00 0.  1.
          3    1    6    6  503    0  0.48118499200E+02  0.29415108316E+02 -0.11477962295E+03  0.12788667017E+03  0.00000000000E+00 0. -1.
         -3    1    6    6    0  503  0.64691863328E+02 -0.49028620121E+02 -0.60623321902E+02  0.10131154885E+03  0.00000000000E+00 0.  1.
<mgrwt>
<rscale>  0 0.18489777E+04</rscale>
<asrwt>0</asrwt>
<pdfrwt beam="1">  1        2 0.37288220E+00 0.18489777E+04</pdfrwt>
<pdfrwt beam="2">  1       -1 0.54250658E-01 0.18489777E+04</pdfrwt>
<totfact> 0.14164283E+01</totfact>
</mgrwt>
</event>
<event>
12    6  0.9533401E-008  0.1866551E+04  0.7818608E-02  0.8671688E-01
          2   -1    0    0  501    0  0.00000000000E+00  0.00000000000E+00  0.30392081234E+04  0.30392081234E+04  0.00000000000E+00 0. -1.
         -1   -1    0    0    0  501 -0.00000000000E+00 -0.00000000000E+00 -0.28658874362E+03  0.28658874362E+03  0.00000000000E+00 0.  1.
         24    2    1    2    0    0 -0.49186359888E+03  0.31311566310E+03  0.32843925671E+03  0.67380025339E+03  0.78506163643E+02 0.  0.
        254    2    1    2    0    0  0.49186359888E+03 -0.31311566310E+03  0.24241801231E+04  0.26519966136E+04  0.90358483345E+03 0.  0.
         23    2    4    4    0    0  0.50730106430E+03 -0.28770218057E+02  0.22435984741E+04  0.23022641827E+04  0.92217994459E+02 0.  0.
         23    2    4    4    0    0 -0.15437465417E+02 -0.28434544505E+03  0.18058164893E+03  0.34973243093E+03  0.92802984100E+02 0.  0.
          4    1    3    3  502    0 -0.23020863150E+03  0.12176805128E+03  0.18428071295E+03  0.31903425129E+03  0.00000000000E+00 0. -1.
         -3    1    3    3    0  502 -0.26165496738E+03  0.19134761183E+03  0.14415854377E+03  0.35476600210E+03  0.00000000000E+00 0.  1.
         11    1    5    5    0    0  0.93279747986E+02  0.12275368593E+00  0.27491414028E+03  0.29030830332E+03  0.00000000000E+00 0.  1.
        -11    1    5    5    0    0  0.41402131631E+03 -0.28892971743E+02  0.19686843339E+04  0.20119558794E+04  0.00000000000E+00 0. -1.
          1    1    6    6  503    0  0.39628978416E+01 -0.20592108719E+03  0.80547623565E+02  0.22114953849E+03  0.00000000000E+00 0. -1.
         -1    1    6    6    0  503 -0.19400363259E+02 -0.78424357852E+02  0.10003402536E+03  0.12858289244E+03  0.00000000000E+00 0.  1.
<mgrwt>
<rscale>  0 0.18665507E+04</rscale>
<asrwt>0</asrwt>
<pdfrwt beam="1">  1        2 0.46757046E+00 0.18665507E+04</pdfrwt>
<pdfrwt beam="2">  1       -1 0.44090578E-01 0.18665507E+04</pdfrwt>
<totfact> 0.89785197E+00</totfact>
</mgrwt>
</event>
<event>
12    6  0.9533401E-008  0.1871529E+04  0.7818608E-02  0.8669159E-01
          2   -1    0    0  501    0  0.00000000000E+00  0.00000000000E+00  0.19380918098E+04  0.19380918098E+04  0.00000000000E+00 0. -1.
         -1   -1    0    0    0  501 -0.00000000000E+00 -0.00000000000E+00 -0.45181322323E+03  0.45181322323E+03  0.00000000000E+00 0.  1.
         24    2    1    2    0    0 -0.15485200729E+03  0.44631064649E+03  0.12641910651E+04  0.13517358043E+04  0.76408758105E+02 0.  0.
        254    2    1    2    0    0  0.15485200729E+03 -0.44631064649E+03  0.22208752147E+03  0.10381692287E+04  0.89738516973E+03 0.  0.
         23    2    4    4    0    0 -0.18841124064E+03 -0.20339154161E+03  0.46122651876E+03  0.54522653288E+03  0.87607966260E+02 0.  0.
         23    2    4    4    0    0  0.34326324793E+03 -0.24291910489E+03 -0.23913899730E+03  0.49294269580E+03  0.94687340292E+02 0.  0.
          4    1    3    3  502    0 -0.10274764721E+03  0.20679910010E+03  0.68267412461E+03  0.72067115054E+03  0.00000000000E+00 0. -1.
         -1    1    3    3    0  502 -0.52104360081E+02  0.23951154640E+03  0.58151694049E+03  0.63106465380E+03  0.00000000000E+00 0.  1.
         11    1    5    5    0    0 -0.31000071033E+02  0.27170626035E+01  0.57441888120E+02  0.65329605417E+02  0.00000000000E+00 0. -1.
        -11    1    5    5    0    0 -0.15741116961E+03 -0.20610860421E+03  0.40378463064E+03  0.47989692747E+03  0.00000000000E+00 0.  1.
          1    1    6    6  503    0  0.15815026843E+03 -0.10440355532E+03 -0.54852337909E+02  0.19728250997E+03  0.00000000000E+00 0. -1.
         -1    1    6    6    0  503  0.18511297950E+03 -0.13851554957E+03 -0.18428665939E+03  0.29566018582E+03  0.00000000000E+00 0.  1.
<mgrwt>
<rscale>  0 0.18715293E+04</rscale>
<asrwt>0</asrwt>
<pdfrwt beam="1">  1        2 0.29816797E+00 0.18715293E+04</pdfrwt>
<pdfrwt beam="2">  1       -1 0.69509728E-01 0.18715293E+04</pdfrwt>
<totfact> 0.16182672E+01</totfact>
</mgrwt>
</event>
<event>
12    6  0.9533401E-008  0.1100442E+04  0.7818608E-02  0.9204761E-01
         -1   -1    0    0    0  501 -0.00000000000E+00  0.00000000000E+00  0.57224113278E+03  0.57224113278E+03  0.00000000000E+00 0.  1.
          2   -1    0    0  501    0  0.00000000000E+00 -0.00000000000E+00 -0.52904867724E+03  0.52904867724E+03  0.00000000000E+00 0. -1.
         24    2    1    2    0    0 -0.75695336975E+02  0.56259701549E+01  0.19103118442E+03  0.22065140111E+03  0.80204063544E+02 0.  0.
        254    2    1    2    0    0  0.75695336975E+02 -0.56259701549E+01 -0.14783872889E+03  0.88063840892E+03  0.86481575027E+03 0.  0.
         23    2    4    4    0    0  0.45521048846E+03  0.57528703103E+02 -0.31794796113E+02  0.46846107430E+03  0.88987238339E+02 0.  0.
         23    2    4    4    0    0 -0.37951515148E+03 -0.63154673258E+02 -0.11604393277E+03  0.41217733462E+03  0.91671685280E+02 0.  0.
          4    1    3    3  502    0  0.15702740293E+02  0.55595983288E+01  0.48995343912E+02  0.51749675471E+02  0.00000000000E+00 0. -1.
         -3    1    3    3    0  502 -0.91398077268E+02  0.66371826060E-01  0.14203584051E+03  0.16890172563E+03  0.00000000000E+00 0.  1.
         11    1    5    5    0    0  0.41844038391E+03  0.35892199346E+02 -0.48238730388E+02  0.42273819318E+03  0.00000000000E+00 0.  1.
        -11    1    5    5    0    0  0.36770104544E+02  0.21636503757E+02  0.16443934275E+02  0.45722881115E+02  0.00000000000E+00 0. -1.
          4    1    6    6  503    0 -0.34606096005E+03 -0.73494686583E+02 -0.12636897320E+03  0.37567109872E+03  0.00000000000E+00 0.  1.
         -4    1    6    6    0  503 -0.33454191431E+02  0.10340013325E+02  0.10325040421E+02  0.36506235900E+02  0.00000000000E+00 0. -1.
<mgrwt>
<rscale>  0 0.11004425E+04</rscale>
<asrwt>0</asrwt>
<pdfrwt beam="1">  1        2 0.81392104E-01 0.11004425E+04</pdfrwt>
<pdfrwt beam="2">  1       -1 0.88037098E-01 0.11004425E+04</pdfrwt>
<totfact> 0.83019263E+01</totfact>
</mgrwt>
</event>
<event>
12    6  0.9533401E-008  0.1500306E+04  0.7818608E-02  0.8884249E-01
          2   -1    0    0  501    0  0.00000000000E+00  0.00000000000E+00  0.43179401213E+03  0.43179401213E+03  0.00000000000E+00 0. -1.
         -1   -1    0    0    0  501 -0.00000000000E+00 -0.00000000000E+00 -0.13032368190E+04  0.13032368190E+04  0.00000000000E+00 0.  1.
         24    2    1    2    0    0 -0.30998819853E+03  0.26675460284E+03 -0.71980500521E+00  0.41707043181E+03  0.81832301734E+02 0.  0.
        254    2    1    2    0    0  0.30998819853E+03 -0.26675460284E+03 -0.87072300183E+03  0.13179603993E+04  0.90089420400E+03 0.  0.
         23    2    4    4    0    0 -0.15673801063E+03 -0.35109261421E+03 -0.70275415498E+03  0.80658233143E+03  0.94227529497E+02 0.  0.
         23    2    4    4    0    0  0.46672620916E+03  0.84338011362E+02 -0.16796884685E+03  0.51137806785E+03  0.91365968967E+02 0.  0.
          2    1    3    3  502    0 -0.26748787971E+03  0.20580130106E+03 -0.26209553092E+02  0.33851275011E+03  0.00000000000E+00 0. -1.
         -1    1    3    3    0  502 -0.42500318822E+02  0.60953301779E+02  0.25489748087E+02  0.78557681708E+02  0.00000000000E+00 0.  1.
         11    1    5    5    0    0 -0.87854238133E+02 -0.27847415521E+03 -0.47151710643E+03  0.55461212026E+03  0.00000000000E+00 0.  1.
        -11    1    5    5    0    0 -0.68883772500E+02 -0.72618459000E+02 -0.23123704854E+03  0.25197021118E+03  0.00000000000E+00 0. -1.
          3    1    6    6  503    0  0.32979630391E+03  0.20198098346E+02 -0.13301308309E+03  0.35618260138E+03  0.00000000000E+00 0. -1.
         -3    1    6    6    0  503  0.13692990525E+03  0.64139913016E+02 -0.34955763766E+02  0.15519546648E+03  0.00000000000E+00 0.  1.
<mgrwt>
<rscale>  0 0.15003064E+04</rscale>
<asrwt>0</asrwt>
<pdfrwt beam="1">  1        2 0.66429850E-01 0.15003064E+04</pdfrwt>
<pdfrwt beam="2">  1       -1 0.20049797E+00 0.15003064E+04</pdfrwt>
<totfact> 0.12028824E+01</totfact>
</mgrwt>
</event>
<event>
12    6  0.9533401E-008  0.1285685E+04  0.7818608E-02  0.9040994E-01
         -1   -1    0    0    0  501 -0.00000000000E+00  0.00000000000E+00  0.22762810404E+03  0.22762810404E+03  0.00000000000E+00 0.  1.
          2   -1    0    0  501    0  0.00000000000E+00 -0.00000000000E+00 -0.18154469663E+04  0.18154469663E+04  0.00000000000E+00 0. -1.
         24    2    1    2    0    0  0.37679301438E+02  0.23106057340E+03 -0.78753371206E+02  0.25936396282E+03  0.79112915483E+02 0.  0.
        254    2    1    2    0    0 -0.37679301438E+02 -0.23106057340E+03 -0.15090654910E+04  0.17837111075E+04  0.92170382471E+03 0.  0.
         23    2    4    4    0    0  0.16608650543E+03 -0.29344890612E+02  0.47996349768E+02  0.19779714406E+03  0.91510713661E+02 0.  0.
         23    2    4    4    0    0 -0.20376580687E+03 -0.20171568279E+03 -0.15570618408E+04  0.15859139634E+04  0.92042396014E+02 0.  0.
          4    1    3    3  502    0 -0.21389552764E+02  0.42082250950E+02 -0.28310165533E+02  0.55044475518E+02  0.00000000000E+00 0. -1.
         -3    1    3    3    0  502  0.59068854202E+02  0.18897832245E+03 -0.50443205673E+02  0.20431948730E+03  0.00000000000E+00 0.  1.
         11    1    5    5    0    0  0.14407714460E+03 -0.40535097676E+02  0.69532668595E+02  0.16503366245E+03  0.00000000000E+00 0.  1.
        -11    1    5    5    0    0  0.22009360825E+02  0.11190207065E+02 -0.21536318826E+02  0.32763481602E+02  0.00000000000E+00 0. -1.
          1    1    6    6  503    0 -0.55155530220E+02 -0.81881532532E+01 -0.23510467733E+03  0.24162654587E+03  0.00000000000E+00 0. -1.
         -1    1    6    6    0  503 -0.14861027665E+03 -0.19352752954E+03 -0.13219571635E+04  0.13442874176E+04  0.00000000000E+00 0.  1.
<mgrwt>
<rscale>  0 0.12856854E+04</rscale>
<asrwt>0</asrwt>
<pdfrwt beam="1">  1        2 0.27929954E+00 0.12856854E+04</pdfrwt>
<pdfrwt beam="2">  1       -1 0.35019707E-01 0.12856854E+04</pdfrwt>
<totfact> 0.73315840E+01</totfact>
</mgrwt>
</event>
<event>
12    6  0.9533401E-008  0.1953172E+04  0.7818608E-02  0.8628833E-01
          2   -1    0    0  501    0  0.00000000000E+00  0.00000000000E+00  0.22225131242E+04  0.22225131242E+04  0.00000000000E+00 0. -1.
         -1   -1    0    0    0  501 -0.00000000000E+00 -0.00000000000E+00 -0.42911794915E+03  0.42911794915E+03  0.00000000000E+00 0.  1.
         24    2    1    2    0    0 -0.55313329542E+02  0.76340923832E+03  0.66232850345E+03  0.10153151599E+04  0.79577621002E+02 0.  0.
        254    2    1    2    0    0  0.55313329542E+02 -0.76340923832E+03  0.11310666716E+04  0.16363159135E+04  0.90131277787E+03 0.  0.
         23    2    4    4    0    0 -0.11594920081E+03 -0.88349062423E+03  0.65976868094E+03  0.11126027568E+04  0.92683773384E+02 0.  0.
         23    2    4    4    0    0  0.17126253035E+03  0.12008138591E+03  0.47129799061E+03  0.52371315664E+03  0.91669411136E+02 0.  0.
          2    1    3    3  502    0 -0.29195043905E+02  0.54732694881E+03  0.42731097235E+03  0.69499194713E+03  0.00000000000E+00 0. -1.
         -1    1    3    3    0  502 -0.26118285636E+02  0.21608228951E+03  0.23501753111E+03  0.32032321273E+03  0.00000000000E+00 0.  1.
         11    1    5    5    0    0 -0.12256466690E+03 -0.86096765620E+03  0.65482033760E+03  0.10886124550E+04  0.00000000000E+00 0. -1.
        -11    1    5    5    0    0  0.66154660860E+01 -0.22522968031E+02  0.49483433389E+01  0.23990301838E+02  0.00000000000E+00 0.  1.
          3    1    6    6  503    0  0.10009777890E+03  0.93227076306E+02  0.38552228886E+03  0.40907002860E+03  0.00000000000E+00 0. -1.
         -3    1    6    6    0  503  0.71164751457E+02  0.26854309604E+02  0.85775701753E+02  0.11464312803E+03  0.00000000000E+00 0.  1.
<mgrwt>
<rscale>  0 0.19531721E+04</rscale>
<asrwt>0</asrwt>
<pdfrwt beam="1">  1        2 0.34192509E+00 0.19531721E+04</pdfrwt>
<pdfrwt beam="2">  1       -1 0.66018147E-01 0.19531721E+04</pdfrwt>
<totfact> 0.12383686E+01</totfact>
</mgrwt>
</event>
<event>
12    6  0.9533401E-008  0.3919695E+04  0.7818608E-02  0.8020945E-01
         -1   -1    0    0    0  501 -0.00000000000E+00  0.00000000000E+00  0.17831330568E+04  0.17831330568E+04  0.00000000000E+00 0.  1.
          2   -1    0    0  501    0  0.00000000000E+00 -0.00000000000E+00 -0.21540748154E+04  0.21540748154E+04  0.00000000000E+00 0. -1.
         24    2    1    2    0    0  0.14180212470E+04 -0.53937726056E+02  0.10223858609E+04  0.17508407461E+04  0.80479403563E+02 0.  0.
        254    2    1    2    0    0 -0.14180212470E+04  0.53937726056E+02 -0.13933276195E+04  0.21863671261E+04  0.90837537366E+03 0.  0.
         23    2    4    4    0    0 -0.10778526660E+04  0.43289192643E+03 -0.90866698765E+03  0.14776546221E+04  0.92874637762E+02 0.  0.
         23    2    4    4    0    0 -0.34016858105E+03 -0.37895420038E+03 -0.48466063188E+03  0.70871250398E+03  0.89758206789E+02 0.  0.
          2    1    3    3  502    0  0.88241509813E+03 -0.36501241688E+02  0.68382612466E+03  0.11169632558E+04  0.00000000000E+00 0. -1.
         -3    1    3    3    0  502  0.53560614889E+03 -0.17436484369E+02  0.33855973620E+03  0.63387749028E+03  0.00000000000E+00 0.  1.
         11    1    5    5    0    0 -0.93927797732E+03  0.39778230938E+03 -0.82587756805E+03  0.13124586248E+04  0.00000000000E+00 0. -1.
        -11    1    5    5    0    0 -0.13857468865E+03  0.35109617057E+02 -0.82789419597E+02  0.16519599735E+03  0.00000000000E+00 0.  1.
          1    1    6    6  503    0 -0.33297081736E+03 -0.38399556514E+03 -0.47757821744E+03  0.69742606277E+03  0.00000000000E+00 0. -1.
         -1    1    6    6    0  503 -0.71977636946E+01  0.50413647635E+01 -0.70824144438E+01  0.11286441212E+02  0.00000000000E+00 0.  1.
<mgrwt>
<rscale>  0 0.39196949E+04</rscale>
<asrwt>0</asrwt>
<pdfrwt beam="1">  1        2 0.33139612E+00 0.39196949E+04</pdfrwt>
<pdfrwt beam="2">  1       -1 0.27432816E+00 0.39196949E+04</pdfrwt>
<totfact> 0.23970045E-01</totfact>
</mgrwt>
</event>
<event>
12    6  0.9533401E-008  0.1713109E+04  0.7818608E-02  0.8753923E-01
         -1   -1    0    0    0  501 -0.00000000000E+00  0.00000000000E+00  0.30322903884E+03  0.30322903884E+03  0.00000000000E+00 0.  1.
          2   -1    0    0  501    0  0.00000000000E+00 -0.00000000000E+00 -0.24195757624E+04  0.24195757624E+04  0.00000000000E+00 0. -1.
         24    2    1    2    0    0 -0.38671702639E+03 -0.29869410953E+01 -0.55119150236E+01  0.39477096011E+03  0.79086973762E+02 0.  0.
        254    2    1    2    0    0  0.38671702639E+03  0.29869410953E+01 -0.21108348085E+04  0.23280338411E+04  0.90252922178E+03 0.  0.
         23    2    4    4    0    0  0.28637837949E+03 -0.65691926332E+02 -0.11349557679E+03  0.32468308717E+03  0.78802637747E+02 0.  0.
         23    2    4    4    0    0  0.10033864690E+03  0.68678867427E+02 -0.19973392318E+04  0.20033507540E+04  0.96258016916E+02 0.  0.
          4    1    3    3  502    0 -0.48840184668E+02  0.24671987353E+02  0.90006418806E+01  0.55453423272E+02  0.00000000000E+00 0. -1.
         -3    1    3    3    0  502 -0.33787684173E+03 -0.27658928449E+02 -0.14512556904E+02  0.33931753684E+03  0.00000000000E+00 0.  1.
         11    1    5    5    0    0  0.60700752098E+02 -0.22068874942E+02  0.73358071479E+01  0.65003312323E+02  0.00000000000E+00 0.  1.
        -11    1    5    5    0    0  0.22567762739E+03 -0.43623051390E+02 -0.12083138394E+03  0.25967977484E+03  0.00000000000E+00 0. -1.
          3    1    6    6  503    0  0.40777412062E+02  0.25523819172E+02 -0.14828954410E+04  0.14836755547E+04  0.00000000000E+00 0. -1.
         -3    1    6    6    0  503  0.59561234842E+02  0.43155048255E+02 -0.51444379074E+03  0.51967519925E+03  0.00000000000E+00 0.  1.
<mgrwt>
<rscale>  0 0.17131090E+04</rscale>
<asrwt>0</asrwt>
<pdfrwt beam="1">  1        2 0.37224242E+00 0.17131090E+04</pdfrwt>
<pdfrwt beam="2">  1       -1 0.46650622E-01 0.17131090E+04</pdfrwt>
<totfact> 0.19217690E+01</totfact>
</mgrwt>
</event>
<event>
12    6  0.9533401E-008  0.4577281E+04  0.7818608E-02  0.7897245E-01
         -1   -1    0    0    0  501 -0.00000000000E+00  0.00000000000E+00  0.13030364612E+04  0.13030364612E+04  0.00000000000E+00 0.  1.
          2   -1    0    0  501    0  0.00000000000E+00 -0.00000000000E+00 -0.40197452290E+04  0.40197452290E+04  0.00000000000E+00 0. -1.
         24    2    1    2    0    0 -0.43791427492E+03  0.14246457026E+04  0.57473776115E+03  0.15993741304E+04  0.79308414475E+02 0.  0.
        254    2    1    2    0    0  0.43791427492E+03 -0.14246457026E+04 -0.32914465290E+04  0.37234075598E+04  0.89931046541E+03 0.  0.
         23    2    4    4    0    0  0.67896967945E+03 -0.12624283064E+04 -0.26961103650E+04  0.30547690094E+04  0.88755539653E+02 0.  0.
         23    2    4    4    0    0 -0.24105540453E+03 -0.16221739619E+03 -0.59533616401E+03  0.66863855048E+03  0.90720291710E+02 0.  0.
          4    1    3    3  502    0 -0.37615531613E+03  0.11332942749E+04  0.47836763413E+03  0.12863453380E+04  0.00000000000E+00 0. -1.
         -3    1    3    3    0  502 -0.61758958789E+02  0.29135142774E+03  0.96370127020E+02  0.31302879231E+03  0.00000000000E+00 0.  1.
         11    1    5    5    0    0  0.37004067119E+03 -0.77976723266E+03 -0.16188240850E+04  0.18345458440E+04  0.00000000000E+00 0. -1.
        -11    1    5    5    0    0  0.30892900826E+03 -0.48266107376E+03 -0.10772862800E+04  0.12202231654E+04  0.00000000000E+00 0.  1.
          2    1    6    6  503    0 -0.24003394784E+03 -0.14490299435E+03 -0.58427631843E+03  0.64806789009E+03  0.00000000000E+00 0. -1.
         -2    1    6    6    0  503 -0.10214566916E+01 -0.17314401833E+02 -0.11059845586E+02  0.20570660393E+02  0.00000000000E+00 0.  1.
<mgrwt>
<rscale>  0 0.45772807E+04</rscale>
<asrwt>0</asrwt>
<pdfrwt beam="1">  1        2 0.61842235E+00 0.45772807E+04</pdfrwt>
<pdfrwt beam="2">  1       -1 0.20046715E+00 0.45772807E+04</pdfrwt>
<totfact> 0.41887780E-02</totfact>
</mgrwt>
</event>
<event>
12    6  0.9533401E-008  0.1491305E+04  0.7818608E-02  0.8890256E-01
         -1   -1    0    0    0  501 -0.00000000000E+00  0.00000000000E+00  0.26962814756E+03  0.26962814756E+03  0.00000000000E+00 0.  1.
          2   -1    0    0  501    0  0.00000000000E+00 -0.00000000000E+00 -0.20620905430E+04  0.20620905430E+04  0.00000000000E+00 0. -1.
         24    2    1    2    0    0 -0.44526567325E+03  0.12934490465E+03 -0.59978707940E+03  0.76237081920E+03  0.80455585376E+02 0.  0.
        254    2    1    2    0    0  0.44526567325E+03 -0.12934490465E+03 -0.11926753160E+04  0.15693478713E+04  0.90850795686E+03 0.  0.
         23    2    4    4    0    0  0.51423633979E+03  0.89819618509E+01 -0.20131725841E+03  0.56187280488E+03  0.10321202222E+03 0.  0.
         23    2    4    4    0    0 -0.68970666540E+02 -0.13832686650E+03 -0.99135805761E+03  0.10074750665E+04  0.91235608781E+02 0.  0.
          2    1    3    3  502    0 -0.53671694647E+02  0.84448158139E+01 -0.11761271980E+03  0.12955584733E+03  0.00000000000E+00 0. -1.
         -1    1    3    3    0  502 -0.39159397860E+03  0.12090008883E+03 -0.48217435960E+03  0.63281497186E+03  0.00000000000E+00 0.  1.
         11    1    5    5    0    0  0.12189327054E+01 -0.39393056770E+01 -0.15576838116E+02  0.16113404725E+02  0.00000000000E+00 0.  1.
        -11    1    5    5    0    0  0.51301740708E+03  0.12921267528E+02 -0.18574042030E+03  0.54575940015E+03  0.00000000000E+00 0. -1.
          3    1    6    6  503    0 -0.28206497892E+02 -0.12191577606E+02 -0.41205370899E+03  0.41319789470E+03  0.00000000000E+00 0. -1.
         -3    1    6    6    0  503 -0.40764168648E+02 -0.12613528889E+03 -0.57930434862E+03  0.59427717176E+03  0.00000000000E+00 0.  1.
<mgrwt>
<rscale>  0 0.14913050E+04</rscale>
<asrwt>0</asrwt>
<pdfrwt beam="1">  1        2 0.31724470E+00 0.14913050E+04</pdfrwt>
<pdfrwt beam="2">  1       -1 0.41481254E-01 0.14913050E+04</pdfrwt>
<totfact> 0.38729066E+01</totfact>
</mgrwt>
</event>
<event>
12    6  0.9533401E-008  0.1349526E+04  0.7818608E-02  0.8991187E-01
          2   -1    0    0  501    0  0.00000000000E+00  0.00000000000E+00  0.14127014742E+04  0.14127014742E+04  0.00000000000E+00 0. -1.
         -1   -1    0    0    0  501 -0.00000000000E+00 -0.00000000000E+00 -0.32229379319E+03  0.32229379319E+03  0.00000000000E+00 0.  1.
         24    2    1    2    0    0  0.13603670151E+03  0.21700658867E+03 -0.36191710640E+02  0.27099394817E+03  0.80808640284E+02 0.  0.
        254    2    1    2    0    0 -0.13603670151E+03 -0.21700658867E+03  0.11265993917E+04  0.14640013192E+04  0.89915284003E+03 0.  0.
         23    2    4    4    0    0  0.35052699192E+03 -0.16998965015E+03  0.30390345440E+03  0.50263110040E+03  0.92277084173E+02 0.  0.
         23    2    4    4    0    0 -0.48656369343E+03 -0.47016938512E+02  0.82269593726E+03  0.96137021883E+03  0.91919922783E+02 0.  0.
          2    1    3    3  502    0  0.52053165104E+02  0.25979497993E+02 -0.20689134638E+02  0.61745498665E+02  0.00000000000E+00 0. -1.
         -1    1    3    3    0  502  0.83983536404E+02  0.19102709067E+03 -0.15502576002E+02  0.20924844951E+03  0.00000000000E+00 0.  1.
         11    1    5    5    0    0  0.29617642077E+03 -0.12647845665E+03  0.20529203044E+03  0.38191895734E+03  0.00000000000E+00 0.  1.
        -11    1    5    5    0    0  0.54350571155E+02 -0.43511193509E+02  0.98611423963E+02  0.12071214306E+03  0.00000000000E+00 0. -1.
          2    1    6    6  503    0 -0.97175683464E+01 -0.84514977594E+01  0.46252523382E+01  0.13684001905E+02  0.00000000000E+00 0. -1.
         -2    1    6    6    0  503 -0.47684612509E+03 -0.38565440752E+02  0.81807068492E+03  0.94768621693E+03  0.00000000000E+00 0.  1.
<mgrwt>
<rscale>  0 0.13495257E+04</rscale>
<asrwt>0</asrwt>
<pdfrwt beam="1">  1        2 0.21733869E+00 0.13495257E+04</pdfrwt>
<pdfrwt beam="2">  1       -1 0.49583661E-01 0.13495257E+04</pdfrwt>
<totfact> 0.64593687E+01</totfact>
</mgrwt>
</event>
<event>
12    6  0.9533401E-008  0.2636707E+04  0.7818608E-02  0.8355838E-01
         -1   -1    0    0    0  501 -0.00000000000E+00  0.00000000000E+00  0.11571456684E+04  0.11571456684E+04  0.00000000000E+00 0.  1.
          2   -1    0    0  501    0  0.00000000000E+00 -0.00000000000E+00 -0.15020205339E+04  0.15020205339E+04  0.00000000000E+00 0. -1.
         24    2    1    2    0    0  0.72973760981E+02  0.79581288284E+03 -0.10050089787E+04  0.12870507210E+04  0.88392290252E+02 0.  0.
        254    2    1    2    0    0 -0.72973760981E+02 -0.79581288284E+03  0.66013411321E+03  0.13721154813E+04  0.89904423274E+03 0.  0.
         23    2    4    4    0    0  0.26936927799E+03 -0.42805999304E+03  0.68989156828E+03  0.86033247229E+03  0.91795540932E+02 0.  0.
         23    2    4    4    0    0 -0.34234303897E+03 -0.36775288981E+03 -0.29757455070E+02  0.51178300905E+03  0.92711368909E+02 0.  0.
          4    1    3    3  502    0  0.91224761380E+02  0.72897902692E+03 -0.92339391900E+03  0.11799952154E+04  0.00000000000E+00 0. -1.
         -3    1    3    3    0  502 -0.18251000399E+02  0.66833855923E+02 -0.81615059686E+02  0.10705550561E+03  0.00000000000E+00 0.  1.
         11    1    5    5    0    0  0.26465929508E+03 -0.38435137561E+03  0.59860178385E+03  0.75900897099E+03  0.00000000000E+00 0. -1.
        -11    1    5    5    0    0  0.47099829086E+01 -0.43708617429E+02  0.91289784427E+02  0.10132350131E+03  0.00000000000E+00 0.  1.
          2    1    6    6  503    0 -0.31292347221E+02 -0.26288849922E+02 -0.28600790762E+02  0.49883061825E+02  0.00000000000E+00 0.  1.
         -2    1    6    6    0  503 -0.31105069175E+03 -0.34146403988E+03 -0.11566643077E+01  0.46189994722E+03  0.00000000000E+00 0. -1.
<mgrwt>
<rscale>  0 0.26367075E+04</rscale>
<asrwt>0</asrwt>
<pdfrwt beam="1">  1        2 0.23108008E+00 0.26367075E+04</pdfrwt>
<pdfrwt beam="2">  1       -1 0.17802241E+00 0.26367075E+04</pdfrwt>
<totfact> 0.27346877E+00</totfact>
</mgrwt>
</event>
<event>
12    6  0.9533401E-008  0.1560806E+04  0.7818608E-02  0.8844995E-01
          4   -1    0    0  501    0  0.00000000000E+00  0.00000000000E+00  0.32212276381E+03  0.32212276381E+03  0.00000000000E+00 0. -1.
         -3   -1    0    0    0  501 -0.00000000000E+00 -0.00000000000E+00 -0.18906733912E+04  0.18906733912E+04  0.00000000000E+00 0.  1.
         24    2    1    2    0    0 -0.17572075546E+02  0.48564263105E+03 -0.76325434439E+03  0.90837202020E+03  0.80156034856E+02 0.  0.
        254    2    1    2    0    0  0.17572075546E+02 -0.48564263105E+03 -0.80529628298E+03  0.13044241348E+04  0.90380455692E+03 0.  0.
         23    2    4    4    0    0 -0.36765060959E+03 -0.33871563073E+03 -0.70734658859E+03  0.87093357609E+03  0.91054095634E+02 0.  0.
         23    2    4    4    0    0  0.38522268514E+03 -0.14692700032E+03 -0.97949694390E+02  0.43349055870E+03  0.91300938023E+02 0.  0.
          2    1    3    3  502    0  0.22078734706E+02  0.21415207519E+03 -0.38470944242E+03  0.44085137736E+03  0.00000000000E+00 0. -1.
         -1    1    3    3    0  502 -0.39650810252E+02  0.27149055586E+03 -0.37854490197E+03  0.46752064284E+03  0.00000000000E+00 0.  1.
         11    1    5    5    0    0  0.29937945989E+01 -0.20560573514E+01 -0.21227463543E+02  0.21535909231E+02  0.00000000000E+00 0.  1.
        -11    1    5    5    0    0 -0.37064440419E+03 -0.33665957337E+03 -0.68611912505E+03  0.84939766686E+03  0.00000000000E+00 0. -1.
          2    1    6    6  503    0  0.17401100752E+02 -0.32843238332E+02 -0.91340594877E+01  0.38274112064E+02  0.00000000000E+00 0.  1.
         -2    1    6    6    0  503  0.36782158439E+03 -0.11408376199E+03 -0.88815634902E+02  0.39521644664E+03  0.00000000000E+00 0. -1.
<mgrwt>
<rscale>  0 0.15608061E+04</rscale>
<asrwt>0</asrwt>
<pdfrwt beam="1">  1        4 0.49557349E-01 0.15608061E+04</pdfrwt>
<pdfrwt beam="2">  1       -3 0.29087283E+00 0.15608061E+04</pdfrwt>
<totfact> 0.37185897E-01</totfact>
</mgrwt>
</event>
<event>
12    6  0.9533401E-008  0.3637573E+04  0.7818608E-02  0.8081939E-01
          2   -1    0    0  501    0  0.00000000000E+00  0.00000000000E+00  0.30977972968E+04  0.30977972968E+04  0.00000000000E+00 0. -1.
         -1   -1    0    0    0  501 -0.00000000000E+00 -0.00000000000E+00 -0.10678503824E+04  0.10678503824E+04  0.00000000000E+00 0.  1.
         24    2    1    2    0    0  0.14719703745E+04 -0.46130709820E+03  0.17908183088E+04  0.23648885450E+04  0.78527657563E+02 0.  0.
        254    2    1    2    0    0 -0.14719703745E+04  0.46130709820E+03  0.23912860562E+03  0.18007591342E+04  0.89780284428E+03 0.  0.
         23    2    4    4    0    0 -0.14691526399E+04  0.47769056912E+03  0.43593513096E+01  0.15474684851E+04  0.89676914651E+02 0.  0.
         23    2    4    4    0    0 -0.28177345325E+01 -0.16383470923E+02  0.23476925431E+03  0.25329064914E+03  0.93611924592E+02 0.  0.
          4    1    3    3  502    0  0.72612643934E+03 -0.23504203876E+03  0.82692284485E+03  0.11253025181E+04  0.00000000000E+00 0. -1.
         -3    1    3    3    0  502  0.74584393514E+03 -0.22626505943E+03  0.96389546397E+03  0.12395860269E+04  0.00000000000E+00 0.  1.
         11    1    5    5    0    0 -0.18971232802E+02  0.51438658086E+01  0.10375756668E+02  0.22226636181E+02  0.00000000000E+00 0.  1.
        -11    1    5    5    0    0 -0.14501814071E+04  0.47254670331E+03 -0.60164053584E+01  0.15252418489E+04  0.00000000000E+00 0. -1.
          4    1    6    6  503    0 -0.24042383859E+02  0.30527111806E+02  0.14166417600E+03  0.14689683298E+03  0.00000000000E+00 0. -1.
         -4    1    6    6    0  503  0.21224649327E+02 -0.46910582729E+02  0.93105078313E+02  0.10639381617E+03  0.00000000000E+00 0.  1.
<mgrwt>
<rscale>  0 0.36375728E+04</rscale>
<asrwt>0</asrwt>
<pdfrwt beam="1">  1        2 0.47658420E+00 0.36375728E+04</pdfrwt>
<pdfrwt beam="2">  1       -1 0.16428468E+00 0.36375728E+04</pdfrwt>
<totfact> 0.37757396E-01</totfact>
</mgrwt>
</event>
<event>
12    6  0.9533401E-008  0.2421081E+04  0.7818608E-02  0.8431653E-01
         -1   -1    0    0    0  501 -0.00000000000E+00  0.00000000000E+00  0.14567282995E+04  0.14567282995E+04  0.00000000000E+00 0.  1.
          2   -1    0    0  501    0  0.00000000000E+00 -0.00000000000E+00 -0.10059587563E+04  0.10059587563E+04  0.00000000000E+00 0. -1.
         24    2    1    2    0    0 -0.14246216223E+03 -0.51295169368E+03  0.11099063375E+04  0.12340980236E+04  0.87698040000E+02 0.  0.
        254    2    1    2    0    0  0.14246216223E+03  0.51295169368E+03 -0.65913679430E+03  0.12285890322E+04  0.88969364887E+03 0.  0.
         23    2    4    4    0    0 -0.12564005638E+03  0.51792708292E+03 -0.34337575404E+02  0.54132520849E+03  0.88430906781E+02 0.  0.
         23    2    4    4    0    0  0.26810221861E+03 -0.49753892440E+01 -0.62479921890E+03  0.68726382375E+03  0.10026936415E+03 0.  0.
          4    1    3    3  502    0 -0.36243350347E+02 -0.14117397497E+03  0.22094419349E+03  0.26468851183E+03  0.00000000000E+00 0. -1.
         -3    1    3    3    0  502 -0.10621881188E+03 -0.37177771870E+03  0.88896214398E+03  0.96940951179E+03  0.00000000000E+00 0.  1.
         11    1    5    5    0    0 -0.91631705804E+02  0.27881477651E+03 -0.56202079438E+02  0.29881887966E+03  0.00000000000E+00 0.  1.
        -11    1    5    5    0    0 -0.34008350574E+02  0.23911230642E+03  0.21864504034E+02  0.24250632884E+03  0.00000000000E+00 0. -1.
          3    1    6    6  503    0  0.16148330313E+03  0.21917044121E+02 -0.46949845258E+03  0.49697687169E+03  0.00000000000E+00 0. -1.
         -3    1    6    6    0  503  0.10661891548E+03 -0.26892433365E+02 -0.15530076631E+03  0.19028695207E+03  0.00000000000E+00 0.  1.
<mgrwt>
<rscale>  0 0.24210812E+04</rscale>
<asrwt>0</asrwt>
<pdfrwt beam="1">  1        2 0.15476289E+00 0.24210812E+04</pdfrwt>
<pdfrwt beam="2">  1       -1 0.22411205E+00 0.24210812E+04</pdfrwt>
<totfact> 0.26396189E+00</totfact>
</mgrwt>
</event>
<event>
12    6  0.1043831E-007  0.2103850E+04  0.7818608E-02  0.8559549E-01
         -1   -1    0    0    0  501 -0.00000000000E+00  0.00000000000E+00  0.50306942455E+03  0.50306942455E+03  0.00000000000E+00 0.  1.
          2   -1    0    0  501    0  0.00000000000E+00 -0.00000000000E+00 -0.21995898270E+04  0.21995898270E+04  0.00000000000E+00 0. -1.
         24    2    1    2    0    0  0.82247711449E+03  0.21625221813E+03 -0.83269932842E+03  0.11928924651E+04  0.79816264093E+02 0.  0.
        254    2    1    2    0    0 -0.82247711449E+03 -0.21625221813E+03 -0.86382107401E+03  0.15097667865E+04  0.89998626426E+03 0.  0.
         23    2    4    4    0    0 -0.93869936366E+02  0.26267117263E+03 -0.45727542508E+03  0.54261225057E+03  0.86715224749E+02 0.  0.
         23    2    4    4    0    0 -0.72860717812E+03 -0.47892339075E+03 -0.40654564893E+03  0.96715453588E+03  0.99360441779E+02 0.  0.
          4    1    3    3  502    0  0.57348439103E+03  0.17169687356E+03 -0.54193177999E+03  0.80749874136E+03  0.00000000000E+00 0. -1.
         -3    1    3    3    0  502  0.24899272346E+03  0.44555344561E+02 -0.29076754843E+03  0.38539372372E+03  0.00000000000E+00 0.  1.
         11    1    5    5    0    0 -0.28208317547E+02  0.10144877550E+03 -0.10015408465E+03  0.14532172550E+03  0.00000000000E+00 0.  1.
        -11    1    5    5    0    0 -0.65661618819E+02  0.16122239713E+03 -0.35712134044E+03  0.39729052508E+03  0.00000000000E+00 0. -1.
          3    1    6    6  503    0 -0.71225411807E+03 -0.47029891603E+03 -0.37876085087E+03  0.93378090646E+03  0.00000000000E+00 0. -1.
         -3    1    6    6    0  503 -0.16353060053E+02 -0.86244747247E+01 -0.27784798057E+02  0.33373629417E+02  0.00000000000E+00 0.  1.
<mgrwt>
<rscale>  0 0.21038502E+04</rscale>
<asrwt>0</asrwt>
<pdfrwt beam="1">  1        2 0.33839843E+00 0.21038502E+04</pdfrwt>
<pdfrwt beam="2">  1       -1 0.77395296E-01 0.21038502E+04</pdfrwt>
<totfact> 0.90662249E+00</totfact>
</mgrwt>
</event>
<event>
12    6  0.9533401E-008  0.1654099E+04  0.7818608E-02  0.8787985E-01
         -1   -1    0    0    0  501 -0.00000000000E+00  0.00000000000E+00  0.17280034999E+03  0.17280034999E+03  0.00000000000E+00 0.  1.
          2   -1    0    0  501    0  0.00000000000E+00 -0.00000000000E+00 -0.39583871536E+04  0.39583871536E+04  0.00000000000E+00 0. -1.
         24    2    1    2    0    0 -0.20991688918E+03 -0.16621897383E+03 -0.26333203898E+04  0.26481253672E+04  0.80609163979E+02 0.  0.
        254    2    1    2    0    0  0.20991688918E+03  0.16621897383E+03 -0.11522664138E+04  0.14830621364E+04  0.89446160590E+03 0.  0.
         23    2    4    4    0    0 -0.28823785653E+03  0.27045938261E+03 -0.39525161945E+03  0.56635301356E+03  0.91118350025E+02 0.  0.
         23    2    4    4    0    0  0.49815474571E+03 -0.10424040879E+03 -0.75701479434E+03  0.91670912283E+03  0.90884561634E+02 0.  0.
          2    1    3    3  502    0 -0.17654536767E+03 -0.94214195224E+02 -0.19245663436E+04  0.19349419093E+04  0.00000000000E+00 0. -1.
         -1    1    3    3    0  502 -0.33371521511E+02 -0.72004778603E+02 -0.70875404628E+03  0.71318345796E+03  0.00000000000E+00 0.  1.
         11    1    5    5    0    0 -0.23704646930E+03  0.26254093357E+03 -0.34896591031E+03  0.49688628173E+03  0.00000000000E+00 0. -1.
        -11    1    5    5    0    0 -0.51191387227E+02  0.79184490469E+01 -0.46285709139E+02  0.69466731836E+02  0.00000000000E+00 0.  1.
          4    1    6    6  503    0  0.21916056107E+03 -0.82131122677E+02 -0.29538173690E+03  0.37686502004E+03  0.00000000000E+00 0. -1.
         -4    1    6    6    0  503  0.27899418464E+03 -0.22109286111E+02 -0.46163305744E+03  0.53984410279E+03  0.00000000000E+00 0.  1.
<mgrwt>
<rscale>  0 0.16540988E+04</rscale>
<asrwt>0</asrwt>
<pdfrwt beam="1">  1        2 0.60898271E+00 0.16540988E+04</pdfrwt>
<pdfrwt beam="2">  1       -1 0.26584666E-01 0.16540988E+04</pdfrwt>
<totfact> 0.51533926E+00</totfact>
</mgrwt>
</event>
<event>
12    6  0.9533401E-008  0.2827788E+04  0.7818608E-02  0.8294693E-01
          2   -1    0    0  501    0  0.00000000000E+00  0.00000000000E+00  0.32106414483E+04  0.32106414483E+04  0.00000000000E+00 0. -1.
         -1   -1    0    0    0  501 -0.00000000000E+00 -0.00000000000E+00 -0.62264706729E+03  0.62264706729E+03  0.00000000000E+00 0.  1.
         24    2    1    2    0    0 -0.34072393204E+03  0.80038681322E+03 -0.88922237231E+02  0.87806692206E+03  0.79890592044E+02 0.  0.
        254    2    1    2    0    0  0.34072393204E+03 -0.80038681322E+03  0.26769166183E+04  0.29552215935E+04  0.90041114897E+03 0.  0.
         23    2    4    4    0    0  0.60127295424E+03 -0.73562628657E+03  0.22370968550E+04  0.24320879803E+04  0.88172594722E+02 0.  0.
         23    2    4    4    0    0 -0.26054902221E+03 -0.64760526647E+02  0.43981976330E+03  0.52313361324E+03  0.90264247224E+02 0.  0.
          4    1    3    3  502    0  0.23212151953E+01  0.31037584193E+02 -0.12063639237E+01  0.31147632116E+02  0.00000000000E+00 0. -1.
         -3    1    3    3    0  502 -0.34304514723E+03  0.76934922903E+03 -0.87715873307E+02  0.84691928994E+03  0.00000000000E+00 0.  1.
         11    1    5    5    0    0  0.72729532888E+02 -0.97175594240E+02  0.36687369697E+03  0.38643109425E+03  0.00000000000E+00 0. -1.
        -11    1    5    5    0    0  0.52854342136E+03 -0.63845069233E+03  0.18702231580E+04  0.20456568861E+04  0.00000000000E+00 0.  1.
          3    1    6    6  503    0 -0.34939770347E+02 -0.44521792732E+02  0.94489757790E+02  0.11014214410E+03  0.00000000000E+00 0. -1.
         -3    1    6    6    0  503 -0.22560925186E+03 -0.20238733915E+02  0.34533000551E+03  0.41299146914E+03  0.00000000000E+00 0.  1.
<mgrwt>
<rscale>  0 0.28277882E+04</rscale>
<asrwt>0</asrwt>
<pdfrwt beam="1">  1        2 0.49394483E+00 0.28277882E+04</pdfrwt>
<pdfrwt beam="2">  1       -1 0.95791859E-01 0.28277882E+04</pdfrwt>
<totfact> 0.13226700E+00</totfact>
</mgrwt>
</event>
<event>
12    6  0.9533401E-008  0.1709480E+04  0.7818608E-02  0.8755976E-01
         -1   -1    0    0    0  501 -0.00000000000E+00  0.00000000000E+00  0.80874546911E+03  0.80874546911E+03  0.00000000000E+00 0.  1.
          2   -1    0    0  501    0  0.00000000000E+00 -0.00000000000E+00 -0.90335034822E+03  0.90335034822E+03  0.00000000000E+00 0. -1.
         24    2    1    2    0    0 -0.15125069822E+03  0.22885422542E+03  0.51778380874E+03  0.59126586485E+03  0.79020377986E+02 0.  0.
        254    2    1    2    0    0  0.15125069822E+03 -0.22885422542E+03 -0.61238868786E+03  0.11208299525E+04  0.89776881610E+03 0.  0.
         23    2    4    4    0    0  0.48198171975E+03 -0.16356886784E+03 -0.14430467395E+03  0.53666457218E+03  0.90132521359E+02 0.  0.
         23    2    4    4    0    0 -0.33073102153E+03 -0.65285357577E+02 -0.46808401391E+03  0.58416538030E+03  0.92202825054E+02 0.  0.
          2    1    3    3  502    0 -0.25635311627E+02  0.23291071577E+02  0.13177896500E+03  0.13625468372E+03  0.00000000000E+00 0. -1.
         -1    1    3    3    0  502 -0.12561538659E+03  0.20556315384E+03  0.38600484374E+03  0.45501118113E+03  0.00000000000E+00 0.  1.
         11    1    5    5    0    0  0.38881028848E+03 -0.11410921565E+03 -0.79715411573E+02  0.41297566558E+03  0.00000000000E+00 0.  1.
        -11    1    5    5    0    0  0.93171431275E+02 -0.49459652191E+02 -0.64589262374E+02  0.12368890660E+03  0.00000000000E+00 0. -1.
          3    1    6    6  503    0 -0.67034999788E+02  0.33957810951E+01 -0.44603290250E+02  0.80589552839E+02  0.00000000000E+00 0. -1.
         -3    1    6    6    0  503 -0.26369602175E+03 -0.68681138673E+02 -0.42348072366E+03  0.50357582746E+03  0.00000000000E+00 0.  1.
<mgrwt>
<rscale>  0 0.17094800E+04</rscale>
<asrwt>0</asrwt>
<pdfrwt beam="1">  1        2 0.13897698E+00 0.17094800E+04</pdfrwt>
<pdfrwt beam="2">  1       -1 0.12442238E+00 0.17094800E+04</pdfrwt>
<totfact> 0.17921908E+01</totfact>
</mgrwt>
</event>
<event>
12    6  0.9533401E-008  0.1433932E+04  0.7818608E-02  0.8929616E-01
         -1   -1    0    0    0  501 -0.00000000000E+00  0.00000000000E+00  0.17641064425E+03  0.17641064425E+03  0.00000000000E+00 0.  1.
          2   -1    0    0  501    0  0.00000000000E+00 -0.00000000000E+00 -0.29138856758E+04  0.29138856758E+04  0.00000000000E+00 0. -1.
         24    2    1    2    0    0  0.25995504529E+03  0.15327900990E+03 -0.18235794850E+03  0.36205215657E+03  0.82196485651E+02 0.  0.
        254    2    1    2    0    0 -0.25995504529E+03 -0.15327900990E+03 -0.25551170831E+04  0.27282441635E+04  0.90753612987E+03 0.  0.
         23    2    4    4    0    0  0.29241325900E+03  0.11826808251E+03 -0.76152395918E+03  0.82946546821E+03  0.92743566698E+02 0.  0.
         23    2    4    4    0    0 -0.55236830429E+03 -0.27154709241E+03 -0.17935931239E+04  0.18987786953E+04  0.97650768785E+02 0.  0.
          4    1    3    3  502    0  0.55867404491E+02  0.28631527325E+02 -0.25050791205E+01  0.62826798923E+02  0.00000000000E+00 0. -1.
         -3    1    3    3    0  502  0.20408764080E+03  0.12464748257E+03 -0.17985286938E+03  0.29922535765E+03  0.00000000000E+00 0.  1.
         11    1    5    5    0    0  0.11794895768E+02 -0.13411763019E+02 -0.29051457870E+02  0.34102524215E+02  0.00000000000E+00 0.  1.
        -11    1    5    5    0    0  0.28061836324E+03  0.13167984553E+03 -0.73247250131E+03  0.79536294399E+03  0.00000000000E+00 0. -1.
          2    1    6    6  503    0 -0.51134089853E+03 -0.22000053549E+03 -0.15752660806E+04  0.16707282767E+04  0.00000000000E+00 0. -1.
         -2    1    6    6    0  503 -0.41027405763E+02 -0.51546556917E+02 -0.21832704333E+03  0.22805041855E+03  0.00000000000E+00 0.  1.
<mgrwt>
<rscale>  0 0.14339323E+04</rscale>
<asrwt>0</asrwt>
<pdfrwt beam="1">  1        2 0.44829009E+00 0.14339323E+04</pdfrwt>
<pdfrwt beam="2">  1       -1 0.27140100E-01 0.14339323E+04</pdfrwt>
<totfact> 0.26672614E+01</totfact>
</mgrwt>
</event>
<event>
12    6  0.9533401E-008  0.3569703E+04  0.7818608E-02  0.8097467E-01
         -1   -1    0    0    0  501 -0.00000000000E+00  0.00000000000E+00  0.23713774428E+04  0.23713774428E+04  0.00000000000E+00 0.  1.
          2   -1    0    0  501    0  0.00000000000E+00 -0.00000000000E+00 -0.13433940530E+04  0.13433940530E+04  0.00000000000E+00 0. -1.
         24    2    1    2    0    0  0.14751175372E+02 -0.68762803640E+03  0.20660567212E+04  0.21790514975E+04  0.81394963726E+02 0.  0.
        254    2    1    2    0    0 -0.14751175372E+02  0.68762803640E+03 -0.10380733313E+04  0.15357199983E+04  0.89877124916E+03 0.  0.
         23    2    4    4    0    0  0.28060118285E+03  0.71144204268E+03 -0.51271118035E+03  0.92523253292E+03  0.91080632433E+02 0.  0.
         23    2    4    4    0    0 -0.29535235822E+03 -0.23814006289E+02 -0.52536215096E+03  0.61048746536E+03  0.94283791239E+02 0.  0.
          4    1    3    3  502    0 -0.16927535830E+02 -0.35827228936E+03  0.11761625379E+04  0.12296356738E+04  0.00000000000E+00 0. -1.
         -3    1    3    3    0  502  0.31678711202E+02 -0.32935574704E+03  0.88989418328E+03  0.94941582370E+03  0.00000000000E+00 0.  1.
         11    1    5    5    0    0  0.40519526094E+02  0.60204155511E+02 -0.24299353733E+02  0.76529934846E+02  0.00000000000E+00 0. -1.
        -11    1    5    5    0    0  0.24008165676E+03  0.65123788717E+03 -0.48841182661E+03  0.84870259807E+03  0.00000000000E+00 0.  1.
          3    1    6    6  503    0 -0.21223561509E+03  0.54741220918E+01 -0.43620345806E+03  0.48512614766E+03  0.00000000000E+00 0. -1.
         -3    1    6    6    0  503 -0.83116743136E+02 -0.29288128381E+02 -0.89158692904E+02  0.12536131769E+03  0.00000000000E+00 0.  1.
<mgrwt>
<rscale>  0 0.35697027E+04</rscale>
<asrwt>0</asrwt>
<pdfrwt beam="1">  1        2 0.20667601E+00 0.35697027E+04</pdfrwt>
<pdfrwt beam="2">  1       -1 0.36482730E+00 0.35697027E+04</pdfrwt>
<totfact> 0.17954278E-01</totfact>
</mgrwt>
</event>
<event>
12    6  0.9533401E-008  0.1421755E+04  0.7818608E-02  0.8938220E-01
          2   -1    0    0  501    0  0.00000000000E+00  0.00000000000E+00  0.53133910400E+03  0.53133910400E+03  0.00000000000E+00 0. -1.
         -1   -1    0    0    0  501 -0.00000000000E+00 -0.00000000000E+00 -0.95108107059E+03  0.95108107059E+03  0.00000000000E+00 0.  1.
         24    2    1    2    0    0  0.19143664536E+03 -0.25743405730E+03 -0.40795514447E+03  0.52544823141E+03  0.82147190745E+02 0.  0.
        254    2    1    2    0    0 -0.19143664536E+03  0.25743405730E+03 -0.11786822124E+02  0.95697194319E+03  0.90151876732E+03 0.  0.
         23    2    4    4    0    0  0.33528302559E+03  0.52973503386E+02 -0.12499871616E+03  0.37351254016E+03  0.93091564067E+02 0.  0.
         23    2    4    4    0    0 -0.52671967095E+03  0.20446055392E+03  0.11321189404E+03  0.58345940303E+03  0.91488863550E+02 0.  0.
          2    1    3    3  502    0  0.78717545991E+02 -0.56321029755E+02 -0.15896077729E+03  0.18611028762E+03  0.00000000000E+00 0. -1.
         -1    1    3    3    0  502  0.11271909937E+03 -0.20111302755E+03 -0.24899436717E+03  0.33933794379E+03  0.00000000000E+00 0.  1.
         11    1    5    5    0    0  0.29418897475E+03  0.30075735178E+02 -0.75463952946E+02  0.30519913320E+03  0.00000000000E+00 0. -1.
        -11    1    5    5    0    0  0.41094050846E+02  0.22897768209E+02 -0.49534763214E+02  0.68313406961E+02  0.00000000000E+00 0.  1.
          3    1    6    6  503    0 -0.34612268476E+03  0.14567042371E+03  0.11751623371E+03  0.39348551490E+03  0.00000000000E+00 0. -1.
         -3    1    6    6    0  503 -0.18059698619E+03  0.58790130213E+02 -0.43043396694E+01  0.18997388813E+03  0.00000000000E+00 0.  1.
<mgrwt>
<rscale>  0 0.14217546E+04</rscale>
<asrwt>0</asrwt>
<pdfrwt beam="1">  1        2 0.81744477E-01 0.14217546E+04</pdfrwt>
<pdfrwt beam="2">  1       -1 0.14632017E+00 0.14217546E+04</pdfrwt>
<totfact> 0.23762939E+01</totfact>
</mgrwt>
</event>
<event>
12    6  0.9533401E-008  0.1077348E+04  0.7818608E-02  0.9227556E-01
         -1   -1    0    0    0  501 -0.00000000000E+00  0.00000000000E+00  0.22556333793E+03  0.22556333793E+03  0.00000000000E+00 0.  1.
          2   -1    0    0  501    0  0.00000000000E+00 -0.00000000000E+00 -0.12864212560E+04  0.12864212560E+04  0.00000000000E+00 0. -1.
         24    2    1    2    0    0 -0.93552101526E+02 -0.52598772223E+02 -0.31145508730E+03  0.33848526898E+03  0.77777756260E+02 0.  0.
        254    2    1    2    0    0  0.93552101526E+02  0.52598772223E+02 -0.74940283080E+03  0.11734993250E+04  0.89664788874E+03 0.  0.
         23    2    4    4    0    0  0.10833525092E+03 -0.87843307932E+01 -0.94119893849E+03  0.95186847658E+03  0.91566717950E+02 0.  0.
         23    2    4    4    0    0 -0.14783149397E+02  0.61383103016E+02  0.19179610769E+03  0.22163084840E+03  0.91367714190E+02 0.  0.
          4    1    3    3  502    0 -0.94619270752E+02 -0.25136788931E+02 -0.18750464870E+03  0.21152460339E+03  0.00000000000E+00 0. -1.
         -3    1    3    3    0  502  0.10671692256E+01 -0.27461983292E+02 -0.12395043861E+03  0.12696066559E+03  0.00000000000E+00 0.  1.
         11    1    5    5    0    0  0.21862318231E+02  0.31859207716E+02 -0.14900882692E+03  0.15393700196E+03  0.00000000000E+00 0.  1.
        -11    1    5    5    0    0  0.86472932693E+02 -0.40643538509E+02 -0.79219011157E+03  0.79793147462E+03  0.00000000000E+00 0. -1.
          3    1    6    6  503    0  0.11780939823E+02  0.18806514656E+02  0.16148643357E+03  0.16300412192E+03  0.00000000000E+00 0. -1.
         -3    1    6    6    0  503 -0.26564089221E+02  0.42576588360E+02  0.30309674122E+02  0.58626726481E+02  0.00000000000E+00 0.  1.
<mgrwt>
<rscale>  0 0.10773476E+04</rscale>
<asrwt>0</asrwt>
<pdfrwt beam="1">  1        2 0.19791096E+00 0.10773476E+04</pdfrwt>
<pdfrwt beam="2">  1       -1 0.34702052E-01 0.10773476E+04</pdfrwt>
<totfact> 0.15016068E+02</totfact>
</mgrwt>
</event>
<event>
12    6  0.9533401E-008  0.1738323E+04  0.7818608E-02  0.8739804E-01
          2   -1    0    0  501    0  0.00000000000E+00  0.00000000000E+00  0.45044880979E+04  0.45044880979E+04  0.00000000000E+00 0. -1.
         -1   -1    0    0    0  501 -0.00000000000E+00 -0.00000000000E+00 -0.16770872019E+03  0.16770872019E+03  0.00000000000E+00 0.  1.
         24    2    1    2    0    0 -0.79529964410E+02  0.57106181164E+03  0.89158599958E+03  0.10647386942E+04  0.79412116404E+02 0.  0.
        254    2    1    2    0    0  0.79529964410E+02 -0.57106181164E+03  0.34451933782E+04  0.36074581240E+04  0.90108828386E+03 0.  0.
         23    2    4    4    0    0  0.44199622422E+03 -0.43898862937E+03  0.15762985474E+04  0.16974384714E+04  0.92241935265E+02 0.  0.
         23    2    4    4    0    0 -0.36246625981E+03 -0.13207318227E+03  0.18688948308E+04  0.19100196526E+04  0.81129956791E+02 0.  0.
          4    1    3    3  502    0 -0.91386076040E+02  0.50054462369E+03  0.80653453694E+03  0.95362167262E+03  0.00000000000E+00 0. -1.
         -3    1    3    3    0  502  0.11856111630E+02  0.70517187946E+02  0.85051462635E+02  0.11111702154E+03  0.00000000000E+00 0.  1.
         11    1    5    5    0    0  0.32917398872E+03 -0.35491550190E+03  0.11252129816E+04  0.12249182758E+04  0.00000000000E+00 0.  1.
        -11    1    5    5    0    0  0.11282223550E+03 -0.84073127472E+02  0.45108556580E+03  0.47252019561E+03  0.00000000000E+00 0. -1.
          3    1    6    6  503    0 -0.23568831269E+03 -0.12450527622E+03  0.13163601134E+04  0.13430765029E+04  0.00000000000E+00 0. -1.
         -3    1    6    6    0  503 -0.12677794712E+03 -0.75679060541E+01  0.55253471737E+03  0.56694314969E+03  0.00000000000E+00 0.  1.
<mgrwt>
<rscale>  0 0.17383233E+04</rscale>
<asrwt>0</asrwt>
<pdfrwt beam="1">  1        2 0.69299808E+00 0.17383233E+04</pdfrwt>
<pdfrwt beam="2">  1       -1 0.25801345E-01 0.17383233E+04</pdfrwt>
<totfact> 0.17900541E+00</totfact>
</mgrwt>
</event>
<event>
12    6  0.9533401E-008  0.1873714E+04  0.7818608E-02  0.8668052E-01
          2   -1    0    0  501    0  0.00000000000E+00  0.00000000000E+00  0.20765159334E+04  0.20765159334E+04  0.00000000000E+00 0. -1.
         -1   -1    0    0    0  501 -0.00000000000E+00 -0.00000000000E+00 -0.42267975139E+03  0.42267975139E+03  0.00000000000E+00 0.  1.
         24    2    1    2    0    0 -0.14129549593E+03  0.51001075600E+03  0.12848215206E+04  0.13916631261E+04  0.76710678677E+02 0.  0.
        254    2    1    2    0    0  0.14129549593E+03 -0.51001075600E+03  0.36901466141E+03  0.11075325587E+04  0.90021173061E+03 0.  0.
         23    2    4    4    0    0  0.40062193736E+03 -0.28233814249E+03 -0.11071301440E+03  0.50939794631E+03  0.83762358804E+02 0.  0.
         23    2    4    4    0    0 -0.25932644142E+03 -0.22767261351E+03  0.47972767581E+03  0.59813461243E+03  0.92419421592E+02 0.  0.
          2    1    3    3  502    0 -0.75193365895E+02  0.38941387585E+03  0.98259921788E+03  0.10596218344E+04  0.00000000000E+00 0. -1.
         -1    1    3    3    0  502 -0.66102130040E+02  0.12059688014E+03  0.30222230274E+03  0.33204129166E+03  0.00000000000E+00 0.  1.
         11    1    5    5    0    0  0.39100948559E+03 -0.26179162930E+03 -0.90849110475E+02  0.47924611200E+03  0.00000000000E+00 0. -1.
        -11    1    5    5    0    0  0.96124517666E+01 -0.20546513188E+02 -0.19863903924E+02  0.30151834310E+02  0.00000000000E+00 0.  1.
          1    1    6    6  503    0 -0.23942230128E+03 -0.21296775942E+03  0.47494161617E+03  0.57292917858E+03  0.00000000000E+00 0. -1.
         -1    1    6    6    0  503 -0.19904140146E+02 -0.14704854090E+02  0.47860596434E+01  0.25205433852E+02  0.00000000000E+00 0.  1.
<mgrwt>
<rscale>  0 0.18737142E+04</rscale>
<asrwt>0</asrwt>
<pdfrwt beam="1">  1        2 0.31946398E+00 0.18737142E+04</pdfrwt>
<pdfrwt beam="2">  1       -1 0.65027655E-01 0.18737142E+04</pdfrwt>
<totfact> 0.15518352E+01</totfact>
</mgrwt>
</event>
<event>
12    6  0.9533401E-008  0.3573560E+04  0.7818608E-02  0.8096575E-01
         -1   -1    0    0    0  501 -0.00000000000E+00  0.00000000000E+00  0.97594859614E+03  0.97594859614E+03  0.00000000000E+00 0.  1.
          2   -1    0    0  501    0  0.00000000000E+00 -0.00000000000E+00 -0.32712610633E+04  0.32712610633E+04  0.00000000000E+00 0. -1.
         24    2    1    2    0    0  0.70581252951E+02 -0.66366178116E+03 -0.28980330204E+04  0.29750236321E+04  0.82106949839E+02 0.  0.
        254    2    1    2    0    0 -0.70581252951E+02  0.66366178116E+03  0.60272055326E+03  0.12721860273E+04  0.89986473968E+03 0.  0.
         23    2    4    4    0    0  0.27029418305E+03  0.24366851023E+03 -0.91758697634E+02  0.38615590191E+03  0.90903430744E+02 0.  0.
         23    2    4    4    0    0 -0.34087543600E+03  0.41999327093E+03  0.69447925090E+03  0.88603012540E+03  0.10078463521E+03 0.  0.
          2    1    3    3  502    0  0.80943516738E+02 -0.60154324316E+03 -0.26921416971E+04  0.27597161165E+04  0.00000000000E+00 0. -1.
         -1    1    3    3    0  502 -0.10362263787E+02 -0.62118537996E+02 -0.20589132325E+03  0.21530751557E+03  0.00000000000E+00 0.  1.
         11    1    5    5    0    0  0.10891383258E+03  0.13622889175E+03 -0.80110622351E+02  0.19193291976E+03  0.00000000000E+00 0. -1.
        -11    1    5    5    0    0  0.16138035047E+03  0.10743961848E+03 -0.11648075283E+02  0.19422298215E+03  0.00000000000E+00 0.  1.
          3    1    6    6  503    0 -0.24950191741E+03  0.25435621825E+03  0.50719268297E+03  0.61983280827E+03  0.00000000000E+00 0. -1.
         -3    1    6    6    0  503 -0.91373518588E+02  0.16563705268E+03  0.18728656793E+03  0.26619731713E+03  0.00000000000E+00 0.  1.
<mgrwt>
<rscale>  0 0.35735599E+04</rscale>
<asrwt>0</asrwt>
<pdfrwt beam="1">  1        2 0.50327092E+00 0.35735599E+04</pdfrwt>
<pdfrwt beam="2">  1       -1 0.15014594E+00 0.35735599E+04</pdfrwt>
<totfact> 0.37516257E-01</totfact>
</mgrwt>
</event>
<event>
12    6  0.9533401E-008  0.1363650E+04  0.7818608E-02  0.8980559E-01
         -3   -1    0    0    0  501 -0.00000000000E+00  0.00000000000E+00  0.32400084376E+03  0.32400084376E+03  0.00000000000E+00 0.  1.
          2   -1    0    0  501    0  0.00000000000E+00 -0.00000000000E+00 -0.14348268936E+04  0.14348268936E+04  0.00000000000E+00 0. -1.
         24    2    1    2    0    0 -0.84602456015E+02 -0.23930086414E+03  0.43254431166E+02  0.27149967705E+03  0.86131583537E+02 0.  0.
        254    2    1    2    0    0  0.84602456015E+02  0.23930086414E+03 -0.11540804810E+04  0.14873280603E+04  0.90322783572E+03 0.  0.
         23    2    4    4    0    0  0.78360141520E+02 -0.33501824852E+03 -0.39899718575E+03  0.53502943845E+03  0.93167629339E+02 0.  0.
         23    2    4    4    0    0  0.62423144952E+01  0.57431911266E+03 -0.75508329528E+03  0.95229862188E+03  0.82707150649E+02 0.  0.
          4    1    3    3  502    0 -0.62859253349E+02 -0.19300418167E+03  0.68802074325E+02  0.21432597907E+03  0.00000000000E+00 0. -1.
         -3    1    3    3    0  502 -0.21743202666E+02 -0.46296682469E+02 -0.25547643159E+02  0.57173697980E+02  0.00000000000E+00 0.  1.
         11    1    5    5    0    0  0.38815813189E+02 -0.22724019833E+03 -0.32494610478E+03  0.39841529351E+03  0.00000000000E+00 0. -1.
        -11    1    5    5    0    0  0.39544328331E+02 -0.10777805019E+03 -0.74051080964E+02  0.13661414494E+03  0.00000000000E+00 0.  1.
          3    1    6    6  503    0  0.81126511602E+01  0.19043087469E+03 -0.18982115695E+03  0.26900149585E+03  0.00000000000E+00 0. -1.
         -3    1    6    6    0  503 -0.18703366650E+01  0.38388823796E+03 -0.56526213833E+03  0.68329712603E+03  0.00000000000E+00 0.  1.
<mgrwt>
<rscale>  0 0.13636497E+04</rscale>
<asrwt>0</asrwt>
<pdfrwt beam="1">  1        2 0.22074259E+00 0.13636497E+04</pdfrwt>
<pdfrwt beam="2">  1       -3 0.49846285E-01 0.13636497E+04</pdfrwt>
<totfact> 0.34468306E+01</totfact>
</mgrwt>
</event>
<event>
12    6  0.9533401E-008  0.1495392E+04  0.7818608E-02  0.8887523E-01
          2   -1    0    0  501    0  0.00000000000E+00  0.00000000000E+00  0.10670873259E+04  0.10670873259E+04  0.00000000000E+00 0. -1.
         -1   -1    0    0    0  501 -0.00000000000E+00 -0.00000000000E+00 -0.52390237454E+03  0.52390237454E+03  0.00000000000E+00 0.  1.
         24    2    1    2    0    0 -0.44225117104E+03 -0.29186499123E+02 -0.99955639195E+00  0.45030798518E+03  0.79613644441E+02 0.  0.
        254    2    1    2    0    0  0.44225117104E+03  0.29186499123E+02  0.54418450776E+03  0.11406817153E+04  0.89921079123E+03 0.  0.
         23    2    4    4    0    0  0.60248288389E+03 -0.15494393844E+03  0.11740590887E+03  0.64035474084E+03  0.96316131757E+02 0.  0.
         23    2    4    4    0    0 -0.16023171285E+03  0.18413043756E+03  0.42677859889E+03  0.50032697444E+03  0.92784099078E+02 0.  0.
          2    1    3    3  502    0 -0.40456433740E+03 -0.46660501359E+02 -0.11688775542E+02  0.40741395774E+03  0.00000000000E+00 0. -1.
         -1    1    3    3    0  502 -0.37686833640E+02  0.17474002236E+02  0.10689219150E+02  0.42894027440E+02  0.00000000000E+00 0.  1.
         11    1    5    5    0    0  0.32477446667E+03 -0.55344679766E+02  0.21614887341E+02  0.33016464246E+03  0.00000000000E+00 0. -1.
        -11    1    5    5    0    0  0.27770841723E+03 -0.99599258675E+02  0.95791021532E+02  0.31019009838E+03  0.00000000000E+00 0.  1.
          4    1    6    6  503    0 -0.12129425576E+03  0.15135508811E+03  0.39573323181E+03  0.44071016545E+03  0.00000000000E+00 0. -1.
         -4    1    6    6    0  503 -0.38937457088E+02  0.32775349457E+02  0.31045367081E+02  0.59616808986E+02  0.00000000000E+00 0.  1.
<mgrwt>
<rscale>  0 0.14953924E+04</rscale>
<asrwt>0</asrwt>
<pdfrwt beam="1">  1        2 0.16416728E+00 0.14953924E+04</pdfrwt>
<pdfrwt beam="2">  1       -1 0.80600365E-01 0.14953924E+04</pdfrwt>
<totfact> 0.38660551E+01</totfact>
</mgrwt>
</event>
<event>
12    6  0.9533401E-008  0.1697415E+04  0.7818608E-02  0.8762840E-01
          2   -1    0    0  501    0  0.00000000000E+00  0.00000000000E+00  0.20690848362E+04  0.20690848362E+04  0.00000000000E+00 0. -1.
         -1   -1    0    0    0  501 -0.00000000000E+00 -0.00000000000E+00 -0.34812691081E+03  0.34812691081E+03  0.00000000000E+00 0.  1.
         24    2    1    2    0    0 -0.43403495855E+03  0.10175659452E+03  0.12008563532E+04  0.12833664727E+04  0.78947910707E+02 0.  0.
        254    2    1    2    0    0  0.43403495855E+03 -0.10175659452E+03  0.52010157223E+03  0.11338452743E+04  0.90352571121E+03 0.  0.
         23    2    4    4    0    0  0.69253595924E+03 -0.11236254910E+03  0.25485810446E+03  0.75206924752E+03  0.91782908966E+02 0.  0.
         23    2    4    4    0    0 -0.25850100069E+03  0.10605954577E+02  0.26524346777E+03  0.38177602676E+03  0.91997737949E+02 0.  0.
          2    1    3    3  502    0 -0.31757909781E+03  0.10145445865E+03  0.82272239819E+03  0.88770582685E+03  0.00000000000E+00 0. -1.
         -1    1    3    3    0  502 -0.11645586074E+03  0.30213587791E+00  0.37813395498E+03  0.39566064588E+03  0.00000000000E+00 0.  1.
         11    1    5    5    0    0  0.52388764239E+03 -0.10447614874E+03  0.15641242555E+03  0.55663127326E+03  0.00000000000E+00 0. -1.
        -11    1    5    5    0    0  0.16864831685E+03 -0.78864003559E+01  0.98445678913E+02  0.19543797426E+03  0.00000000000E+00 0.  1.
          1    1    6    6  503    0 -0.24781513757E+03  0.22216547055E+02  0.21407131280E+03  0.32822620910E+03  0.00000000000E+00 0. -1.
         -1    1    6    6    0  503 -0.10685863116E+02 -0.11610592478E+02  0.51172154966E+02  0.53549817666E+02  0.00000000000E+00 0.  1.
<mgrwt>
<rscale>  0 0.16974146E+04</rscale>
<asrwt>0</asrwt>
<pdfrwt beam="1">  1        2 0.31832074E+00 0.16974146E+04</pdfrwt>
<pdfrwt beam="2">  1       -1 0.53557988E-01 0.16974146E+04</pdfrwt>
<totfact> 0.23318706E+01</totfact>
</mgrwt>
</event>
<event>
12    6  0.9533401E-008  0.2099144E+04  0.7818608E-02  0.8561621E-01
         -1   -1    0    0    0  501 -0.00000000000E+00  0.00000000000E+00  0.59578795308E+03  0.59578795308E+03  0.00000000000E+00 0.  1.
          2   -1    0    0  501    0  0.00000000000E+00 -0.00000000000E+00 -0.18489814911E+04  0.18489814911E+04  0.00000000000E+00 0. -1.
         24    2    1    2    0    0  0.67119009834E+03 -0.30633181989E+03 -0.10162332134E+04  0.12578042203E+04  0.70754368664E+02 0.  0.
        254    2    1    2    0    0 -0.67119009834E+03  0.30633181989E+03 -0.23696032466E+03  0.11869652239E+04  0.89911118068E+03 0.  0.
         23    2    4    4    0    0 -0.82158853285E+03  0.28191405533E+03 -0.38577015211E+03  0.95533787828E+03  0.96791526017E+02 0.  0.
         23    2    4    4    0    0  0.15039843451E+03  0.24417764559E+02  0.14880982746E+03  0.23162734559E+03  0.91054632786E+02 0.  0.
          4    1    3    3  502    0  0.66966336605E+03 -0.30824374279E+03 -0.10054858239E+04  0.12467818457E+04  0.00000000000E+00 0. -1.
         -3    1    3    3    0  502  0.15267322931E+01  0.19119229009E+01 -0.10747389504E+02  0.11022374600E+02  0.00000000000E+00 0.  1.
         11    1    5    5    0    0 -0.47405994504E+03  0.12162459981E+03 -0.18546591703E+03  0.52337651949E+03  0.00000000000E+00 0.  1.
        -11    1    5    5    0    0 -0.34752858780E+03  0.16028945553E+03 -0.20030423508E+03  0.43196135879E+03  0.00000000000E+00 0. -1.
          3    1    6    6  503    0  0.13208111181E+00 -0.92569350780E+01 -0.77145530639E+01  0.12050834885E+02  0.00000000000E+00 0. -1.
         -3    1    6    6    0  503  0.15026635339E+03  0.33674699637E+02  0.15652438052E+03  0.21957651071E+03  0.00000000000E+00 0.  1.
<mgrwt>
<rscale>  0 0.20991435E+04</rscale>
<asrwt>0</asrwt>
<pdfrwt beam="1">  1        2 0.28445869E+00 0.20991435E+04</pdfrwt>
<pdfrwt beam="2">  1       -1 0.91659686E-01 0.20991435E+04</pdfrwt>
<totfact> 0.98653115E+00</totfact>
</mgrwt>
</event>
<event>
12    6  0.9533401E-008  0.1406663E+04  0.7818608E-02  0.8949009E-01
          2   -1    0    0  501    0  0.00000000000E+00  0.00000000000E+00  0.69067077114E+03  0.69067077114E+03  0.00000000000E+00 0. -1.
         -1   -1    0    0    0  501 -0.00000000000E+00 -0.00000000000E+00 -0.71622454935E+03  0.71622454935E+03  0.00000000000E+00 0.  1.
         24    2    1    2    0    0 -0.69113970028E+02 -0.34606821699E+03  0.29760016517E+03  0.46849202166E+03  0.79868419206E+02 0.  0.
        254    2    1    2    0    0  0.69113970028E+02  0.34606821699E+03 -0.32315394338E+03  0.93840329883E+03  0.80723746721E+03 0.  0.
         23    2    4    4    0    0  0.27326539301E+03 -0.15304839325E+03 -0.18281218667E+03  0.37385918514E+03  0.90843871716E+02 0.  0.
         23    2    4    4    0    0 -0.20415142298E+03  0.49911661024E+03 -0.14034175671E+03  0.56454411369E+03  0.90658995697E+02 0.  0.
          4    1    3    3  502    0 -0.24921021255E+02 -0.24690616739E+03  0.24156496524E+03  0.34631971533E+03  0.00000000000E+00 0. -1.
         -3    1    3    3    0  502 -0.44192948773E+02 -0.99162049605E+02  0.56035199922E+02  0.12217230633E+03  0.00000000000E+00 0.  1.
         11    1    5    5    0    0  0.41768389974E+02  0.34062183319E+01 -0.47711849859E+02  0.63502923880E+02  0.00000000000E+00 0. -1.
        -11    1    5    5    0    0  0.23149700304E+03 -0.15645461158E+03 -0.13510033681E+03  0.31035626126E+03  0.00000000000E+00 0.  1.
          4    1    6    6  503    0 -0.12717744437E+03  0.31489481539E+03 -0.42668467996E+02  0.34227685472E+03  0.00000000000E+00 0. -1.
         -4    1    6    6    0  503 -0.76973978615E+02  0.18422179485E+03 -0.97673288713E+02  0.22226725897E+03  0.00000000000E+00 0.  1.
<mgrwt>
<rscale>  0 0.14066632E+04</rscale>
<asrwt>0</asrwt>
<pdfrwt beam="1">  1        2 0.10625704E+00 0.14066632E+04</pdfrwt>
<pdfrwt beam="2">  1       -1 0.11018839E+00 0.14066632E+04</pdfrwt>
<totfact> 0.35214968E+01</totfact>
</mgrwt>
</event>
<event>
12    6  0.9533401E-008  0.2281214E+04  0.7818608E-02  0.8485365E-01
          2   -1    0    0  501    0  0.00000000000E+00  0.00000000000E+00  0.31425589447E+04  0.31425589447E+04  0.00000000000E+00 0. -1.
         -1   -1    0    0    0  501 -0.00000000000E+00 -0.00000000000E+00 -0.41398869067E+03  0.41398869067E+03  0.00000000000E+00 0.  1.
         24    2    1    2    0    0 -0.37318326694E+03 -0.53381033589E+03  0.22522671256E+04  0.23459453830E+04  0.80828890423E+02 0.  0.
        254    2    1    2    0    0  0.37318326694E+03  0.53381033589E+03  0.47630312838E+03  0.12106022523E+04  0.90248208725E+03 0.  0.
         23    2    4    4    0    0  0.25427667498E+03  0.77250616094E+03  0.27206415012E+03  0.86208042536E+03  0.87985009353E+02 0.  0.
         23    2    4    4    0    0  0.11890659196E+03 -0.23869582505E+03  0.20423897826E+03  0.34852182697E+03  0.92948529438E+02 0.  0.
          2    1    3    3  502    0 -0.30809058544E+03 -0.48449779282E+03  0.19403897084E+04  0.20235538393E+04  0.00000000000E+00 0. -1.
         -1    1    3    3    0  502 -0.65092681493E+02 -0.49312543074E+02  0.31187741722E+03  0.32239154372E+03  0.00000000000E+00 0.  1.
         11    1    5    5    0    0  0.25411963899E+03  0.68776990626E+03  0.24035244582E+03  0.77160451858E+03  0.00000000000E+00 0.  1.
        -11    1    5    5    0    0  0.15703598828E+00  0.84736254683E+02  0.31711704309E+02  0.90475906782E+02  0.00000000000E+00 0. -1.
          1    1    6    6  503    0  0.20860840681E+02 -0.80244090573E+02  0.17535900735E+02  0.84745481062E+02  0.00000000000E+00 0. -1.
         -1    1    6    6    0  503  0.98045751277E+02 -0.15845173448E+03  0.18670307752E+03  0.26377634591E+03  0.00000000000E+00 0.  1.
<mgrwt>
<rscale>  0 0.22812136E+04</rscale>
<asrwt>0</asrwt>
<pdfrwt beam="1">  1        2 0.48347059E+00 0.22812136E+04</pdfrwt>
<pdfrwt beam="2">  1       -1 0.63690570E-01 0.22812136E+04</pdfrwt>
<totfact> 0.36542895E+00</totfact>
</mgrwt>
</event>
<event>
12    6  0.9533401E-008  0.2489935E+04  0.7818608E-02  0.8406580E-01
          2   -1    0    0  501    0  0.00000000000E+00  0.00000000000E+00  0.17509283307E+04  0.17509283307E+04  0.00000000000E+00 0. -1.
         -1   -1    0    0    0  501 -0.00000000000E+00 -0.00000000000E+00 -0.88521299875E+03  0.88521299875E+03  0.00000000000E+00 0.  1.
         24    2    1    2    0    0  0.36441997898E+03 -0.49939811035E+03  0.13132977716E+04  0.14537043541E+04  0.79403516017E+02 0.  0.
        254    2    1    2    0    0 -0.36441997898E+03  0.49939811035E+03 -0.44758243967E+03  0.11824369754E+04  0.90312057157E+03 0.  0.
         23    2    4    4    0    0  0.12188609957E+03 -0.18610867074E+03 -0.16082291269E+03  0.28999193827E+03  0.93480781014E+02 0.  0.
         23    2    4    4    0    0 -0.48630607855E+03  0.68550678109E+03 -0.28675952698E+03  0.89244503713E+03  0.88396657355E+02 0.  0.
          4    1    3    3  502    0  0.27525427680E+03 -0.38886966248E+03  0.10826754244E+04  0.11828654217E+04  0.00000000000E+00 0. -1.
         -3    1    3    3    0  502  0.89165702175E+02 -0.11052844787E+03  0.23062234724E+03  0.27083893236E+03  0.00000000000E+00 0.  1.
         11    1    5    5    0    0  0.10888021929E+03 -0.83066905204E+02 -0.82142512732E+02  0.15969472531E+03  0.00000000000E+00 0. -1.
        -11    1    5    5    0    0  0.13005880279E+02 -0.10304176554E+03 -0.78680399961E+02  0.13029721296E+03  0.00000000000E+00 0.  1.
          2    1    6    6  503    0 -0.11321058584E+03  0.15650592803E+03 -0.10606340865E+03  0.22036376497E+03  0.00000000000E+00 0. -1.
         -2    1    6    6    0  503 -0.37309549271E+03  0.52900085306E+03 -0.18069611833E+03  0.67208127216E+03  0.00000000000E+00 0.  1.
<mgrwt>
<rscale>  0 0.24899354E+04</rscale>
<asrwt>0</asrwt>
<pdfrwt beam="1">  1        2 0.26937359E+00 0.24899354E+04</pdfrwt>
<pdfrwt beam="2">  1       -1 0.13618662E+00 0.24899354E+04</pdfrwt>
<totfact> 0.42049509E+00</totfact>
</mgrwt>
</event>
<event>
12    6  0.9533401E-008  0.2033607E+04  0.7818608E-02  0.8591068E-01
         -1   -1    0    0    0  501 -0.00000000000E+00  0.00000000000E+00  0.58956446836E+03  0.58956446836E+03  0.00000000000E+00 0.  1.
          2   -1    0    0  501    0  0.00000000000E+00 -0.00000000000E+00 -0.17536488640E+04  0.17536488640E+04  0.00000000000E+00 0. -1.
         24    2    1    2    0    0 -0.73434606919E+03  0.22534096384E+03 -0.41040120701E+03  0.87463912338E+03  0.80757328580E+02 0.  0.
        254    2    1    2    0    0  0.73434606919E+03 -0.22534096384E+03 -0.75368318867E+03  0.14685742090E+04  0.99931434454E+03 0.  0.
         23    2    4    4    0    0  0.73271459218E+03  0.23012055559E+03 -0.33353435045E+03  0.84222134337E+03  0.90914710579E+02 0.  0.
         23    2    4    4    0    0  0.16314770082E+01 -0.45546151943E+03 -0.42014883822E+03  0.62635286565E+03  0.91351018885E+02 0.  0.
          2    1    3    3  502    0 -0.70700143788E+03  0.22390839549E+03 -0.40968595439E+03  0.84724765208E+03  0.00000000000E+00 0. -1.
         -1    1    3    3    0  502 -0.27344631316E+02  0.14325683516E+01 -0.71525261429E+00  0.27391471304E+02  0.00000000000E+00 0.  1.
         11    1    5    5    0    0  0.25780617889E+03  0.70209546096E+02 -0.70815612476E+02  0.27642043559E+03  0.00000000000E+00 0.  1.
        -11    1    5    5    0    0  0.47490841329E+03  0.15991100949E+03 -0.26271873798E+03  0.56580090779E+03  0.00000000000E+00 0. -1.
          3    1    6    6  503    0 -0.40371574933E+02 -0.28602847318E+03 -0.24067136926E+03  0.37598518523E+03  0.00000000000E+00 0. -1.
         -3    1    6    6    0  503  0.42003051941E+02 -0.16943304625E+03 -0.17947746895E+03  0.25036768042E+03  0.00000000000E+00 0.  1.
<mgrwt>
<rscale>  0 0.20336067E+04</rscale>
<asrwt>0</asrwt>
<pdfrwt beam="1">  1        2 0.26979213E+00 0.20336067E+04</pdfrwt>
<pdfrwt beam="2">  1       -1 0.90702226E-01 0.20336067E+04</pdfrwt>
<totfact> 0.11470255E+01</totfact>
</mgrwt>
</event>
<event>
12    6  0.9533401E-008  0.1858813E+04  0.7818608E-02  0.8675634E-01
          2   -1    0    0  501    0  0.00000000000E+00  0.00000000000E+00  0.17641787119E+04  0.17641787119E+04  0.00000000000E+00 0. -1.
         -1   -1    0    0    0  501 -0.00000000000E+00 -0.00000000000E+00 -0.48963070514E+03  0.48963070514E+03  0.00000000000E+00 0.  1.
         24    2    1    2    0    0 -0.45990854845E+02  0.44061133499E+03  0.11525864650E+04  0.12373205966E+04  0.79077128763E+02 0.  0.
        254    2    1    2    0    0  0.45990854845E+02 -0.44061133499E+03  0.12196154181E+03  0.10164888205E+04  0.90670910286E+03 0.  0.
         23    2    4    4    0    0 -0.84607042090E+01 -0.66948705132E+03 -0.97867779352E+02  0.68278636425E+03  0.91294148622E+02 0.  0.
         23    2    4    4    0    0  0.54451559054E+02  0.22887571632E+03  0.21982932116E+03  0.33370245622E+03  0.87654623599E+02 0.  0.
          4    1    3    3  502    0 -0.12480287205E+02  0.38130204420E+03  0.95905152218E+03  0.10321467089E+04  0.00000000000E+00 0. -1.
         -3    1    3    3    0  502 -0.33510567640E+02  0.59309290791E+02  0.19353494281E+03  0.20517388773E+03  0.00000000000E+00 0.  1.
         11    1    5    5    0    0  0.11900995714E+02 -0.10682501451E+02 -0.69084742827E+01  0.17420578439E+02  0.00000000000E+00 0.  1.
        -11    1    5    5    0    0 -0.20361699923E+02 -0.65880454987E+03 -0.90959305070E+02  0.66536578581E+03  0.00000000000E+00 0. -1.
          1    1    6    6  503    0  0.32241804816E+02  0.18039007405E+03  0.11571962538E+03  0.21672827340E+03  0.00000000000E+00 0. -1.
         -1    1    6    6    0  503  0.22209754238E+02  0.48485642271E+02  0.10410969578E+03  0.11697418282E+03  0.00000000000E+00 0.  1.
<mgrwt>
<rscale>  0 0.18588126E+04</rscale>
<asrwt>0</asrwt>
<pdfrwt beam="1">  1        2 0.27141211E+00 0.18588126E+04</pdfrwt>
<pdfrwt beam="2">  1       -1 0.75327801E-01 0.18588126E+04</pdfrwt>
<totfact> 0.17126530E+01</totfact>
</mgrwt>
</event>
<event>
12    6  0.9533401E-008  0.1349182E+04  0.7818608E-02  0.8991448E-01
         -1   -1    0    0    0  501 -0.00000000000E+00  0.00000000000E+00  0.16543026986E+03  0.16543026986E+03  0.00000000000E+00 0.  1.
          2   -1    0    0  501    0  0.00000000000E+00 -0.00000000000E+00 -0.27508446492E+04  0.27508446492E+04  0.00000000000E+00 0. -1.
         24    2    1    2    0    0  0.33344372840E+03  0.95463313727E+02 -0.46967117200E+03  0.59030891391E+03  0.87038151150E+02 0.  0.
        254    2    1    2    0    0 -0.33344372840E+03 -0.95463313727E+02 -0.21157432074E+04  0.23259660052E+04  0.90191494803E+03 0.  0.
         23    2    4    4    0    0  0.18489149629E+03  0.25356371872E+03 -0.60403827175E+03  0.68712292832E+03  0.93788379031E+02 0.  0.
         23    2    4    4    0    0 -0.51833522469E+03 -0.34902703245E+03 -0.15117049356E+04  0.16388430769E+04  0.10031721526E+03 0.  0.
          4    1    3    3  502    0  0.10628406105E+03  0.49233873455E+02 -0.10024441221E+03  0.15417268924E+03  0.00000000000E+00 0. -1.
         -3    1    3    3    0  502  0.22715966735E+03  0.46229440273E+02 -0.36942675979E+03  0.43613622467E+03  0.00000000000E+00 0.  1.
         11    1    5    5    0    0  0.11802380637E+02 -0.52163727921E+01 -0.95727484129E+01  0.16066867958E+02  0.00000000000E+00 0.  1.
        -11    1    5    5    0    0  0.17308911565E+03  0.25878009151E+03 -0.59446552333E+03  0.67105606036E+03  0.00000000000E+00 0. -1.
          4    1    6    6  503    0 -0.21697447670E+03 -0.12169079203E+03 -0.71957601316E+03  0.76136470310E+03  0.00000000000E+00 0. -1.
         -4    1    6    6    0  503 -0.30136074799E+03 -0.22733624042E+03 -0.79212892247E+03  0.87747837378E+03  0.00000000000E+00 0.  1.
<mgrwt>
<rscale>  0 0.13491819E+04</rscale>
<asrwt>0</asrwt>
<pdfrwt beam="1">  1        2 0.42320683E+00 0.13491819E+04</pdfrwt>
<pdfrwt beam="2">  1       -1 0.25450813E-01 0.13491819E+04</pdfrwt>
<totfact> 0.37672246E+01</totfact>
</mgrwt>
</event>
<event>
12    6  0.9533401E-008  0.2176230E+04  0.7818608E-02  0.8528387E-01
          2   -1    0    0  501    0  0.00000000000E+00  0.00000000000E+00  0.19311035950E+04  0.19311035950E+04  0.00000000000E+00 0. -1.
         -3   -1    0    0    0  501 -0.00000000000E+00 -0.00000000000E+00 -0.61311809509E+03  0.61311809509E+03  0.00000000000E+00 0.  1.
         24    2    1    2    0    0  0.84779927079E+03 -0.28040645176E+03  0.66809154429E+03  0.11184103215E+04  0.84284957103E+02 0.  0.
        254    2    1    2    0    0 -0.84779927079E+03  0.28040645176E+03  0.64989395561E+03  0.14258113686E+04  0.90176744422E+03 0.  0.
         23    2    4    4    0    0 -0.47352331513E+03 -0.21824056969E+03  0.58818168824E+03  0.79135130380E+03  0.91792763376E+02 0.  0.
         23    2    4    4    0    0 -0.37427595565E+03  0.49864702145E+03  0.61712267364E+02  0.63446006477E+03  0.99999134281E+02 0.  0.
          2    1    3    3  502    0  0.80390756924E+03 -0.24476368920E+03  0.62887964103E+03  0.10496028994E+04  0.00000000000E+00 0. -1.
         -1    1    3    3    0  502  0.43891701543E+02 -0.35642762560E+02  0.39211903258E+02  0.68807422160E+02  0.00000000000E+00 0.  1.
         11    1    5    5    0    0 -0.35348778143E+03 -0.20273885166E+03  0.47214968637E+03  0.62368419888E+03  0.00000000000E+00 0.  1.
        -11    1    5    5    0    0 -0.12003553371E+03 -0.15501718027E+02  0.11603200187E+03  0.16766710492E+03  0.00000000000E+00 0. -1.
          4    1    6    6  503    0 -0.70333213750E+02  0.16892618353E+03  0.20695925876E+02  0.18414976998E+03  0.00000000000E+00 0. -1.
         -4    1    6    6    0  503 -0.30394274190E+03  0.32972083793E+03  0.41016341489E+02  0.45031029478E+03  0.00000000000E+00 0.  1.
<mgrwt>
<rscale>  0 0.21762303E+04</rscale>
<asrwt>0</asrwt>
<pdfrwt beam="1">  1        2 0.29709286E+00 0.21762303E+04</pdfrwt>
<pdfrwt beam="2">  1       -3 0.94325862E-01 0.21762303E+04</pdfrwt>
<totfact> 0.42674544E+00</totfact>
</mgrwt>
</event>
<event>
12    6  0.9533401E-008  0.1486683E+04  0.7818608E-02  0.8893357E-01
         -3   -1    0    0    0  501 -0.00000000000E+00  0.00000000000E+00  0.13820821588E+04  0.13820821588E+04  0.00000000000E+00 0.  1.
          4   -1    0    0  501    0  0.00000000000E+00 -0.00000000000E+00 -0.39980025906E+03  0.39980025906E+03  0.00000000000E+00 0. -1.
         24    2    1    2    0    0  0.44907361735E+03  0.77035978781E+02  0.26809251254E+03  0.53520430409E+03  0.83476919034E+02 0.  0.
        254    2    1    2    0    0 -0.44907361735E+03 -0.77035978781E+02  0.71418938722E+03  0.12466781138E+04  0.91462461304E+03 0.  0.
         23    2    4    4    0    0 -0.44596756189E+03  0.32074999182E+03  0.61052266700E+03  0.82609727452E+03  0.89057040908E+02 0.  0.
         23    2    4    4    0    0 -0.31060554553E+01 -0.39778597060E+03  0.10366672022E+03  0.42058083928E+03  0.88871409919E+02 0.  0.
          2    1    3    3  502    0  0.16660740452E+03  0.93571316462E+00  0.13198458322E+03  0.21255312985E+03  0.00000000000E+00 0. -1.
         -1    1    3    3    0  502  0.28246621282E+03  0.76100265616E+02  0.13610792932E+03  0.32265117424E+03  0.00000000000E+00 0.  1.
         11    1    5    5    0    0 -0.62633999192E+01  0.24329952829E+02  0.17841106229E+02  0.30813663441E+02  0.00000000000E+00 0. -1.
        -11    1    5    5    0    0 -0.43970416197E+03  0.29642003899E+03  0.59268156077E+03  0.79528361107E+03  0.00000000000E+00 0.  1.
          1    1    6    6  503    0 -0.41404089034E+02 -0.19843363586E+03  0.31518067700E+02  0.20514286491E+03  0.00000000000E+00 0. -1.
         -1    1    6    6    0  503  0.38298033579E+02 -0.19935233473E+03  0.72148652525E+02  0.21543797437E+03  0.00000000000E+00 0.  1.
<mgrwt>
<rscale>  0 0.14866833E+04</rscale>
<asrwt>0</asrwt>
<pdfrwt beam="1">  1        4 0.61507733E-01 0.14866833E+04</pdfrwt>
<pdfrwt beam="2">  1       -3 0.21262802E+00 0.14866833E+04</pdfrwt>
<totfact> 0.67265203E-01</totfact>
</mgrwt>
</event>
<event>
12    6  0.9533401E-008  0.1286226E+04  0.7818608E-02  0.9040560E-01
         -1   -1    0    0    0  501 -0.00000000000E+00  0.00000000000E+00  0.66440137229E+03  0.66440137229E+03  0.00000000000E+00 0.  1.
          2   -1    0    0  501    0  0.00000000000E+00 -0.00000000000E+00 -0.62250704142E+03  0.62250704142E+03  0.00000000000E+00 0. -1.
         24    2    1    2    0    0 -0.39719926508E+02 -0.24957693077E+03 -0.25152819660E+03  0.36539564256E+03  0.79882569966E+02 0.  0.
        254    2    1    2    0    0  0.39719926508E+02  0.24957693077E+03  0.29342252746E+03  0.92151277116E+03  0.83619536643E+03 0.  0.
         23    2    4    4    0    0 -0.90574882024E+02  0.30284796427E+03 -0.21034846891E+03  0.39049098260E+03  0.91192271637E+02 0.  0.
         23    2    4    4    0    0  0.13029480853E+03 -0.53271033497E+02  0.50377099637E+03  0.53102178856E+03  0.91566276536E+02 0.  0.
          2    1    3    3  502    0 -0.23292087000E+02 -0.24737341118E+03 -0.23582291143E+03  0.34256177755E+03  0.00000000000E+00 0. -1.
         -1    1    3    3    0  502 -0.16427839508E+02 -0.22035195853E+01 -0.15705285163E+02  0.22833865015E+02  0.00000000000E+00 0.  1.
         11    1    5    5    0    0 -0.10714523393E+03  0.22338880633E+03 -0.16188400000E+03  0.29595453943E+03  0.00000000000E+00 0.  1.
        -11    1    5    5    0    0  0.16570351910E+02  0.79459157932E+02 -0.48464468905E+02  0.94536443174E+02  0.00000000000E+00 0. -1.
          3    1    6    6  503    0  0.10127808257E+02 -0.13923460141E+02  0.72985500866E+01  0.18700376353E+02  0.00000000000E+00 0. -1.
         -3    1    6    6    0  503  0.12016700027E+03 -0.39347573356E+02  0.49647244628E+03  0.51232141220E+03  0.00000000000E+00 0.  1.
<mgrwt>
<rscale>  0 0.12862263E+04</rscale>
<asrwt>0</asrwt>
<pdfrwt beam="1">  1        2 0.95770314E-01 0.12862263E+04</pdfrwt>
<pdfrwt beam="2">  1       -1 0.10221560E+00 0.12862263E+04</pdfrwt>
<totfact> 0.48200668E+01</totfact>
</mgrwt>
</event>
<event>
12    6  0.9533401E-008  0.1879662E+04  0.7818608E-02  0.8665047E-01
          2   -1    0    0  501    0  0.00000000000E+00  0.00000000000E+00  0.11363155832E+04  0.11363155832E+04  0.00000000000E+00 0. -1.
         -1   -1    0    0    0  501 -0.00000000000E+00 -0.00000000000E+00 -0.77732109676E+03  0.77732109676E+03  0.00000000000E+00 0.  1.
         24    2    1    2    0    0  0.23473912259E+03  0.46356058518E+03 -0.36422093327E+03  0.63932998772E+03  0.78070949510E+02 0.  0.
        254    2    1    2    0    0 -0.23473912259E+03 -0.46356058518E+03  0.72321541974E+03  0.12743066923E+04  0.91149664333E+03 0.  0.
         23    2    4    4    0    0 -0.11403106492E+03  0.10393558151E+03  0.66140342979E+03  0.68390993707E+03  0.80452571215E+02 0.  0.
         23    2    4    4    0    0 -0.12070805768E+03 -0.56749616670E+03  0.61811989958E+02  0.59039675521E+03  0.90140290946E+02 0.  0.
          4    1    3    3  502    0  0.96257520349E+02  0.21546693944E+03 -0.21078862345E+03  0.31642274885E+03  0.00000000000E+00 0. -1.
         -3    1    3    3    0  502  0.13848160224E+03  0.24809364574E+03 -0.15343230982E+03  0.32290723887E+03  0.00000000000E+00 0.  1.
         11    1    5    5    0    0 -0.75566343382E+02  0.99014991293E+02  0.38113368055E+03  0.40097022732E+03  0.00000000000E+00 0. -1.
        -11    1    5    5    0    0 -0.38464721535E+02  0.49205902215E+01  0.28026974924E+03  0.28293970974E+03  0.00000000000E+00 0.  1.
          1    1    6    6  503    0 -0.47786522866E+02 -0.33306318641E+03  0.74252114875E+02  0.34456931737E+03  0.00000000000E+00 0. -1.
         -1    1    6    6    0  503 -0.72921534810E+02 -0.23443298028E+03 -0.12440124917E+02  0.24582743783E+03  0.00000000000E+00 0.  1.
<mgrwt>
<rscale>  0 0.18796618E+04</rscale>
<asrwt>0</asrwt>
<pdfrwt beam="1">  1        2 0.17481778E+00 0.18796618E+04</pdfrwt>
<pdfrwt beam="2">  1       -1 0.11958786E+00 0.18796618E+04</pdfrwt>
<totfact> 0.13824324E+01</totfact>
</mgrwt>
</event>
<event>
12    6  0.9533401E-008  0.1401157E+04  0.7818608E-02  0.8952981E-01
         -1   -1    0    0    0  501 -0.00000000000E+00  0.00000000000E+00  0.44157876290E+03  0.44157876290E+03  0.00000000000E+00 0.  1.
          2   -1    0    0  501    0  0.00000000000E+00 -0.00000000000E+00 -0.11114899946E+04  0.11114899946E+04  0.00000000000E+00 0. -1.
         24    2    1    2    0    0 -0.17871975543E+03  0.84410511427E+02 -0.58414800015E+03  0.62194027283E+03  0.80715125401E+02 0.  0.
        254    2    1    2    0    0  0.17871975543E+03 -0.84410511427E+02 -0.85763231584E+02  0.93112848471E+03  0.90585817749E+03 0.  0.
         23    2    4    4    0    0 -0.62956111198E+02  0.73165930137E+02  0.36497818900E+03  0.38819473804E+03  0.90384461722E+02 0.  0.
         23    2    4    4    0    0  0.24167586663E+03 -0.15757644156E+03 -0.45074142059E+03  0.54293374667E+03  0.91496806484E+02 0.  0.
          4    1    3    3  502    0 -0.18026116440E+03  0.91184822098E+02 -0.52733933117E+03  0.56470835780E+03  0.00000000000E+00 0. -1.
         -3    1    3    3    0  502  0.15414089678E+01 -0.67743106711E+01 -0.56808668977E+02  0.57231915027E+02  0.00000000000E+00 0.  1.
         11    1    5    5    0    0  0.16618400282E+01 -0.16407311761E+02  0.96280254963E+02  0.97682388828E+02  0.00000000000E+00 0.  1.
        -11    1    5    5    0    0 -0.64617951226E+02  0.89573241897E+02  0.26869793404E+03  0.29051234921E+03  0.00000000000E+00 0. -1.
          1    1    6    6  503    0  0.23518381881E+03 -0.16816215356E+03 -0.42112325550E+03  0.51081771195E+03  0.00000000000E+00 0. -1.
         -1    1    6    6    0  503  0.64920478225E+01  0.10585711993E+02 -0.29618165085E+02  0.32116034723E+02  0.00000000000E+00 0.  1.
<mgrwt>
<rscale>  0 0.14011572E+04</rscale>
<asrwt>0</asrwt>
<pdfrwt beam="1">  1        2 0.17099846E+00 0.14011572E+04</pdfrwt>
<pdfrwt beam="2">  1       -1 0.67935195E-01 0.14011572E+04</pdfrwt>
<totfact> 0.52196550E+01</totfact>
</mgrwt>
</event>
<event>
12    6  0.9533401E-008  0.1402039E+04  0.7818608E-02  0.8952344E-01
         -1   -1    0    0    0  501 -0.00000000000E+00  0.00000000000E+00  0.46456174918E+03  0.46456174918E+03  0.00000000000E+00 0.  1.
          2   -1    0    0  501    0  0.00000000000E+00 -0.00000000000E+00 -0.10578325854E+04  0.10578325854E+04  0.00000000000E+00 0. -1.
         24    2    1    2    0    0  0.32601552112E+03  0.27871083128E+03 -0.14363827513E+03  0.45904883058E+03  0.78281717430E+02 0.  0.
        254    2    1    2    0    0 -0.32601552112E+03 -0.27871083128E+03 -0.44963256112E+03  0.10633455040E+04  0.86288375429E+03 0.  0.
         23    2    4    4    0    0 -0.54852919348E+03 -0.32212845969E+03 -0.50235352476E+03  0.81621141291E+03  0.95869630674E+02 0.  0.
         23    2    4    4    0    0  0.22251367235E+03  0.43417628402E+02  0.52720963642E+02  0.24713409112E+03  0.83056210755E+02 0.  0.
          2    1    3    3  502    0  0.43042575525E+02  0.52217939195E+02 -0.51578795259E+02  0.85086712253E+02  0.00000000000E+00 0. -1.
         -1    1    3    3    0  502  0.28297294560E+03  0.22649289209E+03 -0.92059479868E+02  0.37396211832E+03  0.00000000000E+00 0.  1.
         11    1    5    5    0    0 -0.86439438958E+01 -0.23444017894E+02 -0.10279811187E+02  0.27018776048E+02  0.00000000000E+00 0. -1.
        -11    1    5    5    0    0 -0.53988524958E+03 -0.29868444179E+03 -0.49207371357E+03  0.78919263686E+03  0.00000000000E+00 0.  1.
          3    1    6    6  503    0  0.57019849019E+01 -0.15662037486E+02  0.22483236758E+01  0.16818650641E+02  0.00000000000E+00 0. -1.
         -3    1    6    6    0  503  0.21681168745E+03  0.59079665887E+02  0.50472639966E+02  0.23031544048E+03  0.00000000000E+00 0.  1.
<mgrwt>
<rscale>  0 0.14020393E+04</rscale>
<asrwt>0</asrwt>
<pdfrwt beam="1">  1        2 0.16274347E+00 0.14020393E+04</pdfrwt>
<pdfrwt beam="2">  1       -1 0.71471039E-01 0.14020393E+04</pdfrwt>
<totfact> 0.50789913E+01</totfact>
</mgrwt>
</event>
<event>
12    6  0.9533401E-008  0.2448470E+04  0.7818608E-02  0.8421577E-01
          2   -1    0    0  501    0  0.00000000000E+00  0.00000000000E+00  0.34473206443E+04  0.34473206443E+04  0.00000000000E+00 0. -1.
         -1   -1    0    0    0  501 -0.00000000000E+00 -0.00000000000E+00 -0.43475834928E+03  0.43475834928E+03  0.00000000000E+00 0.  1.
         24    2    1    2    0    0 -0.12242440570E+03 -0.29123463401E+03  0.29116445489E+04  0.29298177013E+04  0.79702175573E+02 0.  0.
        254    2    1    2    0    0  0.12242440570E+03  0.29123463401E+03  0.10091774620E+03  0.95226129233E+03  0.89264317071E+03 0.  0.
         23    2    4    4    0    0  0.26110600581E+03  0.14778639731E+03 -0.33834258790E+03  0.46124490812E+03  0.90851488632E+02 0.  0.
         23    2    4    4    0    0 -0.13868160011E+03  0.14344823670E+03  0.43926033410E+03  0.49101638420E+03  0.91309723602E+02 0.  0.
          2    1    3    3  502    0 -0.12133262816E+03 -0.27977462520E+03  0.25778559239E+04  0.25958306208E+04  0.00000000000E+00 0. -1.
         -1    1    3    3    0  502 -0.10917775407E+01 -0.11460008804E+02  0.33378862495E+03  0.33398708047E+03  0.00000000000E+00 0.  1.
         11    1    5    5    0    0  0.61889389623E+02  0.15926738521E+02 -0.28443170914E+02  0.69949778552E+02  0.00000000000E+00 0. -1.
        -11    1    5    5    0    0  0.19921661618E+03  0.13185965879E+03 -0.30989941699E+03  0.39129512957E+03  0.00000000000E+00 0.  1.
          3    1    6    6  503    0  0.38817194488E+01  0.36296460010E+02  0.42550045615E+02  0.56062528814E+02  0.00000000000E+00 0. -1.
         -3    1    6    6    0  503 -0.14256331956E+03  0.10715177669E+03  0.39671028848E+03  0.43495385539E+03  0.00000000000E+00 0.  1.
<mgrwt>
<rscale>  0 0.24484701E+04</rscale>
<asrwt>0</asrwt>
<pdfrwt beam="1">  1        2 0.53035700E+00 0.24484701E+04</pdfrwt>
<pdfrwt beam="2">  1       -1 0.66885902E-01 0.24484701E+04</pdfrwt>
<totfact> 0.20435629E+00</totfact>
</mgrwt>
</event>
<event>
12    6  0.1270842E-007  0.1661318E+04  0.7818608E-02  0.8783739E-01
          2   -1    0    0  501    0  0.00000000000E+00  0.00000000000E+00  0.96807975861E+03  0.96807975861E+03  0.00000000000E+00 0. -1.
         -1   -1    0    0    0  501 -0.00000000000E+00 -0.00000000000E+00 -0.71274513010E+03  0.71274513010E+03  0.00000000000E+00 0.  1.
         24    2    1    2    0    0  0.58229708082E+02 -0.65371398187E+02  0.72086349000E+03  0.73046427705E+03  0.79181880596E+02 0.  0.
        254    2    1    2    0    0 -0.58229708082E+02  0.65371398187E+02 -0.46552886149E+03  0.95036061166E+03  0.82389565645E+03 0.  0.
         23    2    4    4    0    0 -0.42808686931E+03 -0.15356640271E+02 -0.23244266538E+03  0.49607125568E+03  0.92535960302E+02 0.  0.
         23    2    4    4    0    0  0.36985716123E+03  0.80728038458E+02 -0.23308619611E+03  0.45428935598E+03  0.93478918659E+02 0.  0.
          2    1    3    3  502    0  0.24957679498E+02 -0.64008634305E+02  0.62919695086E+03  0.63293664296E+03  0.00000000000E+00 0. -1.
         -1    1    3    3    0  502  0.33272028583E+02 -0.13627638817E+01  0.91666539145E+02  0.97527634085E+02  0.00000000000E+00 0.  1.
         11    1    5    5    0    0 -0.10017932137E+03 -0.23610639376E+02 -0.96226813929E+02  0.14090052676E+03  0.00000000000E+00 0.  1.
        -11    1    5    5    0    0 -0.32790754794E+03  0.82539991048E+01 -0.13621585145E+03  0.35517072893E+03  0.00000000000E+00 0. -1.
          3    1    6    6  503    0  0.26502161843E+03  0.30662034813E+02 -0.20018751948E+03  0.33354409239E+03  0.00000000000E+00 0. -1.
         -3    1    6    6    0  503  0.10483554280E+03  0.50066003645E+02 -0.32898676631E+02  0.12074526359E+03  0.00000000000E+00 0.  1.
<mgrwt>
<rscale>  0 0.16613177E+04</rscale>
<asrwt>0</asrwt>
<pdfrwt beam="1">  1        2 0.14893535E+00 0.16613177E+04</pdfrwt>
<pdfrwt beam="2">  1       -1 0.10965310E+00 0.16613177E+04</pdfrwt>
<totfact> 0.22125845E+01</totfact>
</mgrwt>
</event>
<event>
12    6  0.9533401E-008  0.1108048E+04  0.7818608E-02  0.9197383E-01
         -1   -1    0    0    0  501 -0.00000000000E+00  0.00000000000E+00  0.25017530842E+03  0.25017530842E+03  0.00000000000E+00 0.  1.
          2   -1    0    0  501    0  0.00000000000E+00 -0.00000000000E+00 -0.12269094232E+04  0.12269094232E+04  0.00000000000E+00 0. -1.
         24    2    1    2    0    0  0.23274679198E+02  0.15482294444E+03 -0.66153809805E+02  0.18843680805E+03  0.81364914161E+02 0.  0.
        254    2    1    2    0    0 -0.23274679198E+02 -0.15482294444E+03 -0.91058030495E+03  0.12886479236E+04  0.89830124363E+03 0.  0.
         23    2    4    4    0    0  0.23518085138E+03 -0.42250185007E+03 -0.68430229962E+03  0.84312323773E+03  0.93644597147E+02 0.  0.
         23    2    4    4    0    0 -0.25845553058E+03  0.26767890562E+03 -0.22627800533E+03  0.44552468583E+03  0.94017297245E+02 0.  0.
          4    1    3    3  502    0 -0.29878485702E+02  0.56679393266E+02 -0.15803363433E+02  0.65992604317E+02  0.00000000000E+00 0. -1.
         -3    1    3    3    0  502  0.53153164900E+02  0.98143551178E+02 -0.50350446372E+02  0.12244420373E+03  0.00000000000E+00 0.  1.
         11    1    5    5    0    0  0.94659546265E+02 -0.17105840351E+03 -0.35775576228E+03  0.40768933339E+03  0.00000000000E+00 0. -1.
        -11    1    5    5    0    0  0.14052130512E+03 -0.25144344656E+03 -0.32654653733E+03  0.43543390435E+03  0.00000000000E+00 0.  1.
          3    1    6    6  503    0  0.18081243102E+01 -0.57224848276E+01 -0.59701080906E+01  0.84651247325E+01  0.00000000000E+00 0. -1.
         -3    1    6    6    0  503 -0.26026365489E+03  0.27340139045E+03 -0.22030789724E+03  0.43705956109E+03  0.00000000000E+00 0.  1.
<mgrwt>
<rscale>  0 0.11080477E+04</rscale>
<asrwt>0</asrwt>
<pdfrwt beam="1">  1        2 0.18875530E+00 0.11080477E+04</pdfrwt>
<pdfrwt beam="2">  1       -1 0.38488509E-01 0.11080477E+04</pdfrwt>
<totfact> 0.13481887E+02</totfact>
</mgrwt>
</event>
<event>
12    6  0.9533401E-008  0.1634498E+04  0.7818608E-02  0.8799630E-01
         -1   -1    0    0    0  501 -0.00000000000E+00  0.00000000000E+00  0.58066677492E+03  0.58066677492E+03  0.00000000000E+00 0.  1.
          2   -1    0    0  501    0  0.00000000000E+00 -0.00000000000E+00 -0.11502224444E+04  0.11502224444E+04  0.00000000000E+00 0. -1.
         24    2    1    2    0    0  0.26626687474E+03 -0.48322580539E+03 -0.67581081889E+02  0.56336672184E+03  0.91704051567E+02 0.  0.
        254    2    1    2    0    0 -0.26626687474E+03  0.48322580539E+03 -0.50197458756E+03  0.11675224974E+04  0.89817875053E+03 0.  0.
         23    2    4    4    0    0  0.22856225317E+03  0.10188169581E+03  0.10809764294E+03  0.28969609521E+03  0.98072134964E+02 0.  0.
         23    2    4    4    0    0 -0.49482912791E+03  0.38134410958E+03 -0.61007223049E+03  0.87782640223E+03  0.90065921893E+02 0.  0.
          4    1    3    3  502    0  0.15169184337E+02 -0.93660092606E+02 -0.23839155594E+02  0.97829558110E+02  0.00000000000E+00 0. -1.
         -3    1    3    3    0  502  0.25109769040E+03 -0.38956571278E+03 -0.43741926294E+02  0.46553716373E+03  0.00000000000E+00 0.  1.
         11    1    5    5    0    0  0.47486303097E+02  0.70460357422E+02  0.35918646271E+02  0.92248360960E+02  0.00000000000E+00 0. -1.
        -11    1    5    5    0    0  0.18107595007E+03  0.31421338389E+02  0.72178996668E+02  0.19744773425E+03  0.00000000000E+00 0.  1.
          2    1    6    6  503    0 -0.14404166065E+03  0.10332172235E+03 -0.11974018644E+03  0.21391842034E+03  0.00000000000E+00 0. -1.
         -2    1    6    6    0  503 -0.35078746726E+03  0.27802238723E+03 -0.49033204405E+03  0.66390798189E+03  0.00000000000E+00 0.  1.
<mgrwt>
<rscale>  0 0.16344980E+04</rscale>
<asrwt>0</asrwt>
<pdfrwt beam="1">  1        2 0.17695730E+00 0.16344980E+04</pdfrwt>
<pdfrwt beam="2">  1       -1 0.89333350E-01 0.16344980E+04</pdfrwt>
<totfact> 0.27186847E+01</totfact>
</mgrwt>
</event>
<event>
12    6  0.9533401E-008  0.1658156E+04  0.7818608E-02  0.8785596E-01
          2   -1    0    0  501    0  0.00000000000E+00  0.00000000000E+00  0.25682592946E+04  0.25682592946E+04  0.00000000000E+00 0. -1.
         -1   -1    0    0    0  501 -0.00000000000E+00 -0.00000000000E+00 -0.26764053072E+03  0.26764053072E+03  0.00000000000E+00 0.  1.
         24    2    1    2    0    0 -0.43678897575E+03  0.20076453295E+03  0.24640323866E+03  0.54612439189E+03  0.80288781116E+02 0.  0.
        254    2    1    2    0    0  0.43678897575E+03 -0.20076453295E+03  0.20542155252E+04  0.22897754334E+04  0.89004443957E+03 0.  0.
         23    2    4    4    0    0  0.34027719026E+03  0.22008093994E+03  0.16136007551E+04  0.16662103928E+04  0.91244122262E+02 0.  0.
         23    2    4    4    0    0  0.96511785487E+02 -0.42084547289E+03  0.44061477011E+03  0.62356504062E+03  0.90920555740E+02 0.  0.
          4    1    3    3  502    0 -0.12473029470E+03  0.26544015628E+02  0.89529680811E+02  0.15581333360E+03  0.00000000000E+00 0. -1.
         -3    1    3    3    0  502 -0.31205868105E+03  0.17422051732E+03  0.15687355785E+03  0.39031105829E+03  0.00000000000E+00 0.  1.
         11    1    5    5    0    0  0.20714804606E+03  0.87109667243E+02  0.96848509839E+03  0.99421415848E+03  0.00000000000E+00 0.  1.
        -11    1    5    5    0    0  0.13312914420E+03  0.13297127270E+03  0.64511565668E+03  0.67199623428E+03  0.00000000000E+00 0. -1.
          2    1    6    6  503    0  0.29129602151E+02 -0.27145499895E+03  0.23198270471E+03  0.35826292784E+03  0.00000000000E+00 0.  1.
         -2    1    6    6    0  503  0.67382183336E+02 -0.14939047393E+03  0.20863206540E+03  0.26530211278E+03  0.00000000000E+00 0. -1.
<mgrwt>
<rscale>  0 0.16581559E+04</rscale>
<asrwt>0</asrwt>
<pdfrwt beam="1">  1        2 0.39511680E+00 0.16581559E+04</pdfrwt>
<pdfrwt beam="2">  1       -1 0.41175468E-01 0.16581559E+04</pdfrwt>
<totfact> 0.19986550E+01</totfact>
</mgrwt>
</event>
<event>
12    6  0.9533401E-008  0.2258164E+04  0.7818608E-02  0.8494602E-01
         -1   -1    0    0    0  501 -0.00000000000E+00  0.00000000000E+00  0.15100645101E+04  0.15100645101E+04  0.00000000000E+00 0.  1.
          2   -1    0    0  501    0  0.00000000000E+00 -0.00000000000E+00 -0.84421962097E+03  0.84421962097E+03  0.00000000000E+00 0. -1.
         24    2    1    2    0    0 -0.12594146936E+03 -0.15417142306E+03 -0.68661104315E+03  0.71946075003E+03  0.80987436417E+02 0.  0.
        254    2    1    2    0    0  0.12594146936E+03  0.15417142306E+03  0.13524559323E+04  0.16348233810E+04  0.89659375251E+03 0.  0.
         23    2    4    4    0    0 -0.55419753916E+02 -0.35175860869E+03  0.62875487646E+03  0.72842373146E+03  0.91994401818E+02 0.  0.
         23    2    4    4    0    0  0.18136122328E+03  0.50593003175E+03  0.72370105583E+03  0.90639964959E+03  0.94657362219E+02 0.  0.
          2    1    3    3  502    0 -0.41218154155E+02 -0.81397292012E+02 -0.19452441263E+03  0.21485856392E+03  0.00000000000E+00 0. -1.
         -1    1    3    3    0  502 -0.84723315208E+02 -0.72774131046E+02 -0.49208663052E+03  0.50460218611E+03  0.00000000000E+00 0.  1.
         11    1    5    5    0    0  0.25297259616E+02 -0.10877624180E+03  0.18442130791E+03  0.21560018770E+03  0.00000000000E+00 0. -1.
        -11    1    5    5    0    0 -0.80717013533E+02 -0.24298236689E+03  0.44433356855E+03  0.51282354376E+03  0.00000000000E+00 0.  1.
          1    1    6    6  503    0  0.62418264926E+02  0.85455444793E+02  0.10618764561E+03  0.14991493896E+03  0.00000000000E+00 0. -1.
         -1    1    6    6    0  503  0.11894295835E+03  0.42047458696E+03  0.61751341022E+03  0.75648471063E+03  0.00000000000E+00 0.  1.
<mgrwt>
<rscale>  0 0.22581639E+04</rscale>
<asrwt>0</asrwt>
<pdfrwt beam="1">  1        2 0.12987994E+00 0.22581639E+04</pdfrwt>
<pdfrwt beam="2">  1       -1 0.23231762E+00 0.22581639E+04</pdfrwt>
<totfact> 0.30288359E+00</totfact>
</mgrwt>
</event>
<event>
12    6  0.9533401E-008  0.2122500E+04  0.7818608E-02  0.8551396E-01
          2   -1    0    0  501    0  0.00000000000E+00  0.00000000000E+00  0.79889283784E+03  0.79889283784E+03  0.00000000000E+00 0. -1.
         -1   -1    0    0    0  501 -0.00000000000E+00 -0.00000000000E+00 -0.14097655781E+04  0.14097655781E+04  0.00000000000E+00 0.  1.
         24    2    1    2    0    0  0.38615569977E+03  0.17128908125E+03 -0.10198520431E+04  0.11068717890E+04  0.81306787067E+02 0.  0.
        254    2    1    2    0    0 -0.38615569977E+03 -0.17128908125E+03  0.40897930281E+03  0.11017866270E+04  0.93177976338E+03 0.  0.
         23    2    4    4    0    0  0.29280544115E+03 -0.12357064341E+03  0.19176977961E+03  0.38158280190E+03  0.88459346897E+02 0.  0.
         23    2    4    4    0    0 -0.67896114092E+03 -0.47718437840E+02  0.21720952320E+03  0.72020382508E+03  0.90820110676E+02 0.  0.
          4    1    3    3  502    0  0.14105299209E+03  0.87492191513E+02 -0.31737629794E+03  0.35815994283E+03  0.00000000000E+00 0. -1.
         -3    1    3    3    0  502  0.24510270768E+03  0.83796889739E+02 -0.70247574514E+03  0.74871184614E+03  0.00000000000E+00 0.  1.
         11    1    5    5    0    0  0.65854206315E+02 -0.86597509443E+00  0.70590438307E+02  0.96542925078E+02  0.00000000000E+00 0.  1.
        -11    1    5    5    0    0  0.22695123483E+03 -0.12270466832E+03  0.12117934131E+03  0.28503987682E+03  0.00000000000E+00 0. -1.
          1    1    6    6  503    0 -0.42648375213E+03 -0.62860406361E+02  0.10617371815E+03  0.44397373790E+03  0.00000000000E+00 0.  1.
         -1    1    6    6    0  503 -0.25247738879E+03  0.15141968521E+02  0.11103580505E+03  0.27623008718E+03  0.00000000000E+00 0. -1.
<mgrwt>
<rscale>  0 0.21225001E+04</rscale>
<asrwt>0</asrwt>
<pdfrwt beam="1">  1        2 0.12290659E+00 0.21225001E+04</pdfrwt>
<pdfrwt beam="2">  1       -1 0.21688701E+00 0.21225001E+04</pdfrwt>
<totfact> 0.41826041E+00</totfact>
</mgrwt>
</event>
<event>
12    6  0.9533401E-008  0.2688691E+04  0.7818608E-02  0.8338684E-01
         -1   -1    0    0    0  501 -0.00000000000E+00  0.00000000000E+00  0.21719800447E+04  0.21719800447E+04  0.00000000000E+00 0.  1.
          2   -1    0    0  501    0  0.00000000000E+00 -0.00000000000E+00 -0.83208180019E+03  0.83208180019E+03  0.00000000000E+00 0. -1.
         24    2    1    2    0    0  0.10371778605E+03 -0.77136078219E+03  0.16082644338E+04  0.17884451614E+04  0.79162938337E+02 0.  0.
        254    2    1    2    0    0 -0.10371778605E+03  0.77136078219E+03 -0.26836618931E+03  0.12156166835E+04  0.89439849852E+03 0.  0.
         23    2    4    4    0    0 -0.43035569388E+03  0.69396358413E+03 -0.28637732268E+03  0.86915711133E+03  0.81428704353E+02 0.  0.
         23    2    4    4    0    0  0.32663790782E+03  0.77397198062E+02  0.18011133371E+02  0.34645957215E+03  0.83828307330E+02 0.  0.
          2    1    3    3  502    0  0.19428263323E+02 -0.41175471879E+02  0.12527290370E+03  0.13328982445E+03  0.00000000000E+00 0. -1.
         -1    1    3    3    0  502  0.84289522728E+02 -0.73018531031E+03  0.14829915301E+04  0.16551553370E+04  0.00000000000E+00 0.  1.
         11    1    5    5    0    0 -0.25577926462E+03  0.48437226450E+03 -0.18507596461E+03  0.57818045237E+03  0.00000000000E+00 0.  1.
        -11    1    5    5    0    0 -0.17457642926E+03  0.20959131962E+03 -0.10130135808E+03  0.29097665896E+03  0.00000000000E+00 0. -1.
          3    1    6    6  503    0 -0.43571482643E+01  0.55406757067E+01 -0.14486573930E+01  0.71960014263E+01  0.00000000000E+00 0. -1.
         -3    1    6    6    0  503  0.33099505609E+03  0.71856522355E+02  0.19459790764E+02  0.33926357072E+03  0.00000000000E+00 0.  1.
<mgrwt>
<rscale>  0 0.26886912E+04</rscale>
<asrwt>0</asrwt>
<pdfrwt beam="1">  1        2 0.12801259E+00 0.26886912E+04</pdfrwt>
<pdfrwt beam="2">  1       -1 0.33415077E+00 0.26886912E+04</pdfrwt>
<totfact> 0.64679540E-01</totfact>
</mgrwt>
</event>
<event>
12    6  0.9533401E-008  0.5256957E+04  0.7818608E-02  0.7790047E-01
         -1   -1    0    0    0  501 -0.00000000000E+00  0.00000000000E+00  0.15738228723E+04  0.15738228723E+04  0.00000000000E+00 0.  1.
          2   -1    0    0  501    0  0.00000000000E+00 -0.00000000000E+00 -0.43898833355E+04  0.43898833355E+04  0.00000000000E+00 0. -1.
         24    2    1    2    0    0  0.17440942209E+04  0.18045056531E+04 -0.18254596771E+04  0.31043264367E+04  0.80214021462E+02 0.  0.
        254    2    1    2    0    0 -0.17440942209E+04 -0.18045056531E+04 -0.99060078601E+03  0.28593797711E+04  0.94691998309E+03 0.  0.
         23    2    4    4    0    0 -0.11183580074E+04 -0.54930892482E+03 -0.26266938753E+03  0.12765946849E+04  0.90740590057E+02 0.  0.
         23    2    4    4    0    0 -0.62573621352E+03 -0.12551967283E+04 -0.72793139848E+03  0.15827850862E+04  0.90883841075E+02 0.  0.
          2    1    3    3  502    0  0.80724534790E+03  0.87099212954E+03 -0.82486129818E+03  0.14459144175E+04  0.00000000000E+00 0. -1.
         -1    1    3    3    0  502  0.93684887301E+03  0.93351352358E+03 -0.10005983790E+04  0.16584120192E+04  0.00000000000E+00 0.  1.
         11    1    5    5    0    0 -0.45627955136E+03 -0.26624993605E+03 -0.86593943043E+02  0.53533033578E+03  0.00000000000E+00 0. -1.
        -11    1    5    5    0    0 -0.66207845603E+03 -0.28305898877E+03 -0.17607544449E+03  0.74126434908E+03  0.00000000000E+00 0.  1.
          2    1    6    6  503    0 -0.46367009964E+03 -0.10054458232E+04 -0.59123520142E+03  0.12551774090E+04  0.00000000000E+00 0. -1.
         -2    1    6    6    0  503 -0.16206611388E+03 -0.24975090513E+03 -0.13669619706E+03  0.32760767722E+03  0.00000000000E+00 0.  1.
<mgrwt>
<rscale>  0 0.52569568E+04</rscale>
<asrwt>0</asrwt>
<pdfrwt beam="1">  1        2 0.67536668E+00 0.52569568E+04</pdfrwt>
<pdfrwt beam="2">  1       -1 0.24212659E+00 0.52569568E+04</pdfrwt>
<totfact> 0.98790293E-03</totfact>
</mgrwt>
</event>
<event>
12    6  0.9533401E-008  0.1463059E+04  0.7818608E-02  0.8909397E-01
          4   -1    0    0  501    0  0.00000000000E+00  0.00000000000E+00  0.18484983025E+04  0.18484983025E+04  0.00000000000E+00 0. -1.
         -3   -1    0    0    0  501 -0.00000000000E+00 -0.00000000000E+00 -0.28949751830E+03  0.28949751830E+03  0.00000000000E+00 0.  1.
         24    2    1    2    0    0  0.44870068223E+03 -0.78261314122E+01  0.64337965650E+03  0.78830249232E+03  0.78037724497E+02 0.  0.
        254    2    1    2    0    0 -0.44870068223E+03  0.78261314122E+01  0.91562112765E+03  0.13496933284E+04  0.88426041461E+03 0.  0.
         23    2    4    4    0    0 -0.16514822536E+03 -0.41479564857E+03  0.56215749195E+03  0.72337170345E+03  0.88973081194E+02 0.  0.
         23    2    4    4    0    0 -0.28355245687E+03  0.42262177998E+03  0.35346363570E+03  0.62632162499E+03  0.91274703230E+02 0.  0.
          4    1    3    3  502    0  0.43192043340E+03  0.15269851254E+01  0.63340967543E+03  0.76665860029E+03  0.00000000000E+00 0. -1.
         -3    1    3    3    0  502  0.16780248836E+02 -0.93531165376E+01  0.99699810623E+01  0.21643892033E+02  0.00000000000E+00 0.  1.
         11    1    5    5    0    0 -0.13066204614E+03 -0.23549817899E+03  0.29130098379E+03  0.39672184937E+03  0.00000000000E+00 0.  1.
        -11    1    5    5    0    0 -0.34486179216E+02 -0.17929746958E+03  0.27085650816E+03  0.32664985408E+03  0.00000000000E+00 0. -1.
          4    1    6    6  503    0 -0.14706319268E+03  0.19035548884E+03  0.11535378583E+03  0.26677573105E+03  0.00000000000E+00 0. -1.
         -4    1    6    6    0  503 -0.13648926419E+03  0.23226629114E+03  0.23810984987E+03  0.35954589394E+03  0.00000000000E+00 0.  1.
<mgrwt>
<rscale>  0 0.14630594E+04</rscale>
<asrwt>0</asrwt>
<pdfrwt beam="1">  1        4 0.28438435E+00 0.14630594E+04</pdfrwt>
<pdfrwt beam="2">  1       -3 0.44538081E-01 0.14630594E+04</pdfrwt>
<totfact> 0.43150701E-01</totfact>
</mgrwt>
</event>
<event>
12    6  0.9533401E-008  0.1198593E+04  0.7818608E-02  0.9114089E-01
         -3   -1    0    0    0  501 -0.00000000000E+00  0.00000000000E+00  0.51804351345E+03  0.51804351345E+03  0.00000000000E+00 0.  1.
          4   -1    0    0  501    0  0.00000000000E+00 -0.00000000000E+00 -0.69329313855E+03  0.69329313855E+03  0.00000000000E+00 0. -1.
         24    2    1    2    0    0  0.14332002540E+00 -0.29245340174E+02  0.21363891165E+03  0.22996508108E+03  0.79918980740E+02 0.  0.
        254    2    1    2    0    0 -0.14332002540E+00  0.29245340174E+02 -0.38888853675E+03  0.98137157092E+03  0.90055569274E+03 0.  0.
         23    2    4    4    0    0 -0.97025616925E+02 -0.40394637875E+03 -0.29926078673E+03  0.52006306155E+03  0.91224570518E+02 0.  0.
         23    2    4    4    0    0  0.96882296899E+02  0.43319171893E+03 -0.89627750025E+02  0.46130850937E+03  0.87927029101E+02 0.  0.
          4    1    3    3  502    0 -0.36891215677E+02  0.11502420735E+01  0.10233096112E+03  0.10878377846E+03  0.00000000000E+00 0. -1.
         -3    1    3    3    0  502  0.37034535703E+02 -0.30395582247E+02  0.11130795052E+03  0.12118130262E+03  0.00000000000E+00 0.  1.
         11    1    5    5    0    0 -0.60956102466E+02 -0.13189246849E+03 -0.64721155506E+02  0.15906004414E+03  0.00000000000E+00 0.  1.
        -11    1    5    5    0    0 -0.36069514458E+02 -0.27205391026E+03 -0.23453963122E+03  0.36100301741E+03  0.00000000000E+00 0. -1.
          3    1    6    6  503    0  0.23610455443E+02  0.13055324492E+03  0.13347985013E+02  0.13334081172E+03  0.00000000000E+00 0. -1.
         -3    1    6    6    0  503  0.73271841456E+02  0.30263847401E+03 -0.10297573504E+03  0.32796769766E+03  0.00000000000E+00 0.  1.
<mgrwt>
<rscale>  0 0.11985925E+04</rscale>
<asrwt>0</asrwt>
<pdfrwt beam="1">  1        4 0.10666048E+00 0.11985925E+04</pdfrwt>
<pdfrwt beam="2">  1       -3 0.79699002E-01 0.11985925E+04</pdfrwt>
<totfact> 0.23372772E+00</totfact>
</mgrwt>
</event>
<event>
12    6  0.9533401E-008  0.1522740E+04  0.7818608E-02  0.8869470E-01
         -1   -1    0    0    0  501 -0.00000000000E+00  0.00000000000E+00  0.25139496759E+03  0.25139496759E+03  0.00000000000E+00 0.  1.
          2   -1    0    0  501    0  0.00000000000E+00 -0.00000000000E+00 -0.23058714925E+04  0.23058714925E+04  0.00000000000E+00 0. -1.
         24    2    1    2    0    0 -0.21588680108E+03  0.15108018612E+02 -0.14092230673E+04  0.14280550391E+04  0.81216857950E+02 0.  0.
        254    2    1    2    0    0  0.21588680108E+03 -0.15108018612E+02 -0.64525345761E+03  0.11292114211E+04  0.90107216458E+03 0.  0.
         23    2    4    4    0    0 -0.98687177454E+02  0.11136044477E+03  0.16885313403E+03  0.24266868328E+03  0.90754621486E+02 0.  0.
         23    2    4    4    0    0  0.31457397854E+03 -0.12646846338E+03 -0.81410659164E+03  0.88654273778E+03  0.90760250969E+02 0.  0.
          2    1    3    3  502    0 -0.12653791304E+03  0.37514480481E+02 -0.99486672559E+03  0.10035830715E+04  0.00000000000E+00 0. -1.
         -1    1    3    3    0  502 -0.89348888045E+02 -0.22406461869E+02 -0.41435634175E+03  0.42447196760E+03  0.00000000000E+00 0.  1.
         11    1    5    5    0    0 -0.89477501100E+02  0.11493286665E+03  0.17744947663E+03  0.22957374370E+03  0.00000000000E+00 0.  1.
        -11    1    5    5    0    0 -0.92096763543E+01 -0.35724218798E+01 -0.85963425994E+01  0.13094939585E+02  0.00000000000E+00 0. -1.
          4    1    6    6  503    0  0.27968071899E+03 -0.12231617839E+03 -0.77986195572E+03  0.83747669941E+03  0.00000000000E+00 0.  1.
         -4    1    6    6    0  503  0.34893259540E+02 -0.41522849876E+01 -0.34244635918E+02  0.49066038368E+02  0.00000000000E+00 0. -1.
<mgrwt>
<rscale>  0 0.15227403E+04</rscale>
<asrwt>0</asrwt>
<pdfrwt beam="1">  1        2 0.35474947E+00 0.15227403E+04</pdfrwt>
<pdfrwt beam="2">  1       -1 0.38676148E-01 0.15227403E+04</pdfrwt>
<totfact> 0.32060250E+01</totfact>
</mgrwt>
</event>
<event>
12    6  0.9533401E-008  0.1659372E+04  0.7818608E-02  0.8784882E-01
         -1   -1    0    0    0  501 -0.00000000000E+00  0.00000000000E+00  0.97822525798E+03  0.97822525798E+03  0.00000000000E+00 0.  1.
          2   -1    0    0  501    0  0.00000000000E+00 -0.00000000000E+00 -0.70370145104E+03  0.70370145104E+03  0.00000000000E+00 0. -1.
         24    2    1    2    0    0  0.52194654126E+03  0.15392116288E+03  0.29849189362E+03  0.62600009817E+03  0.81601446338E+02 0.  0.
        254    2    1    2    0    0 -0.52194654126E+03 -0.15392116288E+03 -0.23968086679E+02  0.10559266108E+04  0.90459196437E+03 0.  0.
         23    2    4    4    0    0 -0.36721512021E+03 -0.47140530827E+03  0.18976350483E+03  0.63366026850E+03  0.91897981088E+02 0.  0.
         23    2    4    4    0    0 -0.15473142105E+03  0.31748414540E+03 -0.21373159151E+03  0.42226634235E+03  0.88823844969E+02 0.  0.
          2    1    3    3  502    0  0.33015976287E+02  0.27941133397E+02  0.39380619596E+02  0.58494399950E+02  0.00000000000E+00 0. -1.
         -1    1    3    3    0  502  0.48893056497E+03  0.12598002948E+03  0.25911127402E+03  0.56750569822E+03  0.00000000000E+00 0.  1.
         11    1    5    5    0    0 -0.10855641900E+03 -0.20971806037E+03  0.61850181986E+02  0.24411392005E+03  0.00000000000E+00 0. -1.
        -11    1    5    5    0    0 -0.25865870121E+03 -0.26168724790E+03  0.12791332284E+03  0.38954634845E+03  0.00000000000E+00 0.  1.
          4    1    6    6  503    0  0.81678964002E+01  0.47261492695E+02 -0.19668925269E+02  0.51838497708E+02  0.00000000000E+00 0. -1.
         -4    1    6    6    0  503 -0.16289931745E+03  0.27022265270E+03 -0.19406266624E+03  0.37042784464E+03  0.00000000000E+00 0.  1.
<mgrwt>
<rscale>  0 0.16593716E+04</rscale>
<asrwt>0</asrwt>
<pdfrwt beam="1">  1        2 0.10826176E+00 0.16593716E+04</pdfrwt>
<pdfrwt beam="2">  1       -1 0.15049620E+00 0.16593716E+04</pdfrwt>
<totfact> 0.15343278E+01</totfact>
</mgrwt>
</event>
<event>
12    6  0.9533401E-008  0.1475874E+04  0.7818608E-02  0.8900657E-01
          2   -1    0    0  501    0  0.00000000000E+00  0.00000000000E+00  0.45251026274E+03  0.45251026274E+03  0.00000000000E+00 0. -1.
         -1   -1    0    0    0  501 -0.00000000000E+00 -0.00000000000E+00 -0.12034006704E+04  0.12034006704E+04  0.00000000000E+00 0.  1.
         24    2    1    2    0    0  0.10133912196E+03 -0.12796042771E+03 -0.73157645262E+03  0.75363120032E+03  0.78181784057E+02 0.  0.
        254    2    1    2    0    0 -0.10133912196E+03  0.12796042771E+03 -0.19313955079E+02  0.90227973286E+03  0.88718216775E+03 0.  0.
         23    2    4    4    0    0 -0.18335940432E+03  0.30357248843E+03 -0.35116440338E+03  0.50714678787E+03  0.90024992972E+02 0.  0.
         23    2    4    4    0    0  0.82020282363E+02 -0.17561206072E+03  0.33185044830E+03  0.39513294498E+03  0.91860772810E+02 0.  0.
          4    1    3    3  502    0  0.72255667715E+02 -0.71627087251E+02 -0.28580468682E+03  0.30337376313E+03  0.00000000000E+00 0. -1.
         -3    1    3    3    0  502  0.29083454246E+02 -0.56333340461E+02 -0.44577176580E+03  0.45025743719E+03  0.00000000000E+00 0.  1.
         11    1    5    5    0    0 -0.16969924158E+03  0.20383554707E+03 -0.25421010518E+03  0.36738200884E+03  0.00000000000E+00 0. -1.
        -11    1    5    5    0    0 -0.13660162744E+02  0.99736941367E+02 -0.96954298200E+02  0.13976477904E+03  0.00000000000E+00 0.  1.
          2    1    6    6  503    0  0.10121191216E+03 -0.14394917054E+03  0.29039568877E+03  0.33955098427E+03  0.00000000000E+00 0. -1.
         -2    1    6    6    0  503 -0.19191629795E+02 -0.31662890177E+02  0.41454759536E+02  0.55581960713E+02  0.00000000000E+00 0.  1.
<mgrwt>
<rscale>  0 0.14758742E+04</rscale>
<asrwt>0</asrwt>
<pdfrwt beam="1">  1        2 0.69616964E-01 0.14758742E+04</pdfrwt>
<pdfrwt beam="2">  1       -1 0.18513856E+00 0.14758742E+04</pdfrwt>
<totfact> 0.14627411E+01</totfact>
</mgrwt>
</event>
<event>
12    6  0.9533401E-008  0.1819690E+04  0.7818608E-02  0.8695898E-01
          2   -1    0    0  501    0  0.00000000000E+00  0.00000000000E+00  0.10508948785E+04  0.10508948785E+04  0.00000000000E+00 0. -1.
         -1   -1    0    0    0  501 -0.00000000000E+00 -0.00000000000E+00 -0.78772660361E+03  0.78772660361E+03  0.00000000000E+00 0.  1.
         24    2    1    2    0    0 -0.62417117625E+02 -0.13034288688E+02 -0.59759870044E+03  0.60609822769E+03  0.78517931626E+02 0.  0.
        254    2    1    2    0    0  0.62417117625E+02  0.13034288688E+02  0.86076697534E+03  0.12325232544E+04  0.87984543962E+03 0.  0.
         23    2    4    4    0    0  0.35166079839E+03 -0.41709399777E+02  0.54350200822E+02  0.36943232401E+03  0.90118291904E+02 0.  0.
         23    2    4    4    0    0 -0.28924368077E+03  0.54743688465E+02  0.80641677452E+03  0.86309093042E+03  0.89214133765E+02 0.  0.
          2    1    3    3  502    0  0.94406809237E+01  0.15636751850E+02 -0.53627381863E+02  0.56652718824E+02  0.00000000000E+00 0. -1.
         -1    1    3    3    0  502 -0.71857798548E+02 -0.28671040538E+02 -0.54397131858E+03  0.54944550887E+03  0.00000000000E+00 0.  1.
         11    1    5    5    0    0  0.88025745754E+02  0.12114535273E+02  0.46401361023E+02  0.10024160905E+03  0.00000000000E+00 0. -1.
        -11    1    5    5    0    0  0.26363505264E+03 -0.53823935050E+02  0.79488397991E+01  0.26919071496E+03  0.00000000000E+00 0.  1.
          3    1    6    6  503    0 -0.25906903227E+03  0.42786945643E+02  0.61152714633E+03  0.66551704478E+03  0.00000000000E+00 0. -1.
         -3    1    6    6    0  503 -0.30174648494E+02  0.11956742822E+02  0.19488962819E+03  0.19757388564E+03  0.00000000000E+00 0.  1.
<mgrwt>
<rscale>  0 0.18196899E+04</rscale>
<asrwt>0</asrwt>
<pdfrwt beam="1">  1        2 0.16167614E+00 0.18196899E+04</pdfrwt>
<pdfrwt beam="2">  1       -1 0.12118871E+00 0.18196899E+04</pdfrwt>
<totfact> 0.15190604E+01</totfact>
</mgrwt>
</event>
<event>
12    6  0.9533401E-008  0.3160436E+04  0.7818608E-02  0.8199345E-01
          2   -1    0    0  501    0  0.00000000000E+00  0.00000000000E+00  0.28868696061E+04  0.28868696061E+04  0.00000000000E+00 0. -1.
         -1   -1    0    0    0  501 -0.00000000000E+00 -0.00000000000E+00 -0.86498173364E+03  0.86498173364E+03  0.00000000000E+00 0.  1.
         24    2    1    2    0    0  0.14153584119E+04  0.21711836640E+03  0.11402541032E+04  0.18323338634E+04  0.82994867156E+02 0.  0.
        254    2    1    2    0    0 -0.14153584119E+04 -0.21711836640E+03  0.88163376927E+03  0.19195174763E+04  0.92568321777E+03 0.  0.
         23    2    4    4    0    0 -0.18953165929E+03 -0.70252303838E+02  0.61455612543E+03  0.65294393136E+03  0.88311438291E+02 0.  0.
         23    2    4    4    0    0 -0.12258267526E+04 -0.14686606257E+03  0.26707764384E+03  0.12665735450E+04  0.93044125112E+02 0.  0.
          2    1    3    3  502    0  0.63417222993E+03  0.56217289248E+02  0.51543469245E+03  0.81915061070E+03  0.00000000000E+00 0. -1.
         -1    1    3    3    0  502  0.78118618198E+03  0.16090107716E+03  0.62481941077E+03  0.10131832527E+04  0.00000000000E+00 0.  1.
         11    1    5    5    0    0 -0.45345762853E+02  0.14970794840E+02  0.20448727244E+03  0.20998906518E+03  0.00000000000E+00 0. -1.
        -11    1    5    5    0    0 -0.14418589644E+03 -0.85223098678E+02  0.41006885299E+03  0.44295486618E+03  0.00000000000E+00 0.  1.
          4    1    6    6  503    0 -0.18414842735E+02 -0.72762797410E+01  0.16001763343E+02  0.25457947873E+02  0.00000000000E+00 0.  1.
         -4    1    6    6    0  503 -0.12074119099E+04 -0.13958978283E+03  0.25107588050E+03  0.12411155971E+04  0.00000000000E+00 0. -1.
<mgrwt>
<rscale>  0 0.31604363E+04</rscale>
<asrwt>0</asrwt>
<pdfrwt beam="1">  1        2 0.44413378E+00 0.31604363E+04</pdfrwt>
<pdfrwt beam="2">  1       -1 0.13307411E+00 0.31604363E+04</pdfrwt>
<totfact> 0.93822416E-01</totfact>
</mgrwt>
</event>
<event>
12    6  0.9533401E-008  0.2617773E+04  0.7818608E-02  0.8362189E-01
          2   -1    0    0  501    0  0.00000000000E+00  0.00000000000E+00  0.30350009544E+04  0.30350009544E+04  0.00000000000E+00 0. -1.
         -1   -1    0    0    0  501 -0.00000000000E+00 -0.00000000000E+00 -0.56447554680E+03  0.56447554680E+03  0.00000000000E+00 0.  1.
         24    2    1    2    0    0  0.41791828032E+03 -0.74119602806E+03  0.10803328359E+02  0.85464025628E+03  0.79158162688E+02 0.  0.
        254    2    1    2    0    0 -0.41791828032E+03  0.74119602806E+03  0.24597220793E+04  0.27448362450E+04  0.87170296732E+03 0.  0.
         23    2    4    4    0    0 -0.93744401560E+02  0.11794366230E+03  0.16900261477E+04  0.16986837643E+04  0.81482704402E+02 0.  0.
         23    2    4    4    0    0 -0.32417387876E+03  0.62325236576E+03  0.76969593164E+03  0.10461524806E+04  0.92037875171E+02 0.  0.
          4    1    3    3  502    0  0.10632979765E+02 -0.15029193251E+02  0.12140930555E+02  0.22053097361E+02  0.00000000000E+00 0. -1.
         -3    1    3    3    0  502  0.40728530056E+03 -0.72616683481E+03 -0.13376021957E+01  0.83258715892E+03  0.00000000000E+00 0.  1.
         11    1    5    5    0    0 -0.24053750882E+01 -0.12054023503E+02  0.10628625624E+03  0.10699464275E+03  0.00000000000E+00 0.  1.
        -11    1    5    5    0    0 -0.91339026472E+02  0.12999768580E+03  0.15837398914E+04  0.15916891216E+04  0.00000000000E+00 0. -1.
          2    1    6    6  503    0 -0.29181803782E+03  0.52566283493E+03  0.69558972299E+03  0.91941516518E+03  0.00000000000E+00 0. -1.
         -2    1    6    6    0  503 -0.32355840943E+02  0.97589530826E+02  0.74106208649E+02  0.12673731546E+03  0.00000000000E+00 0.  1.
<mgrwt>
<rscale>  0 0.26177730E+04</rscale>
<asrwt>0</asrwt>
<pdfrwt beam="1">  1        2 0.46692321E+00 0.26177730E+04</pdfrwt>
<pdfrwt beam="2">  1       -1 0.86842394E-01 0.26177730E+04</pdfrwt>
<totfact> 0.21713942E+00</totfact>
</mgrwt>
</event>
<event>
12    6  0.9533401E-008  0.2049198E+04  0.7818608E-02  0.8583958E-01
         -1   -1    0    0    0  501 -0.00000000000E+00  0.00000000000E+00  0.21273872709E+03  0.21273872709E+03  0.00000000000E+00 0.  1.
          2   -1    0    0  501    0  0.00000000000E+00 -0.00000000000E+00 -0.49347060432E+04  0.49347060432E+04  0.00000000000E+00 0. -1.
         24    2    1    2    0    0 -0.26144605188E+03  0.76881947114E+03 -0.22282766481E+04  0.23731847404E+04  0.85741321388E+02 0.  0.
        254    2    1    2    0    0  0.26144605188E+03 -0.76881947114E+03 -0.24936906680E+04  0.27742600299E+04  0.90475861348E+03 0.  0.
         23    2    4    4    0    0 -0.18168206583E+03 -0.57668624032E+03 -0.77788247795E+03  0.98945238722E+03  0.91320776754E+02 0.  0.
         23    2    4    4    0    0  0.44312811772E+03 -0.19213323082E+03 -0.17158081900E+04  0.17848076426E+04  0.90900326037E+02 0.  0.
          4    1    3    3  502    0 -0.77040163710E+02  0.19364787511E+03 -0.47257890370E+03  0.51649347197E+03  0.00000000000E+00 0. -1.
         -3    1    3    3    0  502 -0.18440588817E+03  0.57517159603E+03 -0.17556977444E+04  0.18566912684E+04  0.00000000000E+00 0.  1.
         11    1    5    5    0    0  0.71273077846E+01 -0.72711975005E+02 -0.84141003672E+02  0.11143400883E+03  0.00000000000E+00 0. -1.
        -11    1    5    5    0    0 -0.18880937362E+03 -0.50397426531E+03 -0.69374147427E+03  0.87801837839E+03  0.00000000000E+00 0.  1.
          2    1    6    6  503    0  0.19718562924E+01 -0.14866413846E+02 -0.76057225969E+02  0.77521610535E+02  0.00000000000E+00 0. -1.
         -2    1    6    6    0  503  0.44115626142E+03 -0.17726681698E+03 -0.16397509640E+04  0.17072860321E+04  0.00000000000E+00 0.  1.
<mgrwt>
<rscale>  0 0.20491980E+04</rscale>
<asrwt>0</asrwt>
<pdfrwt beam="1">  1        2 0.75918556E+00 0.20491980E+04</pdfrwt>
<pdfrwt beam="2">  1       -1 0.32729034E-01 0.20491980E+04</pdfrwt>
<totfact> 0.38973268E-01</totfact>
</mgrwt>
</event>
<event>
12    6  0.9533401E-008  0.1274939E+04  0.7818608E-02  0.9049678E-01
          2   -1    0    0  501    0  0.00000000000E+00  0.00000000000E+00  0.26597239377E+03  0.26597239377E+03  0.00000000000E+00 0. -1.
         -1   -1    0    0    0  501 -0.00000000000E+00 -0.00000000000E+00 -0.15278561852E+04  0.15278561852E+04  0.00000000000E+00 0.  1.
         24    2    1    2    0    0  0.14952533321E+03 -0.12281856808E+03 -0.63876316776E+03  0.67226714064E+03  0.80513961214E+02 0.  0.
        254    2    1    2    0    0 -0.14952533321E+03  0.12281856808E+03 -0.62312062364E+03  0.11215614383E+04  0.91223819387E+03 0.  0.
         23    2    4    4    0    0 -0.16403305563E+02 -0.34080521640E+03 -0.35998580905E+02  0.35601695195E+03  0.95052134612E+02 0.  0.
         23    2    4    4    0    0 -0.13312202765E+03  0.46362378448E+03 -0.58712204274E+03  0.76554448635E+03  0.93153527787E+02 0.  0.
          2    1    3    3  502    0  0.90360326762E+00 -0.60657820678E+01 -0.23057302761E-02  0.61327168756E+01  0.00000000000E+00 0. -1.
         -1    1    3    3    0  502  0.14862172995E+03 -0.11675278601E+03 -0.63876086203E+03  0.66613442376E+03  0.00000000000E+00 0.  1.
         11    1    5    5    0    0 -0.46313797159E+02 -0.29331634431E+03 -0.19832864770E+02  0.29761180785E+03  0.00000000000E+00 0. -1.
        -11    1    5    5    0    0  0.29910491596E+02 -0.47488872087E+02 -0.16165716135E+02  0.58405144104E+02  0.00000000000E+00 0.  1.
          3    1    6    6  503    0 -0.85544536158E+02  0.27751340462E+03 -0.28068574565E+03  0.40387627465E+03  0.00000000000E+00 0. -1.
         -3    1    6    6    0  503 -0.47577491492E+02  0.18611037985E+03 -0.30643629708E+03  0.36166821170E+03  0.00000000000E+00 0.  1.
<mgrwt>
<rscale>  0 0.12749393E+04</rscale>
<asrwt>0</asrwt>
<pdfrwt beam="1">  1        2 0.40918831E-01 0.12749393E+04</pdfrwt>
<pdfrwt beam="2">  1       -1 0.23505479E+00 0.12749393E+04</pdfrwt>
<totfact> 0.12363364E+01</totfact>
</mgrwt>
</event>
<event>
12    6  0.9533401E-008  0.3484155E+04  0.7818608E-02  0.8117555E-01
         -1   -1    0    0    0  501 -0.00000000000E+00  0.00000000000E+00  0.15072927591E+04  0.15072927591E+04  0.00000000000E+00 0.  1.
          2   -1    0    0  501    0  0.00000000000E+00 -0.00000000000E+00 -0.20134338992E+04  0.20134338992E+04  0.00000000000E+00 0. -1.
         24    2    1    2    0    0 -0.12923481604E+04  0.71823687486E+03 -0.92291905337E+03  0.17445156942E+04  0.74346837149E+02 0.  0.
        254    2    1    2    0    0  0.12923481604E+04 -0.71823687486E+03  0.41677791329E+03  0.17762109640E+04  0.89173627473E+03 0.  0.
         23    2    4    4    0    0 -0.63900324509E+02 -0.22612711236E+03  0.18209595346E+03  0.31156199377E+03  0.93248148945E+02 0.  0.
         23    2    4    4    0    0  0.13562484849E+04 -0.49210976250E+03  0.23468195982E+03  0.14646489702E+04  0.92406778255E+02 0.  0.
          4    1    3    3  502    0 -0.76872656701E+02  0.62181397321E+02 -0.70426952213E+02  0.12139146230E+03  0.00000000000E+00 0. -1.
         -3    1    3    3    0  502 -0.12154755037E+04  0.65605547754E+03 -0.85249210115E+03  0.16231242319E+04  0.00000000000E+00 0.  1.
         11    1    5    5    0    0 -0.75734497408E+02 -0.22665148588E+03  0.16362896256E+03  0.28962224973E+03  0.00000000000E+00 0. -1.
        -11    1    5    5    0    0  0.11834172899E+02  0.52437352251E+00  0.18466990903E+02  0.21939744046E+02  0.00000000000E+00 0.  1.
          1    1    6    6  503    0  0.13555536837E+04 -0.48823549513E+03  0.23088582437E+03  0.14591805755E+04  0.00000000000E+00 0. -1.
         -1    1    6    6    0  503  0.69480117639E+00 -0.38742673657E+01  0.37961354541E+01  0.54683947078E+01  0.00000000000E+00 0.  1.
<mgrwt>
<rscale>  0 0.34841552E+04</rscale>
<asrwt>0</asrwt>
<pdfrwt beam="1">  1        2 0.30975906E+00 0.34841552E+04</pdfrwt>
<pdfrwt beam="2">  1       -1 0.23189120E+00 0.34841552E+04</pdfrwt>
<totfact> 0.56362837E-01</totfact>
</mgrwt>
</event>
<event>
12    6  0.9533401E-008  0.3250685E+04  0.7818608E-02  0.8175558E-01
          2   -1    0    0  501    0  0.00000000000E+00  0.00000000000E+00  0.38752407145E+04  0.38752407145E+04  0.00000000000E+00 0. -1.
         -1   -1    0    0    0  501 -0.00000000000E+00 -0.00000000000E+00 -0.68169655801E+03  0.68169655801E+03  0.00000000000E+00 0.  1.
         24    2    1    2    0    0 -0.12857298575E+04 -0.16268635206E+03  0.45330982808E+03  0.13753438876E+04  0.80702497806E+02 0.  0.
        254    2    1    2    0    0  0.12857298575E+04  0.16268635206E+03  0.27402343284E+04  0.31815933850E+04  0.96648030341E+03 0.  0.
         23    2    4    4    0    0  0.34084466656E+03 -0.13016403280E+03  0.17084428922E+04  0.17493367404E+04  0.91017322736E+02 0.  0.
         23    2    4    4    0    0  0.94488519097E+03  0.29285038486E+03  0.10317914362E+04  0.14322566446E+04  0.90532624726E+02 0.  0.
          4    1    3    3  502    0 -0.24608731082E+03 -0.37540101209E+02  0.54552670615E+02  0.25484155395E+03  0.00000000000E+00 0. -1.
         -3    1    3    3    0  502 -0.10396425467E+04 -0.12514625086E+03  0.39875715746E+03  0.11205023336E+04  0.00000000000E+00 0.  1.
         11    1    5    5    0    0  0.13376558516E+03 -0.60575914271E+02  0.89986588832E+03  0.91176822171E+03  0.00000000000E+00 0. -1.
        -11    1    5    5    0    0  0.20707908140E+03 -0.69588118528E+02  0.80857700393E+03  0.83756851867E+03  0.00000000000E+00 0.  1.
          4    1    6    6  503    0  0.37339328108E+03  0.16232899485E+03  0.42388222024E+03  0.58774942073E+03  0.00000000000E+00 0.  1.
         -4    1    6    6    0  503  0.57149190989E+03  0.13052139001E+03  0.60790921594E+03  0.84450722385E+03  0.00000000000E+00 0. -1.
<mgrwt>
<rscale>  0 0.32506850E+04</rscale>
<asrwt>0</asrwt>
<pdfrwt beam="1">  1        2 0.59619087E+00 0.32506850E+04</pdfrwt>
<pdfrwt beam="2">  1       -1 0.10487640E+00 0.32506850E+04</pdfrwt>
<totfact> 0.34874547E-01</totfact>
</mgrwt>
</event>
<event>
12    6  0.9533401E-008  0.1253193E+04  0.7818608E-02  0.9067530E-01
         -1   -1    0    0    0  501 -0.00000000000E+00  0.00000000000E+00  0.17119789984E+03  0.17119789984E+03  0.00000000000E+00 0.  1.
          2   -1    0    0  501    0  0.00000000000E+00 -0.00000000000E+00 -0.22933879632E+04  0.22933879632E+04  0.00000000000E+00 0. -1.
         24    2    1    2    0    0 -0.12907913966E+03  0.57220532796E+02 -0.10007374093E+02  0.16340470495E+03  0.81641511471E+02 0.  0.
        254    2    1    2    0    0  0.12907913966E+03 -0.57220532796E+02 -0.21121826893E+04  0.23011811581E+04  0.90232111568E+03 0.  0.
         23    2    4    4    0    0  0.11015704682E+03  0.33867337178E+03 -0.16258040299E+04  0.16669413725E+04  0.92847013592E+02 0.  0.
         23    2    4    4    0    0  0.18922092838E+02 -0.39589390458E+03 -0.48637865935E+03  0.63423978558E+03  0.92767861171E+02 0.  0.
          4    1    3    3  502    0  0.11346223506E+02  0.83473812787E+01 -0.37930073005E+01  0.14587750561E+02  0.00000000000E+00 0. -1.
         -3    1    3    3    0  502 -0.14042536317E+03  0.48873151517E+02 -0.62143667923E+01  0.14881695439E+03  0.00000000000E+00 0.  1.
         11    1    5    5    0    0  0.21844986105E+02  0.46720637971E+02 -0.42010714371E+03  0.42326118843E+03  0.00000000000E+00 0. -1.
        -11    1    5    5    0    0  0.88312060717E+02  0.29195273381E+03 -0.12056968862E+04  0.12436801841E+04  0.00000000000E+00 0.  1.
          3    1    6    6  503    0  0.17436079819E+02 -0.11343107171E+03 -0.82305993598E+02  0.14122641924E+03  0.00000000000E+00 0. -1.
         -3    1    6    6    0  503  0.14860130195E+01 -0.28246283286E+03 -0.40407266575E+03  0.49301336634E+03  0.00000000000E+00 0.  1.
<mgrwt>
<rscale>  0 0.12531930E+04</rscale>
<asrwt>0</asrwt>
<pdfrwt beam="1">  1        2 0.35282892E+00 0.12531930E+04</pdfrwt>
<pdfrwt beam="2">  1       -1 0.26338138E-01 0.12531930E+04</pdfrwt>
<totfact> 0.65790228E+01</totfact>
</mgrwt>
</event>
<event>
12    6  0.9533401E-008  0.2019188E+04  0.7818608E-02  0.8597702E-01
          2   -1    0    0  501    0  0.00000000000E+00  0.00000000000E+00  0.25323866986E+04  0.25323866986E+04  0.00000000000E+00 0. -1.
         -1   -1    0    0    0  501 -0.00000000000E+00 -0.00000000000E+00 -0.40249774578E+03  0.40249774578E+03  0.00000000000E+00 0.  1.
         24    2    1    2    0    0  0.68330227136E+03  0.19238990742E+03  0.29917048550E+03  0.77445941257E+03  0.79803081403E+02 0.  0.
        254    2    1    2    0    0 -0.68330227136E+03 -0.19238990742E+03  0.18307184673E+04  0.21604250318E+04  0.90110506655E+03 0.  0.
         23    2    4    4    0    0 -0.37574255799E+03 -0.54380175380E+03  0.11670849869E+04  0.13438906261E+04  0.83975180455E+02 0.  0.
         23    2    4    4    0    0 -0.30755971337E+03  0.35141184637E+03  0.66363348041E+03  0.81653440571E+03  0.90751178096E+02 0.  0.
          4    1    3    3  502    0  0.21947074026E+03  0.29156611667E+02  0.72079856775E+02  0.23283689482E+03  0.00000000000E+00 0. -1.
         -3    1    3    3    0  502  0.46383153110E+03  0.16323329575E+03  0.22709062872E+03  0.54162251775E+03  0.00000000000E+00 0.  1.
         11    1    5    5    0    0 -0.33403002978E+03 -0.51998287718E+03  0.10732744897E+04  0.12384976316E+04  0.00000000000E+00 0.  1.
        -11    1    5    5    0    0 -0.41712528205E+02 -0.23818876611E+02  0.93810497195E+02  0.10539299444E+03  0.00000000000E+00 0. -1.
          2    1    6    6  503    0 -0.67430907254E+02  0.35006527378E+02  0.14007224562E+03  0.15935061407E+03  0.00000000000E+00 0. -1.
         -2    1    6    6    0  503 -0.24012880612E+03  0.31640531900E+03  0.52356123479E+03  0.65718379164E+03  0.00000000000E+00 0.  1.
<mgrwt>
<rscale>  0 0.20191879E+04</rscale>
<asrwt>0</asrwt>
<pdfrwt beam="1">  1        2 0.38959794E+00 0.20191879E+04</pdfrwt>
<pdfrwt beam="2">  1       -1 0.61922732E-01 0.20191879E+04</pdfrwt>
<totfact> 0.93158420E+00</totfact>
</mgrwt>
</event>
<event>
12    6  0.9533401E-008  0.2876692E+04  0.7818608E-02  0.8279846E-01
          2   -1    0    0  501    0  0.00000000000E+00  0.00000000000E+00  0.10470845238E+04  0.10470845238E+04  0.00000000000E+00 0. -1.
         -1   -1    0    0    0  501 -0.00000000000E+00 -0.00000000000E+00 -0.19758095367E+04  0.19758095367E+04  0.00000000000E+00 0.  1.
         24    2    1    2    0    0 -0.11509285011E+03  0.69498015018E+03  0.72933605555E+03  0.10168872710E+04  0.76712885506E+02 0.  0.
        254    2    1    2    0    0  0.11509285011E+03 -0.69498015018E+03 -0.16580610685E+04  0.20060067894E+04  0.88241314532E+03 0.  0.
         23    2    4    4    0    0  0.98517745723E+02  0.14180289819E+03 -0.73059207890E+02  0.21127087679E+03  0.97385457668E+02 0.  0.
         23    2    4    4    0    0  0.16575104383E+02 -0.83678304836E+03 -0.15850018606E+04  0.17947359126E+04  0.91463073596E+02 0.  0.
          2    1    3    3  502    0 -0.10425114065E+03  0.64918517860E+03  0.64946677712E+03  0.92418439233E+03  0.00000000000E+00 0. -1.
         -1    1    3    3    0  502 -0.10841709456E+02  0.45794971582E+02  0.79869278429E+02  0.92702878719E+02  0.00000000000E+00 0.  1.
         11    1    5    5    0    0  0.53008121725E+02  0.99474519937E+01 -0.42021477291E+02  0.68371173193E+02  0.00000000000E+00 0. -1.
        -11    1    5    5    0    0  0.45509623997E+02  0.13185544619E+03 -0.31037730599E+02  0.14289970360E+03  0.00000000000E+00 0.  1.
          4    1    6    6  503    0 -0.10379414018E+02 -0.76644441952E+03 -0.14355966961E+04  0.16274159438E+04  0.00000000000E+00 0.  1.
         -4    1    6    6    0  503  0.26954518400E+02 -0.70338628847E+02 -0.14940516450E+03  0.16731996877E+03  0.00000000000E+00 0. -1.
<mgrwt>
<rscale>  0 0.28766923E+04</rscale>
<asrwt>0</asrwt>
<pdfrwt beam="1">  1        2 0.16108993E+00 0.28766923E+04</pdfrwt>
<pdfrwt beam="2">  1       -1 0.30397069E+00 0.28766923E+04</pdfrwt>
<totfact> 0.72092037E-01</totfact>
</mgrwt>
</event>
<event>
12    6  0.9533401E-008  0.1258278E+04  0.7818608E-02  0.9063322E-01
          2   -1    0    0  501    0  0.00000000000E+00  0.00000000000E+00  0.15774771509E+04  0.15774771509E+04  0.00000000000E+00 0. -1.
         -1   -1    0    0    0  501 -0.00000000000E+00 -0.00000000000E+00 -0.25091700152E+03  0.25091700152E+03  0.00000000000E+00 0.  1.
         24    2    1    2    0    0 -0.11326199638E+03 -0.24188437693E+03  0.13584422778E+03  0.31036317755E+03  0.80841302137E+02 0.  0.
        254    2    1    2    0    0  0.11326199638E+03  0.24188437693E+03  0.11907159216E+04  0.15180309749E+04  0.90292707519E+03 0.  0.
         23    2    4    4    0    0  0.49963575937E+03  0.12761803497E+03  0.57835613387E+03  0.77959455524E+03  0.85729796978E+02 0.  0.
         23    2    4    4    0    0 -0.38637376299E+03  0.11426634196E+03  0.61235978777E+03  0.73843641966E+03  0.89232026619E+02 0.  0.
          2    1    3    3  502    0 -0.54426351863E+02 -0.80486319712E+02  0.90293046791E+02  0.13263902042E+03  0.00000000000E+00 0. -1.
         -1    1    3    3    0  502 -0.58835644516E+02 -0.16139805722E+03  0.45551180986E+02  0.17772415714E+03  0.00000000000E+00 0.  1.
         11    1    5    5    0    0  0.27219730115E+03  0.59980996615E+02  0.24959522699E+03  0.37414818995E+03  0.00000000000E+00 0. -1.
        -11    1    5    5    0    0  0.22743845822E+03  0.67637038356E+02  0.32876090688E+03  0.40544636529E+03  0.00000000000E+00 0.  1.
          1    1    6    6  503    0 -0.11818748617E+03  0.12235397367E+01  0.22226301795E+03  0.25173523410E+03  0.00000000000E+00 0. -1.
         -1    1    6    6    0  503 -0.26818627682E+03  0.11304280223E+03  0.39009676982E+03  0.48670118557E+03  0.00000000000E+00 0.  1.
<mgrwt>
<rscale>  0 0.12582779E+04</rscale>
<asrwt>0</asrwt>
<pdfrwt beam="1">  1        2 0.24268879E+00 0.12582779E+04</pdfrwt>
<pdfrwt beam="2">  1       -1 0.38602617E-01 0.12582779E+04</pdfrwt>
<totfact> 0.83548195E+01</totfact>
</mgrwt>
</event>
<event>
12    6  0.9533401E-008  0.2949402E+04  0.7818608E-02  0.8258329E-01
          2   -1    0    0  501    0  0.00000000000E+00  0.00000000000E+00  0.18493808598E+04  0.18493808598E+04  0.00000000000E+00 0. -1.
         -1   -1    0    0    0  501 -0.00000000000E+00 -0.00000000000E+00 -0.11759305884E+04  0.11759305884E+04  0.00000000000E+00 0.  1.
         24    2    1    2    0    0 -0.10517111241E+03 -0.12161023161E+04  0.85829319093E+03  0.14943628217E+04  0.80543373946E+02 0.  0.
        254    2    1    2    0    0  0.10517111241E+03  0.12161023161E+04 -0.18484291948E+03  0.15309486265E+04  0.90535682802E+03 0.  0.
         23    2    4    4    0    0  0.82526779142E+02  0.10102974976E+04 -0.50725433791E+03  0.11371604380E+04  0.91187694331E+02 0.  0.
         23    2    4    4    0    0  0.22644333272E+02  0.20580481850E+03  0.32241141843E+03  0.39378818847E+03  0.90838458266E+02 0.  0.
          2    1    3    3  502    0 -0.41743872333E+02 -0.83617799549E+03  0.56106824524E+03  0.10078361806E+04  0.00000000000E+00 0. -1.
         -1    1    3    3    0  502 -0.63427240081E+02 -0.37992432060E+03  0.29722494569E+03  0.48652664111E+03  0.00000000000E+00 0.  1.
         11    1    5    5    0    0  0.19696143128E+02  0.59456557577E+02 -0.14112551700E+02  0.64204239802E+02  0.00000000000E+00 0.  1.
        -11    1    5    5    0    0  0.62830636014E+02  0.95084094002E+03 -0.49314178621E+03  0.10729561982E+04  0.00000000000E+00 0. -1.
          2    1    6    6  503    0 -0.18223504259E+02  0.15978337854E+03  0.26281847926E+03  0.30811747306E+03  0.00000000000E+00 0. -1.
         -2    1    6    6    0  503  0.40867837530E+02  0.46021439963E+02  0.59592939171E+02  0.85670715415E+02  0.00000000000E+00 0.  1.
<mgrwt>
<rscale>  0 0.29494023E+04</rscale>
<asrwt>0</asrwt>
<pdfrwt beam="1">  1        2 0.28452013E+00 0.29494023E+04</pdfrwt>
<pdfrwt beam="2">  1       -1 0.18091240E+00 0.29494023E+04</pdfrwt>
<totfact> 0.16243393E+00</totfact>
</mgrwt>
</event>
<event>
12    6  0.9533401E-008  0.1300466E+04  0.7818608E-02  0.9029196E-01
         -1   -1    0    0    0  501 -0.00000000000E+00  0.00000000000E+00  0.45833126930E+03  0.45833126930E+03  0.00000000000E+00 0.  1.
          2   -1    0    0  501    0  0.00000000000E+00 -0.00000000000E+00 -0.92248276956E+03  0.92248276956E+03  0.00000000000E+00 0. -1.
         24    2    1    2    0    0 -0.30143831070E+03 -0.60723126257E+02 -0.26419796435E+03  0.41315660889E+03  0.79658432577E+02 0.  0.
        254    2    1    2    0    0  0.30143831070E+03  0.60723126257E+02 -0.19995353591E+03  0.96765742996E+03  0.89544800632E+03 0.  0.
         23    2    4    4    0    0  0.11363882428E+03 -0.17007945375E+03  0.30206046737E+03  0.37592904114E+03  0.90781688961E+02 0.  0.
         23    2    4    4    0    0  0.18779948642E+03  0.23080258001E+03 -0.50201400328E+03  0.59172838883E+03  0.97907857805E+02 0.  0.
          4    1    3    3  502    0 -0.29541393715E+03 -0.71964449385E+02 -0.24694579465E+03  0.39170205735E+03  0.00000000000E+00 0. -1.
         -3    1    3    3    0  502 -0.60243735548E+01  0.11241323127E+02 -0.17252169706E+02  0.21454551544E+02  0.00000000000E+00 0.  1.
         11    1    5    5    0    0  0.36281288648E+02  0.61929726473E+00  0.53111934377E+02  0.64324124622E+02  0.00000000000E+00 0. -1.
        -11    1    5    5    0    0  0.77357535636E+02 -0.17069875102E+03  0.24894853299E+03  0.31160491651E+03  0.00000000000E+00 0.  1.
          1    1    6    6  503    0  0.97223319710E+02  0.82308979969E+02 -0.29508238803E+03  0.32140435250E+03  0.00000000000E+00 0. -1.
         -1    1    6    6    0  503  0.90576166708E+02  0.14849360004E+03 -0.20693161524E+03  0.27032403633E+03  0.00000000000E+00 0.  1.
<mgrwt>
<rscale>  0 0.13004656E+04</rscale>
<asrwt>0</asrwt>
<pdfrwt beam="1">  1        2 0.14192042E+00 0.13004656E+04</pdfrwt>
<pdfrwt beam="2">  1       -1 0.70512504E-01 0.13004656E+04</pdfrwt>
<totfact> 0.64386996E+01</totfact>
</mgrwt>
</event>
<event>
12    6  0.9533401E-008  0.1687590E+04  0.7818608E-02  0.8768474E-01
          2   -1    0    0  501    0  0.00000000000E+00  0.00000000000E+00  0.26657271368E+04  0.26657271368E+04  0.00000000000E+00 0. -1.
         -1   -1    0    0    0  501 -0.00000000000E+00 -0.00000000000E+00 -0.26709028988E+03  0.26709028988E+03  0.00000000000E+00 0.  1.
         24    2    1    2    0    0 -0.58092201757E+03 -0.12598348643E+03  0.81894686449E+03  0.10149302944E+04  0.77892915732E+02 0.  0.
        254    2    1    2    0    0  0.58092201757E+03  0.12598348643E+03  0.15796899824E+04  0.19178871323E+04  0.91078448723E+03 0.  0.
         23    2    4    4    0    0  0.42424125666E+03  0.32533958224E+03  0.15547053302E+04  0.16466740393E+04  0.92737480654E+02 0.  0.
         23    2    4    4    0    0  0.15668076091E+03 -0.19935609582E+03  0.24984652248E+02  0.27121309298E+03  0.92954801813E+02 0.  0.
          2    1    3    3  502    0 -0.32303309569E+03 -0.45960407730E+02  0.39555027749E+03  0.51275994580E+03  0.00000000000E+00 0. -1.
         -1    1    3    3    0  502 -0.25788892187E+03 -0.80023078697E+02  0.42339658700E+03  0.50217034862E+03  0.00000000000E+00 0.  1.
         11    1    5    5    0    0  0.10297561918E+01  0.54625444539E+01  0.21059924707E+01  0.59443245211E+01  0.00000000000E+00 0. -1.
        -11    1    5    5    0    0  0.42321150047E+03  0.31987703779E+03  0.15525993377E+04  0.16407297148E+04  0.00000000000E+00 0.  1.
          3    1    6    6  503    0  0.22714803555E+02  0.72218530550E+01  0.15235152280E+01  0.23883855651E+02  0.00000000000E+00 0. -1.
         -3    1    6    6    0  503  0.13396595735E+03 -0.20657794887E+03  0.23461137020E+02  0.24732923733E+03  0.00000000000E+00 0.  1.
<mgrwt>
<rscale>  0 0.16875898E+04</rscale>
<asrwt>0</asrwt>
<pdfrwt beam="1">  1        2 0.41011185E+00 0.16875898E+04</pdfrwt>
<pdfrwt beam="2">  1       -1 0.41090816E-01 0.16875898E+04</pdfrwt>
<totfact> 0.17543495E+01</totfact>
</mgrwt>
</event>
<event>
12    6  0.9533401E-008  0.1753170E+04  0.7818608E-02  0.8731607E-01
          4   -1    0    0  501    0  0.00000000000E+00  0.00000000000E+00  0.67185344051E+03  0.67185344051E+03  0.00000000000E+00 0. -1.
         -3   -1    0    0    0  501 -0.00000000000E+00 -0.00000000000E+00 -0.11437039331E+04  0.11437039331E+04  0.00000000000E+00 0.  1.
         24    2    1    2    0    0 -0.47188002981E+03  0.23755335157E+02  0.27802919591E+03  0.55405810652E+03  0.80281212894E+02 0.  0.
        254    2    1    2    0    0  0.47188002981E+03 -0.23755335157E+02 -0.74987968846E+03  0.12614992670E+04  0.89767799076E+03 0.  0.
         23    2    4    4    0    0  0.23686716446E+02  0.38445575116E+03 -0.23688811670E+03  0.46163417879E+03  0.92859302508E+02 0.  0.
         23    2    4    4    0    0  0.44819331336E+03 -0.40821108631E+03 -0.51299157177E+03  0.79986508825E+03  0.95447732076E+02 0.  0.
          4    1    3    3  502    0 -0.33327742423E+03 -0.11826534367E+02  0.16715799953E+03  0.37303552810E+03  0.00000000000E+00 0. -1.
         -3    1    3    3    0  502 -0.13860260557E+03  0.35581869524E+02  0.11087119639E+03  0.18102257842E+03  0.00000000000E+00 0.  1.
         11    1    5    5    0    0 -0.21353873332E+02  0.25712458907E+03 -0.12730268956E+03  0.28770647712E+03  0.00000000000E+00 0.  1.
        -11    1    5    5    0    0  0.45040589778E+02  0.12733116209E+03 -0.10958542714E+03  0.17392770167E+03  0.00000000000E+00 0. -1.
          2    1    6    6  503    0  0.20629551389E+03 -0.18571199478E+03 -0.17345192296E+03  0.32731079059E+03  0.00000000000E+00 0. -1.
         -2    1    6    6    0  503  0.24189779947E+03 -0.22249909153E+03 -0.33953964881E+03  0.47255429766E+03  0.00000000000E+00 0.  1.
<mgrwt>
<rscale>  0 0.17531702E+04</rscale>
<asrwt>0</asrwt>
<pdfrwt beam="1">  1        4 0.10336207E+00 0.17531702E+04</pdfrwt>
<pdfrwt beam="2">  1       -3 0.17595445E+00 0.17531702E+04</pdfrwt>
<totfact> 0.34814599E-01</totfact>
</mgrwt>
</event>
<event>
12    6  0.9533401E-008  0.1273007E+04  0.7818608E-02  0.9051249E-01
         -1   -1    0    0    0  501 -0.00000000000E+00  0.00000000000E+00  0.12661943999E+03  0.12661943999E+03  0.00000000000E+00 0.  1.
          2   -1    0    0  501    0  0.00000000000E+00 -0.00000000000E+00 -0.31996398211E+04  0.31996398211E+04  0.00000000000E+00 0. -1.
         24    2    1    2    0    0  0.20998464638E+03  0.23790382501E+02 -0.17670781344E+03  0.28690757539E+03  0.80192091097E+02 0.  0.
        254    2    1    2    0    0 -0.20998464638E+03 -0.23790382501E+02 -0.28963125677E+04  0.30393516857E+04  0.89686824321E+03 0.  0.
         23    2    4    4    0    0  0.22707100748E+03 -0.29032870429E+03 -0.15514865694E+04  0.15972472314E+04  0.90753205358E+02 0.  0.
         23    2    4    4    0    0 -0.43705565386E+03  0.26653832179E+03 -0.13448259983E+04  0.14421044543E+04  0.95120817190E+02 0.  0.
          2    1    3    3  502    0  0.93918522044E+02 -0.25426136334E+02 -0.55465834448E+02  0.11199837491E+03  0.00000000000E+00 0. -1.
         -1    1    3    3    0  502  0.11606612433E+03  0.49216518835E+02 -0.12124197899E+03  0.17490920048E+03  0.00000000000E+00 0.  1.
         11    1    5    5    0    0  0.16909143219E+03 -0.18922969828E+03 -0.12129187842E+04  0.12391818947E+04  0.00000000000E+00 0. -1.
        -11    1    5    5    0    0  0.57979575296E+02 -0.10109900601E+03 -0.33856778517E+03  0.35806533667E+03  0.00000000000E+00 0.  1.
          3    1    6    6  503    0 -0.31974521751E+03  0.18602146483E+03 -0.10781373265E+04  0.11398337968E+04  0.00000000000E+00 0. -1.
         -3    1    6    6    0  503 -0.11731043635E+03  0.80516856962E+02 -0.26668867183E+03  0.30227065755E+03  0.00000000000E+00 0.  1.
<mgrwt>
<rscale>  0 0.12730068E+04</rscale>
<asrwt>0</asrwt>
<pdfrwt beam="1">  1        2 0.49225225E+00 0.12730068E+04</pdfrwt>
<pdfrwt beam="2">  1       -1 0.19479915E-01 0.12730068E+04</pdfrwt>
<totfact> 0.31511985E+01</totfact>
</mgrwt>
</event>
<event>
12    6  0.9533401E-008  0.1986869E+04  0.7818608E-02  0.8612785E-01
          2   -1    0    0  501    0  0.00000000000E+00  0.00000000000E+00  0.48098875837E+04  0.48098875837E+04  0.00000000000E+00 0. -1.
         -1   -1    0    0    0  501 -0.00000000000E+00 -0.00000000000E+00 -0.20518398829E+03  0.20518398829E+03  0.00000000000E+00 0.  1.
         24    2    1    2    0    0 -0.70523796733E+03 -0.97513956113E+02  0.89767524667E+03  0.11484519431E+04  0.79066142635E+02 0.  0.
        254    2    1    2    0    0  0.70523796733E+03  0.97513956113E+02  0.37070283488E+04  0.38666196289E+04  0.83774615136E+03 0.  0.
         23    2    4    4    0    0  0.20479797208E+03  0.14856241948E+03  0.23473556028E+03  0.35688124192E+03  0.90831909168E+02 0.  0.
         23    2    4    4    0    0  0.50043999525E+03 -0.51048463370E+02  0.34722927885E+04  0.35097383870E+04  0.91652615151E+02 0.  0.
          4    1    3    3  502    0 -0.48096284223E+03 -0.74098996925E+02  0.55373662766E+03  0.73718394568E+03  0.00000000000E+00 0. -1.
         -3    1    3    3    0  502 -0.22427512509E+03 -0.23414959188E+02  0.34393861901E+03  0.41126799741E+03  0.00000000000E+00 0.  1.
         11    1    5    5    0    0  0.14922905238E+03  0.14417790805E+03  0.15240874869E+03  0.25745874606E+03  0.00000000000E+00 0. -1.
        -11    1    5    5    0    0  0.55568919694E+02  0.43845114344E+01  0.82326811588E+02  0.99422495858E+02  0.00000000000E+00 0.  1.
          4    1    6    6  503    0  0.49216666199E+03 -0.57659242939E+02  0.34451125295E+04  0.34805679066E+04  0.00000000000E+00 0. -1.
         -4    1    6    6    0  503  0.82733332591E+01  0.66107795686E+01  0.27180258993E+02  0.29170480432E+02  0.00000000000E+00 0.  1.
<mgrwt>
<rscale>  0 0.19868688E+04</rscale>
<asrwt>0</asrwt>
<pdfrwt beam="1">  1        2 0.73998262E+00 0.19868688E+04</pdfrwt>
<pdfrwt beam="2">  1       -1 0.31566771E-01 0.19868688E+04</pdfrwt>
<totfact> 0.58555456E-01</totfact>
</mgrwt>
</event>
<event>
12    6  0.9533401E-008  0.2352731E+04  0.7818608E-02  0.8457415E-01
         -1   -1    0    0    0  501 -0.00000000000E+00  0.00000000000E+00  0.59321734636E+03  0.59321734636E+03  0.00000000000E+00 0.  1.
          2   -1    0    0  501    0  0.00000000000E+00 -0.00000000000E+00 -0.23327634475E+04  0.23327634475E+04  0.00000000000E+00 0. -1.
         24    2    1    2    0    0  0.55856918013E+03  0.23281866095E+03  0.25195831330E+03  0.66032750429E+03  0.79657789348E+02 0.  0.
        254    2    1    2    0    0 -0.55856918013E+03 -0.23281866095E+03 -0.19915044145E+04  0.22656532896E+04  0.89492510185E+03 0.  0.
         23    2    4    4    0    0 -0.12156204491E+03 -0.31448202022E+03 -0.16934769063E+03  0.38794856291E+03  0.90272782931E+02 0.  0.
         23    2    4    4    0    0 -0.43700713522E+03  0.81663359271E+02 -0.18221567238E+04  0.18777047267E+04  0.88745557157E+02 0.  0.
          2    1    3    3  502    0  0.20455931291E+03  0.56872711435E+02  0.58632898156E+02  0.22026537302E+03  0.00000000000E+00 0. -1.
         -1    1    3    3    0  502  0.35400986722E+03  0.17594594951E+03  0.19332541514E+03  0.44006213127E+03  0.00000000000E+00 0.  1.
         11    1    5    5    0    0  0.13399205662E+01 -0.70093185594E+02 -0.63638296532E+02  0.94682009058E+02  0.00000000000E+00 0.  1.
        -11    1    5    5    0    0 -0.12290196548E+03 -0.24438883462E+03 -0.10570939410E+03  0.29326655385E+03  0.00000000000E+00 0. -1.
          2    1    6    6  503    0 -0.35800125513E+03  0.30853299408E+02 -0.14587111086E+04  0.15023165189E+04  0.00000000000E+00 0. -1.
         -2    1    6    6    0  503 -0.79005880092E+02  0.50810059863E+02 -0.36344561526E+03  0.37538820776E+03  0.00000000000E+00 0.  1.
<mgrwt>
<rscale>  0 0.23527310E+04</rscale>
<asrwt>0</asrwt>
<pdfrwt beam="1">  1        2 0.35888669E+00 0.23527310E+04</pdfrwt>
<pdfrwt beam="2">  1       -1 0.91264207E-01 0.23527310E+04</pdfrwt>
<totfact> 0.52236931E+00</totfact>
</mgrwt>
</event>
<event>
12    6  0.9533401E-008  0.1759540E+04  0.7818608E-02  0.8728116E-01
          2   -1    0    0  501    0  0.00000000000E+00  0.00000000000E+00  0.29107348637E+04  0.29107348637E+04  0.00000000000E+00 0. -1.
         -1   -1    0    0    0  501 -0.00000000000E+00 -0.00000000000E+00 -0.26591068626E+03  0.26591068626E+03  0.00000000000E+00 0.  1.
         24    2    1    2    0    0 -0.42484790672E+03  0.30731977759E+03  0.28614999690E+03  0.60245298444E+03  0.78272525099E+02 0.  0.
        254    2    1    2    0    0  0.42484790672E+03 -0.30731977759E+03  0.23586741805E+04  0.25741925655E+04  0.88779630824E+03 0.  0.
         23    2    4    4    0    0 -0.18829618903E+03 -0.53177028760E+02  0.14256360381E+03  0.25894367032E+03  0.91892285207E+02 0.  0.
         23    2    4    4    0    0  0.61314409574E+03 -0.25414274883E+03  0.22161105767E+04  0.23152488952E+04  0.93258455490E+02 0.  0.
          2    1    3    3  502    0 -0.16160996107E+02  0.16349257471E+02 -0.33480522725E+01  0.23231131463E+02  0.00000000000E+00 0. -1.
         -1    1    3    3    0  502 -0.40868691061E+03  0.29097052012E+03  0.28949804918E+03  0.57922185297E+03  0.00000000000E+00 0.  1.
         11    1    5    5    0    0 -0.17718186188E+03 -0.38068691386E+02  0.15326863143E+03  0.23734765813E+03  0.00000000000E+00 0. -1.
        -11    1    5    5    0    0 -0.11114327150E+02 -0.15108337374E+02 -0.10705027620E+02  0.21596012191E+02  0.00000000000E+00 0.  1.
          3    1    6    6  503    0  0.35457530650E+03 -0.19316725500E+03  0.13917022777E+04  0.14490936706E+04  0.00000000000E+00 0. -1.
         -3    1    6    6    0  503  0.25856878924E+03 -0.60975493831E+02  0.82440829894E+03  0.86615522452E+03  0.00000000000E+00 0.  1.
<mgrwt>
<rscale>  0 0.17595403E+04</rscale>
<asrwt>0</asrwt>
<pdfrwt beam="1">  1        2 0.44780534E+00 0.17595403E+04</pdfrwt>
<pdfrwt beam="2">  1       -1 0.40909338E-01 0.17595403E+04</pdfrwt>
<totfact> 0.12515323E+01</totfact>
</mgrwt>
</event>
<event>
12    6  0.9533401E-008  0.3286632E+04  0.7818608E-02  0.8166305E-01
         -1   -1    0    0    0  501 -0.00000000000E+00  0.00000000000E+00  0.13178973348E+04  0.13178973348E+04  0.00000000000E+00 0.  1.
          2   -1    0    0  501    0  0.00000000000E+00 -0.00000000000E+00 -0.20490876153E+04  0.20490876153E+04  0.00000000000E+00 0. -1.
         24    2    1    2    0    0  0.20304747847E+03 -0.31479959726E+03  0.11711341203E+04  0.12321117718E+04  0.78849384180E+02 0.  0.
        254    2    1    2    0    0 -0.20304747847E+03  0.31479959726E+03 -0.19023244008E+04  0.21348731784E+04  0.89359851000E+03 0.  0.
         23    2    4    4    0    0 -0.39928440976E+03 -0.92737959676E+00 -0.35781697589E+03  0.54356604596E+03  0.89454782836E+02 0.  0.
         23    2    4    4    0    0  0.19623693130E+03  0.31572697685E+03 -0.15445074249E+04  0.15913071324E+04  0.92535112576E+02 0.  0.
          4    1    3    3  502    0  0.15233392988E+01 -0.38347154101E+02  0.16505734295E+03  0.16946017600E+03  0.00000000000E+00 0. -1.
         -3    1    3    3    0  502  0.20152413917E+03 -0.27645244315E+03  0.10060767774E+04  0.10626515958E+04  0.00000000000E+00 0.  1.
         11    1    5    5    0    0 -0.17398527150E+03  0.41595589903E+02 -0.17594596497E+03  0.25091442842E+03  0.00000000000E+00 0.  1.
        -11    1    5    5    0    0 -0.22529913827E+03 -0.42522969500E+02 -0.18187101091E+03  0.29265161754E+03  0.00000000000E+00 0. -1.
          1    1    6    6  503    0  0.70670028891E+02  0.19895891712E+03 -0.89170717296E+03  0.91636269348E+03  0.00000000000E+00 0. -1.
         -1    1    6    6    0  503  0.12556690241E+03  0.11676805973E+03 -0.65280025194E+03  0.67494443897E+03  0.00000000000E+00 0.  1.
<mgrwt>
<rscale>  0 0.32866318E+04</rscale>
<asrwt>0</asrwt>
<pdfrwt beam="1">  1        2 0.31524425E+00 0.32866318E+04</pdfrwt>
<pdfrwt beam="2">  1       -1 0.20275344E+00 0.32866318E+04</pdfrwt>
<totfact> 0.85951445E-01</totfact>
</mgrwt>
</event>
<event>
12    6  0.1000521E-007  0.2179543E+04  0.7818608E-02  0.8526991E-01
          2   -1    0    0  501    0  0.00000000000E+00  0.00000000000E+00  0.89906192379E+03  0.89906192379E+03  0.00000000000E+00 0. -1.
         -1   -1    0    0    0  501 -0.00000000000E+00 -0.00000000000E+00 -0.13209340517E+04  0.13209340517E+04  0.00000000000E+00 0.  1.
         24    2    1    2    0    0 -0.63249871052E+03 -0.58935730238E+03 -0.45751030439E+03  0.98145228263E+03  0.80847113582E+02 0.  0.
        254    2    1    2    0    0  0.63249871052E+03  0.58935730238E+03  0.35638176501E+02  0.12385436928E+04  0.88618494162E+03 0.  0.
         23    2    4    4    0    0  0.42578969786E+03  0.47687737080E+03 -0.38136280038E+03  0.75006274108E+03  0.91911024636E+02 0.  0.
         23    2    4    4    0    0  0.20670901266E+03  0.11247993158E+03  0.41700097688E+03  0.48848095176E+03  0.96661650021E+02 0.  0.
          2    1    3    3  502    0 -0.35728698716E+02 -0.26095574092E+02 -0.44573563818E+02  0.62803833407E+02  0.00000000000E+00 0. -1.
         -1    1    3    3    0  502 -0.59677001180E+03 -0.56326172829E+03 -0.41293674057E+03  0.91864844922E+03  0.00000000000E+00 0.  1.
         11    1    5    5    0    0  0.40069953991E+03  0.43458634250E+03 -0.32253645741E+03  0.67339080535E+03  0.00000000000E+00 0.  1.
        -11    1    5    5    0    0  0.25090157954E+02  0.42291028304E+02 -0.58826342971E+02  0.76671935729E+02  0.00000000000E+00 0. -1.
          1    1    6    6  503    0  0.44280034040E+02  0.18680327994E+02  0.25587347713E+02  0.54446197585E+02  0.00000000000E+00 0. -1.
         -1    1    6    6    0  503  0.16242897862E+03  0.93799603586E+02  0.39141362917E+03  0.43403475417E+03  0.00000000000E+00 0.  1.
<mgrwt>
<rscale>  0 0.21795426E+04</rscale>
<asrwt>0</asrwt>
<pdfrwt beam="1">  1        2 0.13831722E+00 0.21795426E+04</pdfrwt>
<pdfrwt beam="2">  1       -1 0.20322062E+00 0.21795426E+04</pdfrwt>
<totfact> 0.43858130E+00</totfact>
</mgrwt>
</event>
<event>
12    6  0.9533401E-008  0.2918484E+04  0.7818608E-02  0.8267399E-01
          2   -1    0    0  501    0  0.00000000000E+00  0.00000000000E+00  0.13231068255E+04  0.13231068255E+04  0.00000000000E+00 0. -1.
         -1   -1    0    0    0  501 -0.00000000000E+00 -0.00000000000E+00 -0.16093837436E+04  0.16093837436E+04  0.00000000000E+00 0.  1.
         24    2    1    2    0    0 -0.75513559591E+03  0.10345504754E+03 -0.12120983567E+04  0.14343070747E+04  0.84389828291E+02 0.  0.
        254    2    1    2    0    0  0.75513559591E+03 -0.10345504754E+03  0.92582143855E+03  0.14981834945E+04  0.89803993897E+03 0.  0.
         23    2    4    4    0    0  0.17969417411E+02  0.28491619061E+03  0.85725674227E+02  0.31154385604E+03  0.90612070830E+02 0.  0.
         23    2    4    4    0    0  0.73716617850E+03 -0.38837123815E+03  0.84009576433E+03  0.11866396384E+04  0.90036353460E+02 0.  0.
          2    1    3    3  502    0 -0.10980468588E+03  0.21048828882E+02 -0.12770366344E+03  0.16973022093E+03  0.00000000000E+00 0. -1.
         -1    1    3    3    0  502 -0.64533091003E+03  0.82406218655E+02 -0.10843946932E+04  0.12645768537E+04  0.00000000000E+00 0.  1.
         11    1    5    5    0    0 -0.26675326690E+01  0.15277720264E+03  0.21067740646E+00  0.15280063404E+03  0.00000000000E+00 0.  1.
        -11    1    5    5    0    0  0.20636950080E+02  0.13213898797E+03  0.85514996820E+02  0.15874322200E+03  0.00000000000E+00 0. -1.
          4    1    6    6  503    0  0.20865187078E+03 -0.11704257951E+03  0.18614236266E+03  0.30312299116E+03  0.00000000000E+00 0. -1.
         -4    1    6    6    0  503  0.52851430772E+03 -0.27132865864E+03  0.65395340167E+03  0.88351664728E+03  0.00000000000E+00 0.  1.
<mgrwt>
<rscale>  0 0.29184836E+04</rscale>
<asrwt>0</asrwt>
<pdfrwt beam="1">  1        2 0.20355490E+00 0.29184836E+04</pdfrwt>
<pdfrwt beam="2">  1       -1 0.24759750E+00 0.29184836E+04</pdfrwt>
<totfact> 0.11372206E+00</totfact>
</mgrwt>
</event>
<event>
12    6  0.1155344E-007  0.1570062E+04  0.7818608E-02  0.8839154E-01
         -1   -1    0    0    0  501 -0.00000000000E+00  0.00000000000E+00  0.58784543702E+03  0.58784543702E+03  0.00000000000E+00 0.  1.
          2   -1    0    0  501    0  0.00000000000E+00 -0.00000000000E+00 -0.10483604415E+04  0.10483604415E+04  0.00000000000E+00 0. -1.
         24    2    1    2    0    0  0.11456211473E+03  0.45606045553E+03  0.79296345313E+02  0.48337808635E+03  0.79062296667E+02 0.  0.
        254    2    1    2    0    0 -0.11456211473E+03 -0.45606045553E+03 -0.53981134981E+03  0.11528277922E+04  0.90360389986E+03 0.  0.
         23    2    4    4    0    0  0.12225820752E+03 -0.22443120941E+03  0.20040944453E+03  0.33655907716E+03  0.88270209566E+02 0.  0.
         23    2    4    4    0    0 -0.23682032225E+03 -0.23162924611E+03 -0.74022079434E+03  0.81626871503E+03  0.92907578181E+02 0.  0.
          2    1    3    3  502    0 -0.72793206420E+01  0.47711807553E+01 -0.19574507516E+01  0.89210026484E+01  0.00000000000E+00 0. -1.
         -1    1    3    3    0  502  0.12184143537E+03  0.45128927477E+03  0.81253796065E+02  0.47445708370E+03  0.00000000000E+00 0.  1.
         11    1    5    5    0    0  0.12641529534E+02 -0.90909256042E+02  0.37636694119E+02  0.99200916564E+02  0.00000000000E+00 0. -1.
        -11    1    5    5    0    0  0.10961667798E+03 -0.13352195337E+03  0.16277275041E+03  0.23735816059E+03  0.00000000000E+00 0.  1.
          1    1    6    6  503    0 -0.22688385622E+02  0.60002128203E+01 -0.65133763300E+02  0.69232741659E+02  0.00000000000E+00 0. -1.
         -1    1    6    6    0  503 -0.21413193662E+03 -0.23762945893E+03 -0.67508703104E+03  0.74703597337E+03  0.00000000000E+00 0.  1.
<mgrwt>
<rscale>  0 0.15700623E+04</rscale>
<asrwt>0</asrwt>
<pdfrwt beam="1">  1        2 0.16128622E+00 0.15700623E+04</pdfrwt>
<pdfrwt beam="2">  1       -1 0.90437760E-01 0.15700623E+04</pdfrwt>
<totfact> 0.30750296E+01</totfact>
</mgrwt>
</event>
<event>
12    6  0.9533401E-008  0.1294021E+04  0.7818608E-02  0.9034320E-01
          2   -1    0    0  501    0  0.00000000000E+00  0.00000000000E+00  0.89553766344E+03  0.89553766344E+03  0.00000000000E+00 0. -1.
         -1   -1    0    0    0  501 -0.00000000000E+00 -0.00000000000E+00 -0.46745411861E+03  0.46745411861E+03  0.00000000000E+00 0.  1.
         24    2    1    2    0    0  0.18777634516E+03  0.12569596478E+03 -0.12296312122E+03  0.27353397624E+03  0.92959537500E+02 0.  0.
        254    2    1    2    0    0 -0.18777634516E+03 -0.12569596478E+03  0.55104666605E+03  0.10894578058E+04  0.91225350156E+03 0.  0.
         23    2    4    4    0    0 -0.15050958474E+03 -0.40222898901E+03 -0.28829488853E+02  0.43977007608E+03  0.90140366589E+02 0.  0.
         23    2    4    4    0    0 -0.37266760422E+02  0.27653302423E+03  0.57987615491E+03  0.64968772973E+03  0.89322260414E+02 0.  0.
          2    1    3    3  502    0 -0.92379968054E+01  0.16900644111E+02 -0.10623999887E+02  0.21996402660E+02  0.00000000000E+00 0. -1.
         -1    1    3    3    0  502  0.19701434197E+03  0.10879532067E+03 -0.11233912133E+03  0.25153757358E+03  0.00000000000E+00 0.  1.
         11    1    5    5    0    0 -0.98905669584E+02 -0.14380470880E+03  0.12020692635E+01  0.17453816408E+03  0.00000000000E+00 0.  1.
        -11    1    5    5    0    0 -0.51603915156E+02 -0.25842428021E+03 -0.30031558117E+02  0.26523191200E+03  0.00000000000E+00 0. -1.
          1    1    6    6  503    0 -0.52487717979E+02  0.22218989678E+03  0.51719719482E+03  0.56534613212E+03  0.00000000000E+00 0. -1.
         -1    1    6    6    0  503  0.15220957556E+02  0.54343127445E+02  0.62678960086E+02  0.84341597608E+02  0.00000000000E+00 0.  1.
<mgrwt>
<rscale>  0 0.12940213E+04</rscale>
<asrwt>0</asrwt>
<pdfrwt beam="1">  1        2 0.13777503E+00 0.12940213E+04</pdfrwt>
<pdfrwt beam="2">  1       -1 0.71916018E-01 0.12940213E+04</pdfrwt>
<totfact> 0.64495285E+01</totfact>
</mgrwt>
</event>
<event>
12    6  0.9533401E-008  0.1859771E+04  0.7818608E-02  0.8675144E-01
          2   -1    0    0  501    0  0.00000000000E+00  0.00000000000E+00  0.61338436410E+03  0.61338436410E+03  0.00000000000E+00 0. -1.
         -1   -1    0    0    0  501 -0.00000000000E+00 -0.00000000000E+00 -0.14096978440E+04  0.14096978440E+04  0.00000000000E+00 0.  1.
         24    2    1    2    0    0  0.86943761728E+02 -0.51362023681E+03  0.21260553588E+03  0.56836796359E+03  0.80473988213E+02 0.  0.
        254    2    1    2    0    0 -0.86943761728E+02  0.51362023681E+03 -0.10089190158E+04  0.14547142445E+04  0.90934646170E+03 0.  0.
         23    2    4    4    0    0 -0.16787360996E+03  0.34884795171E+03  0.26835025799E+02  0.39881728514E+03  0.91971006213E+02 0.  0.
         23    2    4    4    0    0  0.80929848229E+02  0.16477228510E+03 -0.10357540416E+04  0.10558969594E+04  0.91828143307E+02 0.  0.
          4    1    3    3  502    0  0.77708979202E+02 -0.40203036385E+03  0.13135973828E+03  0.43002613845E+03  0.00000000000E+00 0. -1.
         -3    1    3    3    0  502  0.92347825263E+01 -0.11158987296E+03  0.81245797592E+02  0.13834182513E+03  0.00000000000E+00 0.  1.
         11    1    5    5    0    0 -0.10690986499E+03  0.14781481073E+03 -0.20207492871E+02  0.18354094985E+03  0.00000000000E+00 0. -1.
        -11    1    5    5    0    0 -0.60963744965E+02  0.20103314098E+03  0.47042518670E+02  0.21527633529E+03  0.00000000000E+00 0.  1.
          1    1    6    6  503    0  0.51844731261E+02  0.27973784331E+02 -0.19903589809E+03  0.20757094569E+03  0.00000000000E+00 0. -1.
         -1    1    6    6    0  503  0.29085116968E+02  0.13679850077E+03 -0.83671814347E+03  0.84832601366E+03  0.00000000000E+00 0.  1.
<mgrwt>
<rscale>  0 0.18597705E+04</rscale>
<asrwt>0</asrwt>
<pdfrwt beam="1">  1        2 0.94366826E-01 0.18597705E+04</pdfrwt>
<pdfrwt beam="2">  1       -1 0.21687659E+00 0.18597705E+04</pdfrwt>
<totfact> 0.59834317E+00</totfact>
</mgrwt>
</event>
<event>
12    6  0.9533401E-008  0.2209897E+04  0.7818608E-02  0.8514320E-01
          2   -1    0    0  501    0  0.00000000000E+00  0.00000000000E+00  0.10238962529E+04  0.10238962529E+04  0.00000000000E+00 0. -1.
         -1   -1    0    0    0  501 -0.00000000000E+00 -0.00000000000E+00 -0.11924169185E+04  0.11924169185E+04  0.00000000000E+00 0.  1.
         24    2    1    2    0    0  0.21894073783E+02 -0.44169041603E+03 -0.88100801599E+03  0.98901691858E+03  0.80059770870E+02 0.  0.
        254    2    1    2    0    0 -0.21894073783E+02  0.44169041603E+03  0.71248735037E+03  0.12272962527E+04  0.89612950708E+03 0.  0.
         23    2    4    4    0    0 -0.61874436891E+01 -0.19321750473E+02  0.75000437696E+03  0.75570075318E+03  0.90362870699E+02 0.  0.
         23    2    4    4    0    0 -0.15706630094E+02  0.46101216651E+03 -0.37517026583E+02  0.47159549956E+03  0.90641447624E+02 0.  0.
          2    1    3    3  502    0  0.41748508755E+02 -0.33170499215E+03 -0.70927688751E+03  0.78412042631E+03  0.00000000000E+00 0. -1.
         -1    1    3    3    0  502 -0.19854434972E+02 -0.10998542388E+03 -0.17173112848E+03  0.20489649227E+03  0.00000000000E+00 0.  1.
         11    1    5    5    0    0  0.15939553955E+02 -0.28405628015E+02  0.98267839471E+02  0.10352544304E+03  0.00000000000E+00 0. -1.
        -11    1    5    5    0    0 -0.22126997644E+02  0.90838775424E+01  0.65173653748E+03  0.65217531013E+03  0.00000000000E+00 0.  1.
          2    1    6    6  503    0 -0.34688767169E+02  0.44088458543E+03 -0.32159076537E+02  0.44341485591E+03  0.00000000000E+00 0.  1.
         -2    1    6    6    0  503  0.18982137075E+02  0.20127581074E+02 -0.53579500461E+01  0.28180643650E+02  0.00000000000E+00 0. -1.
<mgrwt>
<rscale>  0 0.22098970E+04</rscale>
<asrwt>0</asrwt>
<pdfrwt beam="1">  1        2 0.15752250E+00 0.22098970E+04</pdfrwt>
<pdfrwt beam="2">  1       -1 0.18344876E+00 0.22098970E+04</pdfrwt>
<totfact> 0.49793056E+00</totfact>
</mgrwt>
</event>
<event>
12    6  0.9533401E-008  0.1782741E+04  0.7818608E-02  0.8715532E-01
         -1   -1    0    0    0  501 -0.00000000000E+00  0.00000000000E+00  0.78255434223E+03  0.78255434223E+03  0.00000000000E+00 0.  1.
          2   -1    0    0  501    0  0.00000000000E+00 -0.00000000000E+00 -0.10153175177E+04  0.10153175177E+04  0.00000000000E+00 0. -1.
         24    2    1    2    0    0 -0.81019147554E+02  0.36322911650E+03  0.45684784684E+03  0.59464168658E+03  0.79933015136E+02 0.  0.
        254    2    1    2    0    0  0.81019147554E+02 -0.36322911650E+03 -0.68961102230E+03  0.12032301733E+04  0.91307173574E+03 0.  0.
         23    2    4    4    0    0 -0.75973295410E+02  0.28126950501E+03 -0.30330862170E+03  0.43030356129E+03  0.90997575754E+02 0.  0.
         23    2    4    4    0    0  0.15699244296E+03 -0.64449862151E+03 -0.38630240060E+03  0.77292661205E+03  0.90337714312E+02 0.  0.
          4    1    3    3  502    0 -0.56183781224E+02  0.92898582062E+02  0.14598876536E+03  0.18193263433E+03  0.00000000000E+00 0. -1.
         -3    1    3    3    0  502 -0.24835366330E+02  0.27033053444E+03  0.31085908148E+03  0.41270905225E+03  0.00000000000E+00 0.  1.
         11    1    5    5    0    0 -0.91142372786E+02  0.17225215477E+03 -0.20265305546E+03  0.28115120101E+03  0.00000000000E+00 0. -1.
        -11    1    5    5    0    0  0.15169077376E+02  0.10901735024E+03 -0.10065556624E+03  0.14915236028E+03  0.00000000000E+00 0.  1.
          1    1    6    6  503    0  0.12692373860E+03 -0.61238148606E+03 -0.36373592647E+03  0.72348085262E+03  0.00000000000E+00 0. -1.
         -1    1    6    6    0  503  0.30068704365E+02 -0.32117135449E+02 -0.22566474127E+02  0.49445759436E+02  0.00000000000E+00 0.  1.
<mgrwt>
<rscale>  0 0.17827407E+04</rscale>
<asrwt>0</asrwt>
<pdfrwt beam="1">  1        2 0.15620269E+00 0.17827407E+04</pdfrwt>
<pdfrwt beam="2">  1       -1 0.12039298E+00 0.17827407E+04</pdfrwt>
<totfact> 0.16312379E+01</totfact>
</mgrwt>
</event>
<event>
12    6  0.9533401E-008  0.2269954E+04  0.7818608E-02  0.8489863E-01
          2   -1    0    0  501    0  0.00000000000E+00  0.00000000000E+00  0.23924659024E+04  0.23924659024E+04  0.00000000000E+00 0. -1.
         -1   -1    0    0    0  501 -0.00000000000E+00 -0.00000000000E+00 -0.53842905118E+03  0.53842905118E+03  0.00000000000E+00 0.  1.
         24    2    1    2    0    0 -0.19719365066E+03  0.86149936903E+03  0.12569309286E+04  0.15385289619E+04  0.78291177586E+02 0.  0.
        254    2    1    2    0    0  0.19719365066E+03 -0.86149936903E+03  0.59710592254E+03  0.13923659917E+04  0.89503132531E+03 0.  0.
         23    2    4    4    0    0  0.67997820070E+02  0.33077843467E+02 -0.16813716264E+03  0.20455798478E+03  0.88634171811E+02 0.  0.
         23    2    4    4    0    0  0.12919583059E+03 -0.89457721250E+03  0.76524308519E+03  0.11878080069E+04  0.91273928428E+02 0.  0.
          4    1    3    3  502    0 -0.13927570273E+03  0.54337303277E+03  0.85655002204E+03  0.10238798340E+04  0.00000000000E+00 0. -1.
         -3    1    3    3    0  502 -0.57917947926E+02  0.31812633626E+03  0.40038090660E+03  0.51464912793E+03  0.00000000000E+00 0.  1.
         11    1    5    5    0    0  0.77303835358E+02  0.11675517407E+02 -0.16282707358E+03  0.18062352161E+03  0.00000000000E+00 0. -1.
        -11    1    5    5    0    0 -0.93060152880E+01  0.21402326060E+02 -0.53100890607E+01  0.23934463168E+02  0.00000000000E+00 0.  1.
          3    1    6    6  503    0  0.13041178464E+03 -0.79474164100E+03  0.64713459822E+03  0.10331527950E+04  0.00000000000E+00 0. -1.
         -3    1    6    6    0  503 -0.12159540521E+01 -0.99835571498E+02  0.11810848696E+03  0.15465521192E+03  0.00000000000E+00 0.  1.
<mgrwt>
<rscale>  0 0.22699543E+04</rscale>
<asrwt>0</asrwt>
<pdfrwt beam="1">  1        2 0.36807167E+00 0.22699543E+04</pdfrwt>
<pdfrwt beam="2">  1       -1 0.82835240E-01 0.22699543E+04</pdfrwt>
<totfact> 0.60107386E+00</totfact>
</mgrwt>
</event>
<event>
12    6  0.9533401E-008  0.3515669E+04  0.7818608E-02  0.8110087E-01
         -1   -1    0    0    0  501 -0.00000000000E+00  0.00000000000E+00  0.20543168315E+04  0.20543168315E+04  0.00000000000E+00 0.  1.
          2   -1    0    0  501    0  0.00000000000E+00 -0.00000000000E+00 -0.15041406720E+04  0.15041406720E+04  0.00000000000E+00 0. -1.
         24    2    1    2    0    0 -0.38088948908E+03  0.14308108059E+04 -0.45961438834E+03  0.15525723399E+04  0.83301376214E+02 0.  0.
        254    2    1    2    0    0  0.38088948908E+03 -0.14308108059E+04  0.10097905479E+04  0.20058851637E+04  0.90088954590E+03 0.  0.
         23    2    4    4    0    0 -0.22742616497E+03 -0.14161936349E+03  0.56605034265E+02  0.28864406603E+03  0.91282869823E+02 0.  0.
         23    2    4    4    0    0  0.60831565405E+03 -0.12891914424E+04  0.95318551363E+03  0.17172410976E+04  0.91059616541E+02 0.  0.
          2    1    3    3  502    0 -0.29094852595E+03  0.10195018271E+04 -0.29472963288E+03  0.11004092769E+04  0.00000000000E+00 0. -1.
         -1    1    3    3    0  502 -0.89940963130E+02  0.41130897885E+03 -0.16488475547E+03  0.45216306297E+03  0.00000000000E+00 0.  1.
         11    1    5    5    0    0 -0.96542457320E+02 -0.19291328269E+02 -0.65988181348E+01  0.98671909947E+02  0.00000000000E+00 0.  1.
        -11    1    5    5    0    0 -0.13088370765E+03 -0.12232803523E+03  0.63203852399E+02  0.18997215609E+03  0.00000000000E+00 0. -1.
          4    1    6    6  503    0  0.54765708672E+03 -0.10981508408E+04  0.83934866599E+03  0.14867312255E+04  0.00000000000E+00 0. -1.
         -4    1    6    6    0  503  0.60658567333E+02 -0.19104060167E+03  0.11383684765E+03  0.23050987216E+03  0.00000000000E+00 0.  1.
<mgrwt>
<rscale>  0 0.35156686E+04</rscale>
<asrwt>0</asrwt>
<pdfrwt beam="1">  1        2 0.23140626E+00 0.35156686E+04</pdfrwt>
<pdfrwt beam="2">  1       -1 0.31604874E+00 0.35156686E+04</pdfrwt>
<totfact> 0.30632066E-01</totfact>
</mgrwt>
</event>
<event>
12    6  0.9533401E-008  0.1136652E+04  0.7818608E-02  0.9170187E-01
         -1   -1    0    0    0  501 -0.00000000000E+00  0.00000000000E+00  0.13198349951E+03  0.13198349951E+03  0.00000000000E+00 0.  1.
          2   -1    0    0  501    0  0.00000000000E+00 -0.00000000000E+00 -0.24472325497E+04  0.24472325497E+04  0.00000000000E+00 0. -1.
         24    2    1    2    0    0 -0.17807624408E+03  0.94098644897E+02 -0.38526161078E+03  0.44189357095E+03  0.79232036662E+02 0.  0.
        254    2    1    2    0    0  0.17807624408E+03 -0.94098644897E+02 -0.19299874394E+04  0.21373224782E+04  0.89595209477E+03 0.  0.
         23    2    4    4    0    0  0.14891794059E+03 -0.47735593838E+03 -0.12671700644E+04  0.13658745563E+04  0.99237525693E+02 0.  0.
         23    2    4    4    0    0  0.29158303494E+02  0.38325729348E+03 -0.66281737499E+03  0.77144792195E+03  0.89825742483E+02 0.  0.
          4    1    3    3  502    0  0.74858258863E+01  0.87731012749E+01 -0.13785091522E+02  0.17973136717E+02  0.00000000000E+00 0. -1.
         -3    1    3    3    0  502 -0.18556206997E+03  0.85325543622E+02 -0.37147651926E+03  0.42392043424E+03  0.00000000000E+00 0.  1.
         11    1    5    5    0    0  0.85486031039E+02 -0.28972073687E+03 -0.63085132478E+03  0.69944217835E+03  0.00000000000E+00 0. -1.
        -11    1    5    5    0    0  0.63431909547E+02 -0.18763520151E+03 -0.63631873961E+03  0.66643237794E+03  0.00000000000E+00 0.  1.
          3    1    6    6  503    0  0.22876180108E+02  0.21799728239E+03 -0.46151932313E+03  0.51092682487E+03  0.00000000000E+00 0. -1.
         -3    1    6    6    0  503  0.62821233867E+01  0.16526001109E+03 -0.20129805187E+03  0.26052109708E+03  0.00000000000E+00 0.  1.
<mgrwt>
<rscale>  0 0.11366518E+04</rscale>
<asrwt>0</asrwt>
<pdfrwt beam="1">  1        2 0.37649732E+00 0.11366518E+04</pdfrwt>
<pdfrwt beam="2">  1       -1 0.20305154E-01 0.11366518E+04</pdfrwt>
<totfact> 0.84630058E+01</totfact>
</mgrwt>
</event>
<event>
12    6  0.9533401E-008  0.2659384E+04  0.7818608E-02  0.8348305E-01
          2   -1    0    0  501    0  0.00000000000E+00  0.00000000000E+00  0.33020632028E+04  0.33020632028E+04  0.00000000000E+00 0. -1.
         -1   -1    0    0    0  501 -0.00000000000E+00 -0.00000000000E+00 -0.53544742654E+03  0.53544742654E+03  0.00000000000E+00 0.  1.
         24    2    1    2    0    0 -0.78076780590E+03  0.79508975169E+02 -0.39000830116E+02  0.78909694449E+03  0.72338642503E+02 0.  0.
        254    2    1    2    0    0  0.78076780590E+03 -0.79508975169E+02  0.28056166064E+04  0.30484136849E+04  0.89745273313E+03 0.  0.
         23    2    4    4    0    0  0.60252376565E+03 -0.23315203945E+03  0.26937909179E+04  0.27717346970E+04  0.92784479161E+02 0.  0.
         23    2    4    4    0    0  0.17824404025E+03  0.15364306429E+03  0.11182568853E+03  0.27667898790E+03  0.93108263006E+02 0.  0.
          2    1    3    3  502    0 -0.42427162474E+02  0.21277069145E+02 -0.56332923691E+00  0.47466779192E+02  0.00000000000E+00 0. -1.
         -1    1    3    3    0  502 -0.73834064342E+03  0.58231906024E+02 -0.38437500879E+02  0.74163016530E+03  0.00000000000E+00 0.  1.
         11    1    5    5    0    0  0.50224188628E+03 -0.22959067667E+03  0.22605774922E+04  0.23270516516E+04  0.00000000000E+00 0.  1.
        -11    1    5    5    0    0  0.10028187937E+03 -0.35613627840E+01  0.43321342569E+03  0.44468304536E+03  0.00000000000E+00 0. -1.
          4    1    6    6  503    0  0.82785375742E+02  0.23921411357E+02  0.67979447932E+02  0.10975817828E+03  0.00000000000E+00 0. -1.
         -4    1    6    6    0  503  0.95458664510E+02  0.12972165293E+03  0.43846240593E+02  0.16692080962E+03  0.00000000000E+00 0.  1.
<mgrwt>
<rscale>  0 0.26593843E+04</rscale>
<asrwt>0</asrwt>
<pdfrwt beam="1">  1        2 0.50800971E+00 0.26593843E+04</pdfrwt>
<pdfrwt beam="2">  1       -1 0.82376530E-01 0.26593843E+04</pdfrwt>
<totfact> 0.16279490E+00</totfact>
</mgrwt>
</event>
<event>
12    6  0.9533401E-008  0.1318746E+04  0.7818608E-02  0.9014830E-01
          2   -1    0    0  501    0  0.00000000000E+00  0.00000000000E+00  0.21138976438E+04  0.21138976438E+04  0.00000000000E+00 0. -1.
         -1   -1    0    0    0  501 -0.00000000000E+00 -0.00000000000E+00 -0.20567357155E+03  0.20567357155E+03  0.00000000000E+00 0.  1.
         24    2    1    2    0    0 -0.15179337191E+03 -0.24232252677E+03  0.84828576128E+03  0.89881594880E+03  0.80746159590E+02 0.  0.
        254    2    1    2    0    0  0.15179337191E+03  0.24232252677E+03  0.10599383110E+04  0.14207552666E+04  0.90183971396E+03 0.  0.
         23    2    4    4    0    0 -0.23906885680E+03  0.23868608143E+03  0.93787647266E+03  0.10009730000E+04  0.90607422004E+02 0.  0.
         23    2    4    4    0    0  0.39086222871E+03  0.36364453339E+01  0.12206183836E+03  0.41978226664E+03  0.92366408589E+02 0.  0.
          4    1    3    3  502    0 -0.11460322696E+03 -0.22725446780E+03  0.76774062147E+03  0.80882887845E+03  0.00000000000E+00 0. -1.
         -3    1    3    3    0  502 -0.37190144945E+02 -0.15068058967E+02  0.80545139810E+02  0.89987070344E+02  0.00000000000E+00 0.  1.
         11    1    5    5    0    0 -0.22786740974E+03  0.23045605167E+03  0.81131792745E+03  0.87365343677E+03  0.00000000000E+00 0. -1.
        -11    1    5    5    0    0 -0.11201447054E+02  0.82300297600E+01  0.12655854521E+03  0.12731956319E+03  0.00000000000E+00 0.  1.
          2    1    6    6  503    0  0.11378607181E+03  0.72479112834E+00  0.80979209606E+02  0.13966183390E+03  0.00000000000E+00 0.  1.
         -2    1    6    6    0  503  0.27707615690E+03  0.29116542056E+01  0.41082628749E+02  0.28012043274E+03  0.00000000000E+00 0. -1.
<mgrwt>
<rscale>  0 0.13187462E+04</rscale>
<asrwt>0</asrwt>
<pdfrwt beam="1">  1        2 0.32521501E+00 0.13187462E+04</pdfrwt>
<pdfrwt beam="2">  1       -1 0.31642089E-01 0.13187462E+04</pdfrwt>
<totfact> 0.59862390E+01</totfact>
</mgrwt>
</event>
<event>
12    6  0.9533401E-008  0.1440927E+04  0.7818608E-02  0.8924715E-01
          2   -1    0    0  501    0  0.00000000000E+00  0.00000000000E+00  0.81145481553E+03  0.81145481553E+03  0.00000000000E+00 0. -1.
         -1   -1    0    0    0  501 -0.00000000000E+00 -0.00000000000E+00 -0.63967522607E+03  0.63967522607E+03  0.00000000000E+00 0.  1.
         24    2    1    2    0    0  0.28725138668E+03 -0.25534373586E+03  0.28597288087E+03  0.48567223377E+03  0.79895228116E+02 0.  0.
        254    2    1    2    0    0 -0.28725138668E+03  0.25534373586E+03 -0.11419329140E+03  0.96545780782E+03  0.87826811868E+03 0.  0.
         23    2    4    4    0    0  0.14996312803E+02  0.39708235233E+03  0.23716619572E+03  0.47168625367E+03  0.91328164171E+02 0.  0.
         23    2    4    4    0    0 -0.30224769949E+03 -0.14173861648E+03 -0.35135948713E+03  0.49377155416E+03  0.94410546307E+02 0.  0.
          4    1    3    3  502    0  0.26300773613E+03 -0.22712646149E+03  0.28334254135E+03  0.44837762490E+03  0.00000000000E+00 0. -1.
         -3    1    3    3    0  502  0.24243650553E+02 -0.28217274370E+02  0.26303395124E+01  0.37294608872E+02  0.00000000000E+00 0.  1.
         11    1    5    5    0    0  0.12826535957E+02  0.17447134724E+03  0.15702841201E+03  0.23508018464E+03  0.00000000000E+00 0.  1.
        -11    1    5    5    0    0  0.21697768469E+01  0.22261100510E+03  0.80137783712E+02  0.23660606903E+03  0.00000000000E+00 0. -1.
          4    1    6    6  503    0 -0.29506516722E+03 -0.14604258849E+03 -0.31217215556E+03  0.45369962009E+03  0.00000000000E+00 0.  1.
         -4    1    6    6    0  503 -0.71825322663E+01  0.43039720099E+01 -0.39187331568E+02  0.40071934072E+02  0.00000000000E+00 0. -1.
<mgrwt>
<rscale>  0 0.14409268E+04</rscale>
<asrwt>0</asrwt>
<pdfrwt beam="1">  1        2 0.12483920E+00 0.14409268E+04</pdfrwt>
<pdfrwt beam="2">  1       -1 0.98411573E-01 0.14409268E+04</pdfrwt>
<totfact> 0.37031987E+01</totfact>
</mgrwt>
</event>
<event>
12    6  0.9533401E-008  0.1899408E+04  0.7818608E-02  0.8655151E-01
          2   -1    0    0  501    0  0.00000000000E+00  0.00000000000E+00  0.11342663691E+04  0.11342663691E+04  0.00000000000E+00 0. -1.
         -1   -1    0    0    0  501 -0.00000000000E+00 -0.00000000000E+00 -0.79517310266E+03  0.79517310266E+03  0.00000000000E+00 0.  1.
         24    2    1    2    0    0  0.61559640934E+03  0.38336793836E+00  0.61072698408E+03  0.87068622672E+03  0.78408992751E+02 0.  0.
        254    2    1    2    0    0 -0.61559640934E+03 -0.38336793836E+00 -0.27163371766E+03  0.10587532450E+04  0.81744386421E+03 0.  0.
         23    2    4    4    0    0  0.51538417779E+02 -0.14614777426E+03 -0.32195850005E+03  0.36798949434E+03  0.87997794069E+02 0.  0.
         23    2    4    4    0    0 -0.66713482712E+03  0.14576440633E+03  0.50324782391E+02  0.69076375069E+03  0.91136358487E+02 0.  0.
          2    1    3    3  502    0  0.59078517106E+03 -0.92896906524E+01  0.56358381471E+03  0.81654156839E+03  0.00000000000E+00 0. -1.
         -1    1    3    3    0  502  0.24811238279E+02  0.96730585907E+01  0.47143169367E+02  0.54144658327E+02  0.00000000000E+00 0.  1.
         11    1    5    5    0    0  0.69474718978E+02 -0.12598988899E+03 -0.30169479043E+03  0.33424532200E+03  0.00000000000E+00 0.  1.
        -11    1    5    5    0    0 -0.17936301199E+02 -0.20157885275E+02 -0.20263709616E+02  0.33744172339E+02  0.00000000000E+00 0. -1.
          3    1    6    6  503    0 -0.21152813092E+03  0.74632207758E+02  0.49180239913E+02  0.22963626152E+03  0.00000000000E+00 0. -1.
         -3    1    6    6    0  503 -0.45560669620E+03  0.71132198568E+02  0.11445424780E+01  0.46112748917E+03  0.00000000000E+00 0.  1.
<mgrwt>
<rscale>  0 0.18994084E+04</rscale>
<asrwt>0</asrwt>
<pdfrwt beam="1">  1        2 0.17450252E+00 0.18994084E+04</pdfrwt>
<pdfrwt beam="2">  1       -1 0.12233432E+00 0.18994084E+04</pdfrwt>
<totfact> 0.13089766E+01</totfact>
</mgrwt>
</event>
<event>
12    6  0.9533401E-008  0.1674864E+04  0.7818608E-02  0.8775831E-01
          2   -1    0    0  501    0  0.00000000000E+00  0.00000000000E+00  0.36284396384E+04  0.36284396384E+04  0.00000000000E+00 0. -1.
         -1   -1    0    0    0  501 -0.00000000000E+00 -0.00000000000E+00 -0.19327664206E+03  0.19327664206E+03  0.00000000000E+00 0.  1.
         24    2    1    2    0    0 -0.27949009076E+03  0.37479677638E+03  0.20839901597E+04  0.21372897524E+04  0.80032278487E+02 0.  0.
        254    2    1    2    0    0  0.27949009076E+03 -0.37479677638E+03  0.13511728366E+04  0.16844265280E+04  0.89052645075E+03 0.  0.
         23    2    4    4    0    0  0.23471453678E+03 -0.65827761079E+02 -0.33174512193E+02  0.26244254156E+03  0.91385619535E+02 0.  0.
         23    2    4    4    0    0  0.44775553979E+02 -0.30896901530E+03  0.13843473488E+04  0.14219839864E+04  0.90300459301E+02 0.  0.
          4    1    3    3  502    0 -0.23880229819E+03  0.30454092118E+03  0.18361401073E+04  0.18764813358E+04  0.00000000000E+00 0. -1.
         -1    1    3    3    0  502 -0.40687792569E+02  0.70255855201E+02  0.24785005245E+03  0.26080841657E+03  0.00000000000E+00 0.  1.
         11    1    5    5    0    0  0.12494324642E+03 -0.22194103266E+02  0.27201376428E+02  0.12978177039E+03  0.00000000000E+00 0.  1.
        -11    1    5    5    0    0  0.10977129036E+03 -0.43633657813E+02 -0.60375888620E+02  0.13266077117E+03  0.00000000000E+00 0. -1.
          3    1    6    6  503    0  0.44172375242E+02 -0.16815657461E+03  0.93713827802E+03  0.95312957380E+03  0.00000000000E+00 0. -1.
         -3    1    6    6    0  503  0.60317873709E+00 -0.14081244069E+03  0.44720907077E+03  0.46885441265E+03  0.00000000000E+00 0.  1.
<mgrwt>
<rscale>  0 0.16748643E+04</rscale>
<asrwt>0</asrwt>
<pdfrwt beam="1">  1        2 0.55822143E+00 0.16748643E+04</pdfrwt>
<pdfrwt beam="2">  1       -1 0.29734871E-01 0.16748643E+04</pdfrwt>
<totfact> 0.74991094E+00</totfact>
</mgrwt>
</event>
<event>
12    6  0.9533401E-008  0.2360162E+04  0.7818608E-02  0.8454571E-01
         -3   -1    0    0    0  501 -0.00000000000E+00  0.00000000000E+00  0.77833897468E+03  0.77833897468E+03  0.00000000000E+00 0.  1.
          2   -1    0    0  501    0  0.00000000000E+00 -0.00000000000E+00 -0.17891836545E+04  0.17891836545E+04  0.00000000000E+00 0. -1.
         24    2    1    2    0    0  0.90207970620E+03 -0.40150092296E+03 -0.63841068150E+03  0.11785240730E+04  0.80000031380E+02 0.  0.
        254    2    1    2    0    0 -0.90207970620E+03  0.40150092296E+03 -0.37243399835E+03  0.13889985562E+04  0.90313848242E+03 0.  0.
         23    2    4    4    0    0 -0.42124537711E+02 -0.24048370232E+03 -0.52751975329E+02  0.26595293444E+03  0.91330743329E+02 0.  0.
         23    2    4    4    0    0 -0.85995516849E+03  0.64198462527E+03 -0.31968202302E+03  0.11230456217E+04  0.85835434070E+02 0.  0.
          4    1    3    3  502    0  0.87324720300E+03 -0.37336407738E+03 -0.60373741476E+03  0.11253711734E+04  0.00000000000E+00 0. -1.
         -3    1    3    3    0  502  0.28832503201E+02 -0.28136845576E+02 -0.34673266731E+02  0.53152899692E+02  0.00000000000E+00 0.  1.
         11    1    5    5    0    0 -0.27248040982E+02 -0.24342193055E+03 -0.53699406923E+02  0.25075948299E+03  0.00000000000E+00 0.  1.
        -11    1    5    5    0    0 -0.14876496729E+02  0.29382282301E+01  0.94743159439E+00  0.15193451441E+02  0.00000000000E+00 0. -1.
          2    1    6    6  503    0 -0.82258333750E+03  0.63293236527E+03 -0.31248765501E+03  0.10839258557E+04  0.00000000000E+00 0.  1.
         -2    1    6    6    0  503 -0.37371830982E+02  0.90522600080E+01 -0.71943680125E+01  0.39119766018E+02  0.00000000000E+00 0. -1.
<mgrwt>
<rscale>  0 0.23601622E+04</rscale>
<asrwt>0</asrwt>
<pdfrwt beam="1">  1        2 0.27525902E+00 0.23601622E+04</pdfrwt>
<pdfrwt beam="2">  1       -3 0.11974446E+00 0.23601622E+04</pdfrwt>
<totfact> 0.28535522E+00</totfact>
</mgrwt>
</event>
<event>
12    6  0.9533401E-008  0.1265940E+04  0.7818608E-02  0.9057020E-01
         -1   -1    0    0    0  501 -0.00000000000E+00  0.00000000000E+00  0.64980678402E+03  0.64980678402E+03  0.00000000000E+00 0.  1.
          2   -1    0    0  501    0  0.00000000000E+00 -0.00000000000E+00 -0.61656983390E+03  0.61656983390E+03  0.00000000000E+00 0. -1.
         24    2    1    2    0    0 -0.19937044965E+03  0.21192803697E+03 -0.11448607221E+03  0.32282182214E+03  0.80279505923E+02 0.  0.
        254    2    1    2    0    0  0.19937044965E+03 -0.21192803697E+03  0.14772302234E+03  0.94355479578E+03  0.88533128955E+03 0.  0.
         23    2    4    4    0    0 -0.48109486469E+01  0.16591521242E+03  0.39573184216E+03  0.43860994480E+03  0.90686216366E+02 0.  0.
         23    2    4    4    0    0  0.20418139830E+03 -0.37784324939E+03 -0.24800881982E+03  0.50494485098E+03  0.94896592684E+02 0.  0.
          2    1    3    3  502    0 -0.16399594177E+03  0.20779844963E+03 -0.89983502048E+02  0.27959237334E+03  0.00000000000E+00 0. -1.
         -1    1    3    3    0  502 -0.35374507878E+02  0.41295873393E+01 -0.24502570165E+02  0.43229448804E+02  0.00000000000E+00 0.  1.
         11    1    5    5    0    0 -0.17203846448E+02  0.15001888916E+03  0.38912801712E+03  0.41739939284E+03  0.00000000000E+00 0.  1.
        -11    1    5    5    0    0  0.12392897802E+02  0.15896323261E+02  0.66038250378E+01  0.21210551956E+02  0.00000000000E+00 0. -1.
          3    1    6    6  503    0  0.29297279884E+02 -0.29868172097E+02  0.24511242149E+01  0.41909978798E+02  0.00000000000E+00 0. -1.
         -3    1    6    6    0  503  0.17488411841E+03 -0.34797507729E+03 -0.25045994404E+03  0.46303487218E+03  0.00000000000E+00 0.  1.
<mgrwt>
<rscale>  0 0.12659404E+04</rscale>
<asrwt>0</asrwt>
<pdfrwt beam="1">  1        2 0.94856898E-01 0.12659404E+04</pdfrwt>
<pdfrwt beam="2">  1       -1 0.99970274E-01 0.12659404E+04</pdfrwt>
<totfact> 0.51402238E+01</totfact>
</mgrwt>
</event>
<event>
12    6  0.9533401E-008  0.2100560E+04  0.7818608E-02  0.8560997E-01
         -1   -1    0    0    0  501 -0.00000000000E+00  0.00000000000E+00  0.93097118292E+03  0.93097118292E+03  0.00000000000E+00 0.  1.
          2   -1    0    0  501    0  0.00000000000E+00 -0.00000000000E+00 -0.11848786047E+04  0.11848786047E+04  0.00000000000E+00 0. -1.
         24    2    1    2    0    0 -0.49720038853E+03  0.13256169798E+03  0.58249994983E+03  0.78128316520E+03  0.79475546795E+02 0.  0.
        254    2    1    2    0    0  0.49720038853E+03 -0.13256169798E+03 -0.83640737165E+03  0.13345666225E+04  0.90372006081E+03 0.  0.
         23    2    4    4    0    0 -0.13397074208E+03  0.16709782273E+03 -0.50534570343E+03  0.55610026993E+03  0.89461657418E+02 0.  0.
         23    2    4    4    0    0  0.63117113060E+03 -0.29965952071E+03 -0.33106166822E+03  0.77846635253E+03  0.90748054521E+02 0.  0.
          2    1    3    3  502    0 -0.41190027289E+03  0.81290729472E+02  0.49174591297E+03  0.64659420073E+03  0.00000000000E+00 0. -1.
         -1    1    3    3    0  502 -0.85300115638E+02  0.51270968511E+02  0.90754036866E+02  0.13468896446E+03  0.00000000000E+00 0.  1.
         11    1    5    5    0    0 -0.86125230025E+02  0.39655110509E+02 -0.18058124738E+03  0.20395997142E+03  0.00000000000E+00 0. -1.
        -11    1    5    5    0    0 -0.47845512050E+02  0.12744271222E+03 -0.32476445605E+03  0.35214029851E+03  0.00000000000E+00 0.  1.
          2    1    6    6  503    0  0.43041489751E+03 -0.15931191280E+03 -0.19971497819E+03  0.50052306847E+03  0.00000000000E+00 0. -1.
         -2    1    6    6    0  503  0.20075623309E+03 -0.14034760791E+03 -0.13134669003E+03  0.27794328406E+03  0.00000000000E+00 0.  1.
<mgrwt>
<rscale>  0 0.21005598E+04</rscale>
<asrwt>0</asrwt>
<pdfrwt beam="1">  1        2 0.18228902E+00 0.21005598E+04</pdfrwt>
<pdfrwt beam="2">  1       -1 0.14322634E+00 0.21005598E+04</pdfrwt>
<totfact> 0.80219959E+00</totfact>
</mgrwt>
</event>
<event>
12    6  0.9533401E-008  0.1177515E+04  0.7818608E-02  0.9132769E-01
          2   -1    0    0  501    0  0.00000000000E+00  0.00000000000E+00  0.10978023282E+04  0.10978023282E+04  0.00000000000E+00 0. -1.
         -1   -1    0    0    0  501 -0.00000000000E+00 -0.00000000000E+00 -0.31575388338E+03  0.31575388338E+03  0.00000000000E+00 0.  1.
         24    2    1    2    0    0 -0.55985114972E+02  0.96256771332E+02  0.41079558025E+03  0.43313038479E+03  0.80307050435E+02 0.  0.
        254    2    1    2    0    0  0.55985114972E+02 -0.96256771332E+02  0.37125286456E+03  0.98042582679E+03  0.90055894491E+03 0.  0.
         23    2    4    4    0    0  0.35437688197E+03 -0.16997910250E+03 -0.94706756320E+02  0.41464639427E+03  0.92121619784E+02 0.  0.
         23    2    4    4    0    0 -0.29839176699E+03  0.73722331164E+02  0.46595962088E+03  0.56577943252E+03  0.92278758350E+02 0.  0.
          2    1    3    3  502    0 -0.39468682149E+02  0.10828103028E+03  0.36951742577E+03  0.38707323123E+03  0.00000000000E+00 0. -1.
         -1    1    3    3    0  502 -0.16516432823E+02 -0.12024258950E+02  0.41278154479E+02  0.46057153556E+02  0.00000000000E+00 0.  1.
         11    1    5    5    0    0  0.23424272798E+03 -0.15452826143E+03 -0.47322250299E+02  0.28458396751E+03  0.00000000000E+00 0. -1.
        -11    1    5    5    0    0  0.12013415399E+03 -0.15450841069E+02 -0.47384506022E+02  0.13006242676E+03  0.00000000000E+00 0.  1.
          3    1    6    6  503    0 -0.27441376424E+03  0.76024845471E+02  0.37024572907E+03  0.46708092557E+03  0.00000000000E+00 0. -1.
         -3    1    6    6    0  503 -0.23978002753E+02 -0.23025143070E+01  0.95713891807E+02  0.98698506945E+02  0.00000000000E+00 0.  1.
<mgrwt>
<rscale>  0 0.11775149E+04</rscale>
<asrwt>0</asrwt>
<pdfrwt beam="1">  1        2 0.16889266E+00 0.11775149E+04</pdfrwt>
<pdfrwt beam="2">  1       -1 0.48577521E-01 0.11775149E+04</pdfrwt>
<totfact> 0.10438165E+02</totfact>
</mgrwt>
</event>
<event>
12    6  0.9533401E-008  0.2710710E+04  0.7818608E-02  0.8331538E-01
         -1   -1    0    0    0  501 -0.00000000000E+00  0.00000000000E+00  0.10760046513E+04  0.10760046513E+04  0.00000000000E+00 0.  1.
          2   -1    0    0  501    0  0.00000000000E+00 -0.00000000000E+00 -0.17072299063E+04  0.17072299063E+04  0.00000000000E+00 0. -1.
         24    2    1    2    0    0 -0.62075343338E+03 -0.22605354528E+03  0.74851194463E+03  0.10014304047E+04  0.78470973984E+02 0.  0.
        254    2    1    2    0    0  0.62075343338E+03  0.22605354528E+03 -0.13797371997E+04  0.17818041530E+04  0.91362808022E+03 0.  0.
         23    2    4    4    0    0  0.84083886625E+03  0.16721976882E+03 -0.92173581714E+03  0.12620708771E+04  0.90848952720E+02 0.  0.
         23    2    4    4    0    0 -0.22008543286E+03  0.58833776463E+02 -0.45800138253E+03  0.51973327584E+03  0.91969563479E+02 0.  0.
          4    1    3    3  502    0 -0.27505973738E+03 -0.59101866529E+02  0.32209875375E+03  0.42766633831E+03  0.00000000000E+00 0. -1.
         -3    1    3    3    0  502 -0.34569369600E+03 -0.16695167875E+03  0.42641319088E+03  0.57376406637E+03  0.00000000000E+00 0.  1.
         11    1    5    5    0    0  0.28790296433E+03  0.98293820777E+02 -0.30194236824E+03  0.42862452778E+03  0.00000000000E+00 0. -1.
        -11    1    5    5    0    0  0.55293590191E+03  0.68925948042E+02 -0.61979344889E+03  0.83344634934E+03  0.00000000000E+00 0.  1.
          3    1    6    6  503    0 -0.40589741220E+02  0.39223652175E+02 -0.58341087567E+02  0.81176994775E+02  0.00000000000E+00 0. -1.
         -3    1    6    6    0  503 -0.17949569164E+03  0.19610124288E+02 -0.39966029496E+03  0.43855628107E+03  0.00000000000E+00 0.  1.
<mgrwt>
<rscale>  0 0.27107101E+04</rscale>
<asrwt>0</asrwt>
<pdfrwt beam="1">  1        2 0.26265075E+00 0.27107101E+04</pdfrwt>
<pdfrwt beam="2">  1       -1 0.16553918E+00 0.27107101E+04</pdfrwt>
<totfact> 0.25742700E+00</totfact>
</mgrwt>
</event>
<event>
12    6  0.9533401E-008  0.1775333E+04  0.7818608E-02  0.8719528E-01
          2   -1    0    0  501    0  0.00000000000E+00  0.00000000000E+00  0.12623526646E+04  0.12623526646E+04  0.00000000000E+00 0. -1.
         -1   -1    0    0    0  501 -0.00000000000E+00 -0.00000000000E+00 -0.62419282648E+03  0.62419282648E+03  0.00000000000E+00 0.  1.
         24    2    1    2    0    0  0.94382210192E+02  0.33567923954E+03 -0.35926411004E+03  0.50323371262E+03  0.50842062265E+02 0.  0.
        254    2    1    2    0    0 -0.94382210192E+02 -0.33567923954E+03  0.99742394817E+03  0.13833117785E+04  0.89280926888E+03 0.  0.
         23    2    4    4    0    0 -0.47737478514E+03 -0.90431638686E+02  0.50744495471E+03  0.70878748545E+03  0.93886903841E+02 0.  0.
         23    2    4    4    0    0  0.38299257495E+03 -0.24524760086E+03  0.48997899346E+03  0.67452429301E+03  0.89854936656E+02 0.  0.
          2    1    3    3  502    0  0.70167857474E+01  0.16704936597E+02 -0.38302497266E+02  0.42371824197E+02  0.00000000000E+00 0. -1.
         -1    1    3    3    0  502  0.87365424445E+02  0.31897430294E+03 -0.32096161277E+03  0.46086188842E+03  0.00000000000E+00 0.  1.
         11    1    5    5    0    0 -0.18847331750E+03 -0.19097885177E+02  0.26045687170E+03  0.32206319666E+03  0.00000000000E+00 0. -1.
        -11    1    5    5    0    0 -0.28890146764E+03 -0.71333753508E+02  0.24698808301E+03  0.38672428879E+03  0.00000000000E+00 0.  1.
          4    1    6    6  503    0  0.32769729300E+03 -0.19667323537E+03  0.35938075210E+03  0.52461452738E+03  0.00000000000E+00 0. -1.
         -4    1    6    6    0  503  0.55295281944E+02 -0.48574365490E+02  0.13059824135E+03  0.14990976563E+03  0.00000000000E+00 0.  1.
<mgrwt>
<rscale>  0 0.17753326E+04</rscale>
<asrwt>0</asrwt>
<pdfrwt beam="1">  1        2 0.19420810E+00 0.17753326E+04</pdfrwt>
<pdfrwt beam="2">  1       -1 0.96029666E-01 0.17753326E+04</pdfrwt>
<totfact> 0.19604591E+01</totfact>
</mgrwt>
</event>
<event>
12    6  0.9533401E-008  0.2039382E+04  0.7818608E-02  0.8588426E-01
          2   -1    0    0  501    0  0.00000000000E+00  0.00000000000E+00  0.25919588075E+04  0.25919588075E+04  0.00000000000E+00 0. -1.
         -1   -1    0    0    0  501 -0.00000000000E+00 -0.00000000000E+00 -0.40115228956E+03  0.40115228956E+03  0.00000000000E+00 0.  1.
         24    2    1    2    0    0 -0.68437096505E+03 -0.15436823971E+03  0.26782172059E+03  0.75556505971E+03  0.83408118320E+02 0.  0.
        254    2    1    2    0    0  0.68437096505E+03  0.15436823971E+03  0.19229847974E+04  0.22375460374E+04  0.90363076930E+03 0.  0.
         23    2    4    4    0    0 -0.12524368740E+03  0.24026071321E+03  0.78291329535E+03  0.83352743739E+03  0.91670983974E+02 0.  0.
         23    2    4    4    0    0  0.80961465244E+03 -0.85892473501E+02  0.11400715020E+04  0.14040186000E+04  0.93015036073E+02 0.  0.
          2    1    3    3  502    0 -0.54629203491E+02  0.31395742193E+01  0.39320435325E+02  0.67381773755E+02  0.00000000000E+00 0. -1.
         -1    1    3    3    0  502 -0.62974176155E+03 -0.15750781393E+03  0.22850128526E+03  0.68818328595E+03  0.00000000000E+00 0.  1.
         11    1    5    5    0    0 -0.10900214879E+03  0.11367784267E+03  0.46540686344E+03  0.49133254410E+03  0.00000000000E+00 0. -1.
        -11    1    5    5    0    0 -0.16241538609E+02  0.12658287054E+03  0.31750643191E+03  0.34219489329E+03  0.00000000000E+00 0.  1.
          2    1    6    6  503    0  0.42546777290E+03 -0.21613777093E+02  0.66410184108E+03  0.78900014985E+03  0.00000000000E+00 0. -1.
         -2    1    6    6    0  503  0.38414687954E+03 -0.64278696408E+02  0.47596966095E+03  0.61501845014E+03  0.00000000000E+00 0.  1.
<mgrwt>
<rscale>  0 0.20393825E+04</rscale>
<asrwt>0</asrwt>
<pdfrwt beam="1">  1        2 0.39876288E+00 0.20393825E+04</pdfrwt>
<pdfrwt beam="2">  1       -1 0.61715738E-01 0.20393825E+04</pdfrwt>
<totfact> 0.86417367E+00</totfact>
</mgrwt>
</event>
<event>
12    6  0.9533401E-008  0.2719636E+04  0.7818608E-02  0.8328662E-01
          2   -1    0    0  501    0  0.00000000000E+00  0.00000000000E+00  0.17064337853E+04  0.17064337853E+04  0.00000000000E+00 0. -1.
         -1   -1    0    0    0  501 -0.00000000000E+00 -0.00000000000E+00 -0.10836078736E+04  0.10836078736E+04  0.00000000000E+00 0.  1.
         24    2    1    2    0    0 -0.98926754350E+03 -0.53550861460E+03  0.73777369352E+03  0.13476795923E+04  0.80687742785E+02 0.  0.
        254    2    1    2    0    0  0.98926754350E+03  0.53550861460E+03 -0.11494778182E+03  0.14423620666E+04  0.89541922569E+03 0.  0.
         23    2    4    4    0    0  0.33364523907E+03 -0.23791506475E+03 -0.40139014889E+02  0.42165641229E+03  0.90886005091E+02 0.  0.
         23    2    4    4    0    0  0.65562230442E+03  0.77342367935E+03 -0.74808766929E+02  0.10207056543E+04  0.90658079206E+02 0.  0.
          4    1    3    3  502    0 -0.12113577354E+03 -0.66353991507E+02  0.60269245333E+02  0.15069542048E+03  0.00000000000E+00 0. -1.
         -3    1    3    3    0  502 -0.86813176996E+03 -0.46915462310E+03  0.67750444819E+03  0.11969841719E+04  0.00000000000E+00 0.  1.
         11    1    5    5    0    0  0.21359531002E+03 -0.20201855985E+03 -0.19265965230E+02  0.29462795591E+03  0.00000000000E+00 0.  1.
        -11    1    5    5    0    0  0.12004992905E+03 -0.35896504898E+02 -0.20873049659E+02  0.12702845638E+03  0.00000000000E+00 0. -1.
          3    1    6    6  503    0  0.34606130429E+03  0.46088262682E+03 -0.71796684297E+02  0.58079771514E+03  0.00000000000E+00 0. -1.
         -3    1    6    6    0  503  0.30956100013E+03  0.31254105253E+03 -0.30120826311E+01  0.43990793919E+03  0.00000000000E+00 0.  1.
<mgrwt>
<rscale>  0 0.27196361E+04</rscale>
<asrwt>0</asrwt>
<pdfrwt beam="1">  1        2 0.26252827E+00 0.27196361E+04</pdfrwt>
<pdfrwt beam="2">  1       -1 0.16670890E+00 0.27196361E+04</pdfrwt>
<totfact> 0.25239073E+00</totfact>
</mgrwt>
</event>
<event>
12    6  0.9533401E-008  0.1606574E+04  0.7818608E-02  0.8816520E-01
         -1   -1    0    0    0  501 -0.00000000000E+00  0.00000000000E+00  0.50313510593E+03  0.50313510593E+03  0.00000000000E+00 0.  1.
          2   -1    0    0  501    0  0.00000000000E+00 -0.00000000000E+00 -0.12824979605E+04  0.12824979605E+04  0.00000000000E+00 0. -1.
         24    2    1    2    0    0 -0.20306583599E+03 -0.15752690263E+03 -0.81651815575E+03  0.85947527367E+03  0.77106345944E+02 0.  0.
        254    2    1    2    0    0  0.20306583599E+03  0.15752690263E+03  0.37155301188E+02  0.92615779274E+03  0.88900915735E+03 0.  0.
         23    2    4    4    0    0 -0.98885963383E+02  0.46452880044E+03  0.44692278631E+02  0.48603621172E+03  0.93104023235E+02 0.  0.
         23    2    4    4    0    0  0.30195179937E+03 -0.30700189781E+03 -0.75369774433E+01  0.44012158103E+03  0.90692588748E+02 0.  0.
          2    1    3    3  502    0 -0.89232798337E+02 -0.11638524450E+03 -0.47631691091E+03  0.49838320302E+03  0.00000000000E+00 0. -1.
         -1    1    3    3    0  502 -0.11383303765E+03 -0.41141658130E+02 -0.34020124484E+03  0.36109207065E+03  0.00000000000E+00 0.  1.
         11    1    5    5    0    0 -0.11527030579E+02  0.35061106950E+02  0.29941913946E+02  0.47525486481E+02  0.00000000000E+00 0. -1.
        -11    1    5    5    0    0 -0.87358932804E+02  0.42946769349E+03  0.14750364685E+02  0.43851072524E+03  0.00000000000E+00 0.  1.
          1    1    6    6  503    0  0.25884732231E+02 -0.22619665056E+00 -0.90288972239E+01  0.27415169390E+02  0.00000000000E+00 0. -1.
         -1    1    6    6    0  503  0.27606706714E+03 -0.30677570116E+03  0.14919197806E+01  0.41270641164E+03  0.00000000000E+00 0.  1.
<mgrwt>
<rscale>  0 0.16065737E+04</rscale>
<asrwt>0</asrwt>
<pdfrwt beam="1">  1        2 0.19730738E+00 0.16065737E+04</pdfrwt>
<pdfrwt beam="2">  1       -1 0.77405400E-01 0.16065737E+04</pdfrwt>
<totfact> 0.30943116E+01</totfact>
</mgrwt>
</event>
<event>
12    6  0.9533401E-008  0.1953440E+04  0.7818608E-02  0.8628704E-01
          2   -1    0    0  501    0  0.00000000000E+00  0.00000000000E+00  0.17135546476E+04  0.17135546476E+04  0.00000000000E+00 0. -1.
         -1   -1    0    0    0  501 -0.00000000000E+00 -0.00000000000E+00 -0.55672666820E+03  0.55672666820E+03  0.00000000000E+00 0.  1.
         24    2    1    2    0    0 -0.75447920826E+03  0.15169540536E+03  0.43753993264E+03  0.88890916239E+03  0.80423470595E+02 0.  0.
        254    2    1    2    0    0  0.75447920826E+03 -0.15169540536E+03  0.71928804674E+03  0.13813721534E+04  0.89362372411E+03 0.  0.
         23    2    4    4    0    0  0.55815418301E+03 -0.40330302060E+03  0.13225775792E+03  0.70701539362E+03  0.90494385742E+02 0.  0.
         23    2    4    4    0    0  0.19632502525E+03  0.25160761523E+03  0.58703028882E+03  0.67435675977E+03  0.91118449708E+02 0.  0.
          2    1    3    3  502    0 -0.23754334170E+03  0.14651725678E+02  0.15562406236E+03  0.28435956294E+03  0.00000000000E+00 0. -1.
         -3    1    3    3    0  502 -0.51693586656E+03  0.13704367968E+03  0.28191587028E+03  0.60454959945E+03  0.00000000000E+00 0.  1.
         11    1    5    5    0    0  0.26657964995E+03 -0.14861505803E+03  0.86159581042E+02  0.31713501643E+03  0.00000000000E+00 0. -1.
        -11    1    5    5    0    0  0.29157453306E+03 -0.25468796257E+03  0.46098176878E+02  0.38988037719E+03  0.00000000000E+00 0.  1.
          4    1    6    6  503    0  0.13251173978E+03  0.19548003282E+03  0.49864747786E+03  0.55174370100E+03  0.00000000000E+00 0.  1.
         -4    1    6    6    0  503  0.63813285467E+02  0.56127582415E+02  0.88382810959E+02  0.12261305878E+03  0.00000000000E+00 0. -1.
<mgrwt>
<rscale>  0 0.19534396E+04</rscale>
<asrwt>0</asrwt>
<pdfrwt beam="1">  1        2 0.26362379E+00 0.19534396E+04</pdfrwt>
<pdfrwt beam="2">  1       -1 0.85650258E-01 0.19534396E+04</pdfrwt>
<totfact> 0.13784545E+01</totfact>
</mgrwt>
</event>
<event>
12    6  0.9533401E-008  0.1549700E+04  0.7818608E-02  0.8852059E-01
         -1   -1    0    0    0  501 -0.00000000000E+00  0.00000000000E+00  0.53075744856E+03  0.53075744856E+03  0.00000000000E+00 0.  1.
          2   -1    0    0  501    0  0.00000000000E+00 -0.00000000000E+00 -0.11311995690E+04  0.11311995690E+04  0.00000000000E+00 0. -1.
         24    2    1    2    0    0 -0.90437502194E+02 -0.11946135061E+03  0.33161409356E+03  0.37278712407E+03  0.80946752454E+02 0.  0.
        254    2    1    2    0    0  0.90437502194E+02  0.11946135061E+03 -0.93205621403E+03  0.12891698935E+04  0.87794092747E+03 0.  0.
         23    2    4    4    0    0  0.29567875687E+03 -0.13523633948E+03 -0.46359048235E+02  0.34069696414E+03  0.90611617599E+02 0.  0.
         23    2    4    4    0    0 -0.20524125467E+03  0.25469769009E+03 -0.88569716579E+03  0.94847292937E+03  0.90258197930E+02 0.  0.
          2    1    3    3  502    0 -0.58345733093E+01 -0.22072935882E+00 -0.37496208683E+01  0.69390650528E+01  0.00000000000E+00 0. -1.
         -1    1    3    3    0  502 -0.84602928885E+02 -0.11924062125E+03  0.33536371443E+03  0.36584805902E+03  0.00000000000E+00 0.  1.
         11    1    5    5    0    0 -0.67229411350E+01 -0.16549381453E+01 -0.52919694275E+00  0.69438323117E+01  0.00000000000E+00 0. -1.
        -11    1    5    5    0    0  0.30240169800E+03 -0.13358140134E+03 -0.45829851292E+02  0.33375313183E+03  0.00000000000E+00 0.  1.
          1    1    6    6  503    0 -0.73670697024E+02  0.38739750911E+02 -0.27989009390E+03  0.29200445983E+03  0.00000000000E+00 0. -1.
         -1    1    6    6    0  503 -0.13157055765E+03  0.21595793918E+03 -0.60580707189E+03  0.65646846953E+03  0.00000000000E+00 0.  1.
<mgrwt>
<rscale>  0 0.15497001E+04</rscale>
<asrwt>0</asrwt>
<pdfrwt beam="1">  1        2 0.17403070E+00 0.15497001E+04</pdfrwt>
<pdfrwt beam="2">  1       -1 0.81654993E-01 0.15497001E+04</pdfrwt>
<totfact> 0.34172332E+01</totfact>
</mgrwt>
</event>
<event>
12    6  0.9533401E-008  0.2301276E+04  0.7818608E-02  0.8477418E-01
          2   -1    0    0  501    0  0.00000000000E+00  0.00000000000E+00  0.15208142168E+04  0.15208142168E+04  0.00000000000E+00 0. -1.
         -1   -1    0    0    0  501 -0.00000000000E+00 -0.00000000000E+00 -0.87056479966E+03  0.87056479966E+03  0.00000000000E+00 0.  1.
         24    2    1    2    0    0  0.97066826454E+03  0.67649162944E+02  0.26849746895E+03  0.10125921251E+04  0.80489948891E+02 0.  0.
        254    2    1    2    0    0 -0.97066826454E+03 -0.67649162944E+02  0.38175194823E+03  0.13787868914E+04  0.89919155524E+03 0.  0.
         23    2    4    4    0    0 -0.44303459930E+02  0.30045219896E+03  0.15325933803E+03  0.35209804437E+03  0.90831094552E+02 0.  0.
         23    2    4    4    0    0 -0.92636480461E+03 -0.36810136190E+03  0.22849261019E+03  0.10266888471E+04  0.90723491617E+02 0.  0.
          4    1    3    3  502    0  0.57665286072E+03  0.76579852703E+02  0.14390920586E+03  0.59925191293E+03  0.00000000000E+00 0. -1.
         -3    1    3    3    0  502  0.39401540381E+03 -0.89306897591E+01  0.12458826309E+03  0.41334021213E+03  0.00000000000E+00 0.  1.
         11    1    5    5    0    0 -0.23335815824E+02  0.21323735095E+03  0.15107654944E+03  0.26237159132E+03  0.00000000000E+00 0. -1.
        -11    1    5    5    0    0 -0.20967644105E+02  0.87214848008E+02  0.21827885975E+01  0.89726453059E+02  0.00000000000E+00 0.  1.
          2    1    6    6  503    0 -0.72945659651E+03 -0.30202988834E+03  0.21643777271E+03  0.81864173427E+03  0.00000000000E+00 0. -1.
         -2    1    6    6    0  503 -0.19690820810E+03 -0.66071473567E+02  0.12054837488E+02  0.20804711280E+03  0.00000000000E+00 0.  1.
<mgrwt>
<rscale>  0 0.23012756E+04</rscale>
<asrwt>0</asrwt>
<pdfrwt beam="1">  1        2 0.23397142E+00 0.23012756E+04</pdfrwt>
<pdfrwt beam="2">  1       -1 0.13393305E+00 0.23012756E+04</pdfrwt>
<totfact> 0.59977671E+00</totfact>
</mgrwt>
</event>
<event>
12    6  0.9533401E-008  0.2148218E+04  0.7818608E-02  0.8540295E-01
         -1   -1    0    0    0  501 -0.00000000000E+00  0.00000000000E+00  0.63189068287E+03  0.63189068287E+03  0.00000000000E+00 0.  1.
          2   -1    0    0  501    0  0.00000000000E+00 -0.00000000000E+00 -0.18258065112E+04  0.18258065112E+04  0.00000000000E+00 0. -1.
         24    2    1    2    0    0 -0.60558222988E+03 -0.56604479902E+03 -0.15213087158E+03  0.84713690503E+03  0.85793835060E+02 0.  0.
        254    2    1    2    0    0  0.60558222988E+03  0.56604479902E+03 -0.10417849567E+04  0.16105602890E+04  0.90633989033E+03 0.  0.
         23    2    4    4    0    0  0.72885136219E+03  0.67370036231E+03 -0.10134302206E+04  0.14213463393E+04  0.89933964755E+02 0.  0.
         23    2    4    4    0    0 -0.12326913231E+03 -0.10765556329E+03 -0.28354736155E+02  0.18921394967E+03  0.90625208418E+02 0.  0.
          2    1    3    3  502    0 -0.59311433139E+03 -0.54405199433E+03 -0.13375855791E+03  0.81588512332E+03  0.00000000000E+00 0. -1.
         -1    1    3    3    0  502 -0.12467898487E+02 -0.21992804692E+02 -0.18372313663E+02  0.31251781713E+02  0.00000000000E+00 0.  1.
         11    1    5    5    0    0  0.70564104930E+03  0.65549428157E+03 -0.95736794780E+03  0.13579968450E+04  0.00000000000E+00 0. -1.
        -11    1    5    5    0    0  0.23210312888E+02  0.18206080737E+02 -0.56062272757E+02  0.63349494290E+02  0.00000000000E+00 0.  1.
          1    1    6    6  503    0 -0.11925115899E+03 -0.11873156972E+03 -0.39654731265E+02  0.17288875695E+03  0.00000000000E+00 0. -1.
         -1    1    6    6    0  503 -0.40179733160E+01  0.11076006426E+02  0.11299995109E+02  0.16325192721E+02  0.00000000000E+00 0.  1.
<mgrwt>
<rscale>  0 0.21482180E+04</rscale>
<asrwt>0</asrwt>
<pdfrwt beam="1">  1        2 0.28089330E+00 0.21482180E+04</pdfrwt>
<pdfrwt beam="2">  1       -1 0.97213954E-01 0.21482180E+04</pdfrwt>
<totfact> 0.88690128E+00</totfact>
</mgrwt>
</event>
<event>
12    6  0.9533401E-008  0.1747002E+04  0.7818608E-02  0.8735002E-01
          2   -1    0    0  501    0  0.00000000000E+00  0.00000000000E+00  0.12826710884E+04  0.12826710884E+04  0.00000000000E+00 0. -1.
         -1   -1    0    0    0  501 -0.00000000000E+00 -0.00000000000E+00 -0.59485559318E+03  0.59485559318E+03  0.00000000000E+00 0.  1.
         24    2    1    2    0    0 -0.49074417757E+03 -0.23165278868E+03  0.57307822634E+03  0.79330274983E+03  0.80110779928E+02 0.  0.
        254    2    1    2    0    0  0.49074417757E+03  0.23165278868E+03  0.11473726891E+03  0.10842239318E+04  0.93160293637E+03 0.  0.
         23    2    4    4    0    0  0.91177902406E+02 -0.15015595324E+03  0.40579943892E+03  0.45279798168E+03  0.97430012838E+02 0.  0.
         23    2    4    4    0    0  0.39956627516E+03  0.38180874192E+03 -0.29106217001E+03  0.63142595010E+03  0.92468481110E+02 0.  0.
          4    1    3    3  502    0 -0.49355010987E+03 -0.23050579013E+03  0.56571261067E+03  0.78533775416E+03  0.00000000000E+00 0. -1.
         -3    1    3    3    0  502  0.28059323065E+01 -0.11469985509E+01  0.73656156697E+01  0.79649956672E+01  0.00000000000E+00 0.  1.
         11    1    5    5    0    0 -0.14090501197E+01 -0.36144478925E+02  0.23189123727E+02  0.42966780636E+02  0.00000000000E+00 0. -1.
        -11    1    5    5    0    0  0.92586952526E+02 -0.11401147432E+03  0.38261031520E+03  0.40983120104E+03  0.00000000000E+00 0.  1.
          3    1    6    6  503    0  0.74165781749E+02  0.12672935063E+03 -0.79692425180E+02  0.16706817209E+03  0.00000000000E+00 0. -1.
         -3    1    6    6    0  503  0.32540049341E+03  0.25507939129E+03 -0.21136974483E+03  0.46435777802E+03  0.00000000000E+00 0.  1.
<mgrwt>
<rscale>  0 0.17470021E+04</rscale>
<asrwt>0</asrwt>
<pdfrwt beam="1">  1        2 0.19733401E+00 0.17470021E+04</pdfrwt>
<pdfrwt beam="2">  1       -1 0.91516246E-01 0.17470021E+04</pdfrwt>
<totfact> 0.21290925E+01</totfact>
</mgrwt>
</event>
<event>
12    6  0.9533401E-008  0.2146377E+04  0.7818608E-02  0.8541085E-01
         -1   -1    0    0    0  501 -0.00000000000E+00  0.00000000000E+00  0.77317230755E+03  0.77317230755E+03  0.00000000000E+00 0.  1.
          2   -1    0    0  501    0  0.00000000000E+00 -0.00000000000E+00 -0.14896202565E+04  0.14896202565E+04  0.00000000000E+00 0. -1.
         24    2    1    2    0    0  0.76001298450E+03 -0.13772308549E+03 -0.74589582955E+03  0.10766969497E+04  0.79550914778E+02 0.  0.
        254    2    1    2    0    0 -0.76001298450E+03  0.13772308549E+03  0.29447880618E+02  0.11860956144E+04  0.89964895589E+03 0.  0.
         23    2    4    4    0    0 -0.89359167065E+02  0.43015596745E+03  0.32009172350E+01  0.44854787822E+03  0.90364462684E+02 0.  0.
         23    2    4    4    0    0 -0.67065381744E+03 -0.29243288196E+03  0.26246963383E+02  0.73754773613E+03  0.89410439512E+02 0.  0.
          4    1    3    3  502    0  0.49446722920E+03 -0.10356083021E+03 -0.43754875160E+03  0.66833494322E+03  0.00000000000E+00 0. -1.
         -3    1    3    3    0  502  0.26554575530E+03 -0.34162255279E+02 -0.30834707795E+03  0.40836200647E+03  0.00000000000E+00 0.  1.
         11    1    5    5    0    0 -0.16389271275E+02  0.29049115571E+03  0.31083746117E+01  0.29096972652E+03  0.00000000000E+00 0.  1.
        -11    1    5    5    0    0 -0.72969895790E+02  0.13966481174E+03  0.92542623250E-01  0.15757815170E+03  0.00000000000E+00 0. -1.
          4    1    6    6  503    0 -0.19798670633E+03 -0.10301156773E+03  0.46338929509E+02  0.22794169289E+03  0.00000000000E+00 0. -1.
         -4    1    6    6    0  503 -0.47266711110E+03 -0.18942131423E+03 -0.20091966126E+02  0.50960604324E+03  0.00000000000E+00 0.  1.
<mgrwt>
<rscale>  0 0.21463766E+04</rscale>
<asrwt>0</asrwt>
<pdfrwt beam="1">  1        2 0.22917235E+00 0.21463766E+04</pdfrwt>
<pdfrwt beam="2">  1       -1 0.11894959E+00 0.21463766E+04</pdfrwt>
<totfact> 0.85131641E+00</totfact>
</mgrwt>
</event>
<event>
12    6  0.9533401E-008  0.2349865E+04  0.7818608E-02  0.8458516E-01
         -1   -1    0    0    0  501 -0.00000000000E+00  0.00000000000E+00  0.12523270558E+04  0.12523270558E+04  0.00000000000E+00 0.  1.
          2   -1    0    0  501    0  0.00000000000E+00 -0.00000000000E+00 -0.11023207047E+04  0.11023207047E+04  0.00000000000E+00 0. -1.
         24    2    1    2    0    0 -0.88342219179E+03 -0.29106504059E+03 -0.30402583642E+03  0.98194671651E+03  0.81449481588E+02 0.  0.
        254    2    1    2    0    0  0.88342219179E+03  0.29106504059E+03  0.45403218753E+03  0.13727010440E+04  0.90167028458E+03 0.  0.
         23    2    4    4    0    0  0.38828202780E+03  0.16214350017E+03  0.68049995508E+03  0.80509078916E+03  0.89652340502E+02 0.  0.
         23    2    4    4    0    0  0.49514016399E+03  0.12892154041E+03 -0.22646776756E+03  0.56761025484E+03  0.95442160930E+02 0.  0.
          4    1    3    3  502    0 -0.57404699883E+03 -0.21610626691E+03 -0.23035593333E+03  0.65520663266E+03  0.00000000000E+00 0. -1.
         -3    1    3    3    0  502 -0.30937519296E+03 -0.74958773681E+02 -0.73669903083E+02  0.32674008385E+03  0.00000000000E+00 0.  1.
         11    1    5    5    0    0  0.18181206376E+03  0.12147256725E+03  0.31762521160E+03  0.38561248186E+03  0.00000000000E+00 0.  1.
        -11    1    5    5    0    0  0.20646996404E+03  0.40670932927E+02  0.36287474348E+03  0.41947830730E+03  0.00000000000E+00 0. -1.
          2    1    6    6  503    0 -0.26468170219E+01 -0.39955847104E+01  0.37316553245E-01  0.47928832712E+01  0.00000000000E+00 0.  1.
         -2    1    6    6    0  503  0.49778698101E+03  0.13291712512E+03 -0.22650508411E+03  0.56281737157E+03  0.00000000000E+00 0. -1.
<mgrwt>
<rscale>  0 0.23498647E+04</rscale>
<asrwt>0</asrwt>
<pdfrwt beam="1">  1        2 0.16958780E+00 0.23498647E+04</pdfrwt>
<pdfrwt beam="2">  1       -1 0.19266570E+00 0.23498647E+04</pdfrwt>
<totfact> 0.37832992E+00</totfact>
</mgrwt>
</event>
<event>
12    6  0.9533401E-008  0.1443688E+04  0.7818608E-02  0.8922788E-01
         -1   -1    0    0    0  501 -0.00000000000E+00  0.00000000000E+00  0.10813095571E+04  0.10813095571E+04  0.00000000000E+00 0.  1.
          2   -1    0    0  501    0  0.00000000000E+00 -0.00000000000E+00 -0.48187733191E+03  0.48187733191E+03  0.00000000000E+00 0. -1.
         24    2    1    2    0    0 -0.31741952410E+03  0.16841514533E+03  0.45372117191E+03  0.58422798844E+03  0.79628042699E+02 0.  0.
        254    2    1    2    0    0  0.31741952410E+03 -0.16841514533E+03  0.14571105326E+03  0.97895890055E+03  0.89889376595E+03 0.  0.
         23    2    4    4    0    0 -0.26802378631E+03  0.10360723116E+03 -0.32697206555E+02  0.30368163090E+03  0.92640257188E+02 0.  0.
         23    2    4    4    0    0  0.58544331041E+03 -0.27202237649E+03  0.17840825982E+03  0.67527726964E+03  0.86196523782E+02 0.  0.
          4    1    3    3  502    0 -0.34204156206E+02  0.49554480569E+02  0.61688754410E+02  0.86203673163E+02  0.00000000000E+00 0. -1.
         -3    1    3    3    0  502 -0.28321536789E+03  0.11886066476E+03  0.39203241750E+03  0.49802431528E+03  0.00000000000E+00 0.  1.
         11    1    5    5    0    0 -0.80040525298E+02 -0.10583430622E+02  0.33127954089E+01  0.80805131689E+02  0.00000000000E+00 0. -1.
        -11    1    5    5    0    0 -0.18798326102E+03  0.11419066178E+03 -0.36010001964E+02  0.22287649921E+03  0.00000000000E+00 0.  1.
          1    1    6    6  503    0  0.92958770380E+02 -0.17482404550E+02  0.46618448459E+02  0.10545258269E+03  0.00000000000E+00 0. -1.
         -1    1    6    6    0  503  0.49248454003E+03 -0.25453997194E+03  0.13178981136E+03  0.56982468695E+03  0.00000000000E+00 0.  1.
<mgrwt>
<rscale>  0 0.14436877E+04</rscale>
<asrwt>0</asrwt>
<pdfrwt beam="1">  1        2 0.74134974E-01 0.14436877E+04</pdfrwt>
<pdfrwt beam="2">  1       -1 0.16635532E+00 0.14436877E+04</pdfrwt>
<totfact> 0.18670324E+01</totfact>
</mgrwt>
</event>
<event>
12    6  0.9533401E-008  0.2016623E+04  0.7818608E-02  0.8598888E-01
         -1   -1    0    0    0  501 -0.00000000000E+00  0.00000000000E+00  0.28551426786E+03  0.28551426786E+03  0.00000000000E+00 0.  1.
          2   -1    0    0  501    0  0.00000000000E+00 -0.00000000000E+00 -0.35609168702E+04  0.35609168702E+04  0.00000000000E+00 0. -1.
         24    2    1    2    0    0  0.62536779053E+03  0.36667730147E+03 -0.74506658075E+03  0.10439065218E+04  0.95286408653E+02 0.  0.
        254    2    1    2    0    0 -0.62536779053E+03 -0.36667730147E+03 -0.25303360216E+04  0.28025246163E+04  0.96229243257E+03 0.  0.
         23    2    4    4    0    0  0.65348197253E+01  0.15583596124E+03 -0.46668246446E+02  0.18550323335E+03  0.88915542346E+02 0.  0.
         23    2    4    4    0    0 -0.63190261025E+03 -0.52251326271E+03 -0.24836677752E+04  0.26170213830E+04  0.88737155776E+02 0.  0.
          4    1    3    3  502    0  0.60117818182E+03  0.34623024974E+03 -0.73493180639E+03  0.10106509547E+04  0.00000000000E+00 0. -1.
         -1    1    3    3    0  502  0.24189608708E+02  0.20447051734E+02 -0.10134774353E+02  0.33255567132E+02  0.00000000000E+00 0.  1.
         11    1    5    5    0    0  0.18763386784E+02  0.13930702526E+03 -0.67762996835E+02  0.15604594102E+03  0.00000000000E+00 0.  1.
        -11    1    5    5    0    0 -0.12228567058E+02  0.16528935983E+02  0.21094750389E+02  0.29457292323E+02  0.00000000000E+00 0. -1.
          1    1    6    6  503    0 -0.15529873562E+03 -0.81439328709E+02 -0.52732341047E+03  0.55571579136E+03  0.00000000000E+00 0. -1.
         -1    1    6    6    0  503 -0.47660387464E+03 -0.44107393400E+03 -0.19563443647E+04  0.20613055916E+04  0.00000000000E+00 0.  1.
<mgrwt>
<rscale>  0 0.20166235E+04</rscale>
<asrwt>0</asrwt>
<pdfrwt beam="1">  1        2 0.54783337E+00 0.20166235E+04</pdfrwt>
<pdfrwt beam="2">  1       -1 0.43925272E-01 0.20166235E+04</pdfrwt>
<totfact> 0.40074463E+00</totfact>
</mgrwt>
</event>
<event>
12    6  0.9533401E-008  0.1474803E+04  0.7818608E-02  0.8901384E-01
          2   -1    0    0  501    0  0.00000000000E+00  0.00000000000E+00  0.24042561172E+04  0.24042561172E+04  0.00000000000E+00 0. -1.
         -1   -1    0    0    0  501 -0.00000000000E+00 -0.00000000000E+00 -0.22616598185E+03  0.22616598185E+03  0.00000000000E+00 0.  1.
         24    2    1    2    0    0 -0.59855639522E+02 -0.86275236430E+02 -0.10504037198E+03  0.17492150140E+03  0.92400962661E+02 0.  0.
        254    2    1    2    0    0  0.59855639522E+02  0.86275236430E+02  0.22831305073E+04  0.24555005976E+04  0.89764812569E+03 0.  0.
         23    2    4    4    0    0 -0.14740767682E+03 -0.36181669188E+03  0.10652856909E+04  0.11383190692E+04  0.91084347360E+02 0.  0.
         23    2    4    4    0    0  0.20726331634E+03  0.44809192831E+03  0.12178448164E+04  0.13171815284E+04  0.89870593097E+02 0.  0.
          2    1    3    3  502    0 -0.51722723447E+02  0.14099098121E+01 -0.41524722066E+02  0.66344031451E+02  0.00000000000E+00 0. -1.
         -1    1    3    3    0  502 -0.81329160754E+01 -0.87685146242E+02 -0.63515649915E+02  0.10857746994E+03  0.00000000000E+00 0.  1.
         11    1    5    5    0    0 -0.14293254118E+03 -0.33894267447E+03  0.91394391925E+03  0.98519304475E+03  0.00000000000E+00 0.  1.
        -11    1    5    5    0    0 -0.44751356366E+01 -0.22874017411E+02  0.15134177167E+03  0.15312602445E+03  0.00000000000E+00 0. -1.
          3    1    6    6  503    0  0.39233937788E+02  0.26023003978E+02  0.13157904979E+03  0.13974814830E+03  0.00000000000E+00 0. -1.
         -3    1    6    6    0  503  0.16802937855E+03  0.42206892433E+03  0.10862657666E+04  0.11774333801E+04  0.00000000000E+00 0.  1.
<mgrwt>
<rscale>  0 0.14748030E+04</rscale>
<asrwt>0</asrwt>
<pdfrwt beam="1">  1        2 0.36988554E+00 0.14748030E+04</pdfrwt>
<pdfrwt beam="2">  1       -1 0.34794768E-01 0.14748030E+04</pdfrwt>
<totfact> 0.34258170E+01</totfact>
</mgrwt>
</event>
<event>
12    6  0.9533401E-008  0.1865405E+04  0.7818608E-02  0.8672271E-01
          2   -1    0    0  501    0  0.00000000000E+00  0.00000000000E+00  0.15030843914E+04  0.15030843914E+04  0.00000000000E+00 0. -1.
         -1   -1    0    0    0  501 -0.00000000000E+00 -0.00000000000E+00 -0.57876578648E+03  0.57876578648E+03  0.00000000000E+00 0.  1.
         24    2    1    2    0    0 -0.14567469509E+03 -0.46909134747E+03  0.93507720363E+03  0.10592620841E+04  0.79993605569E+02 0.  0.
        254    2    1    2    0    0  0.14567469509E+03  0.46909134747E+03 -0.10758598676E+02  0.10225880939E+04  0.89682933336E+03 0.  0.
         23    2    4    4    0    0  0.11140576623E+03  0.20737053241E+03  0.43102288761E+03  0.49961241152E+03  0.91749929927E+02 0.  0.
         23    2    4    4    0    0  0.34268928863E+02  0.26172081506E+03 -0.44178148629E+03  0.52297568233E+03  0.93062012457E+02 0.  0.
          2    1    3    3  502    0 -0.11070359796E+03 -0.34561215811E+03  0.61030658775E+03  0.71005435107E+03  0.00000000000E+00 0. -1.
         -1    1    3    3    0  502 -0.34971097135E+02 -0.12347918936E+03  0.32477061589E+03  0.34920773300E+03  0.00000000000E+00 0.  1.
         11    1    5    5    0    0  0.37369798330E+00 -0.76662076997E+01  0.32229426235E+02  0.33130745632E+02  0.00000000000E+00 0. -1.
        -11    1    5    5    0    0  0.11103206825E+03  0.21503674011E+03  0.39879346138E+03  0.46648166589E+03  0.00000000000E+00 0.  1.
          4    1    6    6  503    0 -0.30406128559E+02  0.61991667538E+02 -0.92012349793E+02  0.11503813286E+03  0.00000000000E+00 0. -1.
         -4    1    6    6    0  503  0.64675057423E+02  0.19972914753E+03 -0.34976913649E+03  0.40793754947E+03  0.00000000000E+00 0.  1.
<mgrwt>
<rscale>  0 0.18654049E+04</rscale>
<asrwt>0</asrwt>
<pdfrwt beam="1">  1        2 0.23124375E+00 0.18654049E+04</pdfrwt>
<pdfrwt beam="2">  1       -1 0.89040891E-01 0.18654049E+04</pdfrwt>
<totfact> 0.16733630E+01</totfact>
</mgrwt>
</event>
<event>
12    6  0.9533401E-008  0.2840797E+04  0.7818608E-02  0.8290713E-01
          2   -1    0    0  501    0  0.00000000000E+00  0.00000000000E+00  0.15706496200E+04  0.15706496200E+04  0.00000000000E+00 0. -1.
         -1   -1    0    0    0  501 -0.00000000000E+00 -0.00000000000E+00 -0.12845210741E+04  0.12845210741E+04  0.00000000000E+00 0.  1.
         24    2    1    2    0    0 -0.89135469217E+03  0.44854850184E+03 -0.67123713054E+03  0.12052628889E+04  0.79939979134E+02 0.  0.
        254    2    1    2    0    0  0.89135469217E+03 -0.44854850184E+03  0.95736567643E+03  0.16499078052E+04  0.89996543346E+03 0.  0.
         23    2    4    4    0    0  0.80838691327E+03  0.31440803882E+02  0.76832672687E+03  0.11195224004E+04  0.92339158463E+02 0.  0.
         23    2    4    4    0    0  0.82967778896E+02 -0.47998930572E+03  0.18903894956E+03  0.53038540473E+03  0.91101960240E+02 0.  0.
          4    1    3    3  502    0 -0.10842915431E+03  0.85300715664E+02 -0.92145372267E+02  0.16590317425E+03  0.00000000000E+00 0. -1.
         -3    1    3    3    0  502 -0.78292553786E+03  0.36324778617E+03 -0.57909175827E+03  0.10393597147E+04  0.00000000000E+00 0.  1.
         11    1    5    5    0    0  0.18647099337E+03  0.25449211176E+02  0.22807198267E+03  0.29569565941E+03  0.00000000000E+00 0. -1.
        -11    1    5    5    0    0  0.62191591990E+03  0.59915927062E+01  0.54025474419E+03  0.82382674103E+03  0.00000000000E+00 0.  1.
          2    1    6    6  503    0  0.95937486168E+02 -0.33792871897E+03  0.11475662854E+03  0.36955230233E+03  0.00000000000E+00 0. -1.
         -2    1    6    6    0  503 -0.12969707272E+02 -0.14206058674E+03  0.74282321018E+02  0.16083310240E+03  0.00000000000E+00 0.  1.
<mgrwt>
<rscale>  0 0.28407974E+04</rscale>
<asrwt>0</asrwt>
<pdfrwt beam="1">  1        2 0.24163840E+00 0.28407974E+04</pdfrwt>
<pdfrwt beam="2">  1       -1 0.19761863E+00 0.28407974E+04</pdfrwt>
<totfact> 0.17879729E+00</totfact>
</mgrwt>
</event>
<event>
12    6  0.9533401E-008  0.1109667E+04  0.7818608E-02  0.9195821E-01
         -1   -1    0    0    0  501 -0.00000000000E+00  0.00000000000E+00  0.19178800949E+03  0.19178800949E+03  0.00000000000E+00 0.  1.
          2   -1    0    0  501    0  0.00000000000E+00 -0.00000000000E+00 -0.16051070641E+04  0.16051070641E+04  0.00000000000E+00 0. -1.
         24    2    1    2    0    0 -0.10801243910E+03  0.93500421248E+02 -0.39899802753E+03  0.43137598528E+03  0.80478561966E+02 0.  0.
        254    2    1    2    0    0  0.10801243910E+03 -0.93500421248E+02 -0.10143210271E+04  0.13655190883E+04  0.90298738572E+03 0.  0.
         23    2    4    4    0    0 -0.28305378763E+03 -0.24999685594E+03 -0.18338796864E+03  0.42970152108E+03  0.91620824626E+02 0.  0.
         23    2    4    4    0    0  0.39106622673E+03  0.15649643469E+03 -0.83093305844E+03  0.93581756722E+03  0.88774116488E+02 0.  0.
          4    1    3    3  502    0 -0.10816576696E+03  0.80273471575E+02 -0.39533214032E+03  0.41764957148E+03  0.00000000000E+00 0. -1.
         -3    1    3    3    0  502  0.15332785842E+00  0.13226949673E+02 -0.36658872028E+01  0.13726413809E+02  0.00000000000E+00 0.  1.
         11    1    5    5    0    0 -0.11320281058E+03 -0.47718007195E+02 -0.40232749812E+02  0.12926932618E+03  0.00000000000E+00 0. -1.
        -11    1    5    5    0    0 -0.16985097705E+03 -0.20227884874E+03 -0.14315521883E+03  0.30043219490E+03  0.00000000000E+00 0.  1.
          2    1    6    6  503    0  0.14220497566E+03  0.21885365669E+02 -0.33999220914E+03  0.36918278211E+03  0.00000000000E+00 0. -1.
         -2    1    6    6    0  503  0.24886125107E+03  0.13461106902E+03 -0.49094084930E+03  0.56663478511E+03  0.00000000000E+00 0.  1.
<mgrwt>
<rscale>  0 0.11096671E+04</rscale>
<asrwt>0</asrwt>
<pdfrwt beam="1">  1        2 0.24693955E+00 0.11096671E+04</pdfrwt>
<pdfrwt beam="2">  1       -1 0.29505847E-01 0.11096671E+04</pdfrwt>
<totfact> 0.13153133E+02</totfact>
</mgrwt>
</event>
<event>
12    6  0.9533401E-008  0.1919627E+04  0.7818608E-02  0.8645148E-01
         -1   -1    0    0    0  501 -0.00000000000E+00  0.00000000000E+00  0.44063676032E+03  0.44063676032E+03  0.00000000000E+00 0.  1.
          2   -1    0    0  501    0  0.00000000000E+00 -0.00000000000E+00 -0.20907051747E+04  0.20907051747E+04  0.00000000000E+00 0. -1.
         24    2    1    2    0    0 -0.37910964303E+03 -0.13859171870E+03  0.17991701081E+03  0.44875487113E+03  0.77968055309E+02 0.  0.
        254    2    1    2    0    0  0.37910964303E+03  0.13859171870E+03 -0.18299854252E+04  0.20825870639E+04  0.90851000895E+03 0.  0.
         23    2    4    4    0    0  0.75910408015E+02  0.42015209144E+03 -0.14461104711E+04  0.15105656408E+04  0.91010386922E+02 0.  0.
         23    2    4    4    0    0  0.30319923502E+03 -0.28156037274E+03 -0.38387495401E+03  0.57202142303E+03  0.92965092780E+02 0.  0.
          4    1    3    3  502    0 -0.29939271670E+01 -0.23079575019E+01  0.15981751963E+02  0.16422748355E+02  0.00000000000E+00 0. -1.
         -3    1    3    3    0  502 -0.37611571586E+03 -0.13628376120E+03  0.16393525885E+03  0.43233212277E+03  0.00000000000E+00 0.  1.
         11    1    5    5    0    0  0.11382744358E+02  0.28229294514E+03 -0.10035809120E+04  0.10425898142E+04  0.00000000000E+00 0. -1.
        -11    1    5    5    0    0  0.64527663657E+02  0.13785914631E+03 -0.44252955911E+03  0.46797582661E+03  0.00000000000E+00 0.  1.
          3    1    6    6  503    0  0.26432020629E+03 -0.25815516373E+03 -0.37370836796E+03  0.52551613134E+03  0.00000000000E+00 0. -1.
         -3    1    6    6    0  503  0.38879028722E+02 -0.23405209018E+02 -0.10166586053E+02  0.46505291694E+02  0.00000000000E+00 0.  1.
<mgrwt>
<rscale>  0 0.19196266E+04</rscale>
<asrwt>0</asrwt>
<pdfrwt beam="1">  1        2 0.32164695E+00 0.19196266E+04</pdfrwt>
<pdfrwt beam="2">  1       -1 0.67790271E-01 0.19196266E+04</pdfrwt>
<totfact> 0.13950870E+01</totfact>
</mgrwt>
</event>
<event>
12    6  0.9533401E-008  0.3129274E+04  0.7818608E-02  0.8207749E-01
          2   -1    0    0  501    0  0.00000000000E+00  0.00000000000E+00  0.25348360483E+04  0.25348360483E+04  0.00000000000E+00 0. -1.
         -1   -1    0    0    0  501 -0.00000000000E+00 -0.00000000000E+00 -0.96577821577E+03  0.96577821577E+03  0.00000000000E+00 0.  1.
         24    2    1    2    0    0  0.11523784759E+04  0.48288756533E+03 -0.63950915592E+02  0.12536857254E+04  0.80508546616E+02 0.  0.
        254    2    1    2    0    0 -0.11523784759E+04 -0.48288756533E+03  0.16330087482E+04  0.22469285387E+04  0.90598771184E+03 0.  0.
         23    2    4    4    0    0 -0.83371325296E+03 -0.13048430239E+03  0.43271917270E+03  0.95262568733E+03  0.90254509110E+02 0.  0.
         23    2    4    4    0    0 -0.31866522293E+03 -0.35240326294E+03  0.12002895755E+04  0.12943028514E+04  0.93750850879E+02 0.  0.
          4    1    3    3  502    0  0.75639165945E+03  0.35522632064E+03 -0.56557127472E+02  0.83756360357E+03  0.00000000000E+00 0. -1.
         -3    1    3    3    0  502  0.39598681644E+03  0.12766124469E+03 -0.73937881202E+01  0.41612212185E+03  0.00000000000E+00 0.  1.
         11    1    5    5    0    0 -0.29019376191E+03 -0.88060017953E+01  0.12276252781E+03  0.31521516993E+03  0.00000000000E+00 0. -1.
        -11    1    5    5    0    0 -0.54351949105E+03 -0.12167830059E+03  0.30995664489E+03  0.63741051741E+03  0.00000000000E+00 0.  1.
          3    1    6    6  503    0 -0.23122203907E+03 -0.24659786881E+03  0.73153348753E+03  0.80586312959E+03  0.00000000000E+00 0. -1.
         -3    1    6    6    0  503 -0.87443183859E+02 -0.10580539413E+03  0.46875608794E+03  0.48843972178E+03  0.00000000000E+00 0.  1.
<mgrwt>
<rscale>  0 0.31292743E+04</rscale>
<asrwt>0</asrwt>
<pdfrwt beam="1">  1        2 0.38997477E+00 0.31292743E+04</pdfrwt>
<pdfrwt beam="2">  1       -1 0.14858127E+00 0.31292743E+04</pdfrwt>
<totfact> 0.11444779E+00</totfact>
</mgrwt>
</event>
<event>
12    6  0.9533401E-008  0.1774446E+04  0.7818608E-02  0.8720008E-01
         -1   -1    0    0    0  501 -0.00000000000E+00  0.00000000000E+00  0.11378687651E+04  0.11378687651E+04  0.00000000000E+00 0.  1.
          2   -1    0    0  501    0  0.00000000000E+00 -0.00000000000E+00 -0.69178827492E+03  0.69178827492E+03  0.00000000000E+00 0. -1.
         24    2    1    2    0    0 -0.17727893648E+03 -0.36471248537E+03  0.68697225302E+03  0.80167971919E+03  0.79476269669E+02 0.  0.
        254    2    1    2    0    0  0.17727893648E+03  0.36471248537E+03 -0.24089176282E+03  0.10279773209E+04  0.91338136203E+03 0.  0.
         23    2    4    4    0    0 -0.25030386167E+03 -0.12045565659E+03 -0.23148021851E+03  0.37449727108E+03  0.97486030365E+02 0.  0.
         23    2    4    4    0    0  0.42758279815E+03  0.48516814196E+03 -0.94115443152E+01  0.65348004977E+03  0.93447434657E+02 0.  0.
          4    1    3    3  502    0 -0.80148566513E+02 -0.10875405591E+03  0.17469806456E+03  0.22084078236E+03  0.00000000000E+00 0. -1.
         -3    1    3    3    0  502 -0.97130369964E+02 -0.25595842946E+03  0.51227418846E+03  0.58083893683E+03  0.00000000000E+00 0.  1.
         11    1    5    5    0    0 -0.24321812999E+03 -0.11997035983E+03 -0.18691786999E+03  0.32937248840E+03  0.00000000000E+00 0. -1.
        -11    1    5    5    0    0 -0.70857316771E+01 -0.48529676016E+00 -0.44562348521E+02  0.45124782682E+02  0.00000000000E+00 0.  1.
          2    1    6    6  503    0  0.31589116602E+03  0.40297871934E+03  0.16991783146E+02  0.51231611112E+03  0.00000000000E+00 0. -1.
         -2    1    6    6    0  503  0.11169163212E+03  0.82189422613E+02 -0.26403327461E+02  0.14116393866E+03  0.00000000000E+00 0.  1.
<mgrwt>
<rscale>  0 0.17744456E+04</rscale>
<asrwt>0</asrwt>
<pdfrwt beam="1">  1        2 0.10642897E+00 0.17744456E+04</pdfrwt>
<pdfrwt beam="2">  1       -1 0.17505673E+00 0.17744456E+04</pdfrwt>
<totfact> 0.10151474E+01</totfact>
</mgrwt>
</event>
<event>
12    6  0.9533401E-008  0.1108719E+04  0.7818608E-02  0.9196735E-01
          2   -1    0    0  501    0  0.00000000000E+00  0.00000000000E+00  0.42418925605E+03  0.42418925605E+03  0.00000000000E+00 0. -1.
         -1   -1    0    0    0  501 -0.00000000000E+00 -0.00000000000E+00 -0.72447543594E+03  0.72447543594E+03  0.00000000000E+00 0.  1.
         24    2    1    2    0    0 -0.33789934488E+02 -0.15056872196E+03 -0.17960487231E+03  0.25108622191E+03  0.83508568250E+02 0.  0.
        254    2    1    2    0    0  0.33789934488E+02  0.15056872196E+03 -0.12068130759E+03  0.89757847007E+03  0.87593974235E+03 0.  0.
         23    2    4    4    0    0 -0.52658461956E+02 -0.23643332118E+03 -0.34643271838E+03  0.43224277819E+03  0.90247226871E+02 0.  0.
         23    2    4    4    0    0  0.86448396444E+02  0.38700204314E+03  0.22575141079E+03  0.46533569188E+03  0.91267190275E+02 0.  0.
          2    1    3    3  502    0  0.19554508591E+02 -0.47172401256E+02 -0.92814344096E+02  0.10593449257E+03  0.00000000000E+00 0. -1.
         -1    1    3    3    0  502 -0.53344443079E+02 -0.10339632071E+03 -0.86790528211E+02  0.14515172934E+03  0.00000000000E+00 0.  1.
         11    1    5    5    0    0 -0.67423811770E+01 -0.93512093209E+02 -0.20751731613E+03  0.22771343345E+03  0.00000000000E+00 0. -1.
        -11    1    5    5    0    0 -0.45916080779E+02 -0.14292122797E+03 -0.13891540225E+03  0.20452934474E+03  0.00000000000E+00 0.  1.
          3    1    6    6  503    0 -0.10131608037E+02  0.31748169075E+01  0.24478674021E+01  0.10895916604E+02  0.00000000000E+00 0. -1.
         -3    1    6    6    0  503  0.96580004481E+02  0.38382722623E+03  0.22330354339E+03  0.45443977528E+03  0.00000000000E+00 0.  1.
<mgrwt>
<rscale>  0 0.11087194E+04</rscale>
<asrwt>0</asrwt>
<pdfrwt beam="1">  1        2 0.65259886E-01 0.11087194E+04</pdfrwt>
<pdfrwt beam="2">  1       -1 0.11145776E+00 0.11087194E+04</pdfrwt>
<totfact> 0.62527025E+01</totfact>
</mgrwt>
</event>
<event>
12    6  0.9533401E-008  0.2377071E+04  0.7818608E-02  0.8448138E-01
          2   -1    0    0  501    0  0.00000000000E+00  0.00000000000E+00  0.27505507082E+04  0.27505507082E+04  0.00000000000E+00 0. -1.
         -1   -1    0    0    0  501 -0.00000000000E+00 -0.00000000000E+00 -0.51357592697E+03  0.51357592697E+03  0.00000000000E+00 0.  1.
         24    2    1    2    0    0 -0.34495555006E+02  0.91860331288E+03  0.15481070763E+04  0.18023062842E+04  0.81550185141E+02 0.  0.
        254    2    1    2    0    0  0.34495555006E+02 -0.91860331288E+03  0.68886770492E+03  0.14618203509E+04  0.90407855509E+03 0.  0.
         23    2    4    4    0    0 -0.22979632713E+03  0.73503207602E+02  0.12838379944E+03  0.28846642490E+03  0.92311455657E+02 0.  0.
         23    2    4    4    0    0  0.26429188214E+03 -0.99210652048E+03  0.56048390548E+03  0.11733539260E+04  0.92150314682E+02 0.  0.
          4    1    3    3  502    0 -0.19454945291E+02  0.43246491138E+03  0.65013058462E+03  0.78107244960E+03  0.00000000000E+00 0. -1.
         -3    1    3    3    0  502 -0.15040609715E+02  0.48613840150E+03  0.89797649170E+03  0.10212338346E+04  0.00000000000E+00 0.  1.
         11    1    5    5    0    0 -0.22659845213E+03  0.69511170490E+02  0.96069638817E+02  0.25574994982E+03  0.00000000000E+00 0.  1.
        -11    1    5    5    0    0 -0.31978749973E+01  0.39920371120E+01  0.32314160620E+02  0.32716475076E+02  0.00000000000E+00 0. -1.
          1    1    6    6  503    0 -0.64665588733E+00 -0.11257858135E+01 -0.28006755318E+01  0.30869630657E+01  0.00000000000E+00 0. -1.
         -1    1    6    6    0  503  0.26493853802E+03 -0.99098073467E+03  0.56328458101E+03  0.11702669630E+04  0.00000000000E+00 0.  1.
<mgrwt>
<rscale>  0 0.23770710E+04</rscale>
<asrwt>0</asrwt>
<pdfrwt beam="1">  1        2 0.42316164E+00 0.23770710E+04</pdfrwt>
<pdfrwt beam="2">  1       -1 0.79011683E-01 0.23770710E+04</pdfrwt>
<totfact> 0.40662378E+00</totfact>
</mgrwt>
</event>
<event>
12    6  0.9533401E-008  0.2021665E+04  0.7818608E-02  0.8596558E-01
         -1   -1    0    0    0  501 -0.00000000000E+00  0.00000000000E+00  0.34969064237E+03  0.34969064237E+03  0.00000000000E+00 0.  1.
          2   -1    0    0  501    0  0.00000000000E+00 -0.00000000000E+00 -0.29219597179E+04  0.29219597179E+04  0.00000000000E+00 0. -1.
         24    2    1    2    0    0 -0.68118617754E+01 -0.69342107362E+03 -0.35824686329E+03  0.78460123550E+03  0.79869248653E+02 0.  0.
        254    2    1    2    0    0  0.68118617754E+01  0.69342107362E+03 -0.22140222122E+04  0.24870491248E+04  0.89590167200E+03 0.  0.
         23    2    4    4    0    0 -0.29263123190E+03  0.75157065767E+03 -0.16588189087E+04  0.18466737510E+04  0.89622984313E+02 0.  0.
         23    2    4    4    0    0  0.29944309368E+03 -0.58149584041E+02 -0.55520330353E+03  0.64037537379E+03  0.93714303214E+02 0.  0.
          4    1    3    3  502    0 -0.32225805107E+02 -0.13049295917E+03 -0.74870990306E+02  0.15385896171E+03  0.00000000000E+00 0. -1.
         -3    1    3    3    0  502  0.25413943332E+02 -0.56292811446E+03 -0.28337587298E+03  0.63074227379E+03  0.00000000000E+00 0.  1.
         11    1    5    5    0    0 -0.11127978602E+03  0.40467019900E+03 -0.83081536183E+03  0.93080359163E+03  0.00000000000E+00 0. -1.
        -11    1    5    5    0    0 -0.18135144588E+03  0.34690045867E+03 -0.82800354688E+03  0.91587015936E+03  0.00000000000E+00 0.  1.
          2    1    6    6  503    0  0.12402226163E+02  0.11679887199E+02 -0.72297847683E+02  0.74277949341E+02  0.00000000000E+00 0. -1.
         -2    1    6    6    0  503  0.28704086751E+03 -0.69829471240E+02 -0.48290545585E+03  0.56609742445E+03  0.00000000000E+00 0.  1.
<mgrwt>
<rscale>  0 0.20216646E+04</rscale>
<asrwt>0</asrwt>
<pdfrwt beam="1">  1        2 0.44953227E+00 0.20216646E+04</pdfrwt>
<pdfrwt beam="2">  1       -1 0.53798559E-01 0.20216646E+04</pdfrwt>
<totfact> 0.71821108E+00</totfact>
</mgrwt>
</event>
<event>
12    6  0.9533401E-008  0.1235683E+04  0.7818608E-02  0.9082184E-01
          2   -1    0    0  501    0  0.00000000000E+00  0.00000000000E+00  0.12439494111E+04  0.12439494111E+04  0.00000000000E+00 0. -1.
         -1   -1    0    0    0  501 -0.00000000000E+00 -0.00000000000E+00 -0.30686792107E+03  0.30686792107E+03  0.00000000000E+00 0.  1.
         24    2    1    2    0    0 -0.36358551784E+01 -0.11879290913E+03 -0.12050984826E+03  0.18858042900E+03  0.83156358587E+02 0.  0.
        254    2    1    2    0    0  0.36358551784E+01  0.11879290913E+03  0.10575913383E+04  0.13622369032E+04  0.85033226848E+03 0.  0.
         23    2    4    4    0    0 -0.32204292361E+02  0.75502177700E+02 -0.12830011199E+03  0.17162843564E+03  0.79105662875E+02 0.  0.
         23    2    4    4    0    0  0.35840147540E+02  0.43290731428E+02  0.11858914503E+04  0.11906084675E+04  0.89729524131E+02 0.  0.
          2    1    3    3  502    0  0.33928930246E+02 -0.23106668434E+02 -0.45797779695E+02  0.61502252469E+02  0.00000000000E+00 0. -1.
         -1    1    3    3    0  502 -0.37564785424E+02 -0.95686240694E+02 -0.74712068565E+02  0.12707817653E+03  0.00000000000E+00 0.  1.
         11    1    5    5    0    0 -0.24104237408E+02  0.22892920202E+02 -0.56665970549E+00  0.33247874513E+02  0.00000000000E+00 0. -1.
        -11    1    5    5    0    0 -0.81000549537E+01  0.52609257498E+02 -0.12773345229E+03  0.13838056113E+03  0.00000000000E+00 0.  1.
          4    1    6    6  503    0  0.26253014552E+02  0.41725439917E+02  0.11749233446E+04  0.11759570990E+04  0.00000000000E+00 0.  1.
         -4    1    6    6    0  503  0.95871329873E+01  0.15652915109E+01  0.10968105708E+02  0.14651368511E+02  0.00000000000E+00 0. -1.
<mgrwt>
<rscale>  0 0.12356831E+04</rscale>
<asrwt>0</asrwt>
<pdfrwt beam="1">  1        2 0.19137683E+00 0.12356831E+04</pdfrwt>
<pdfrwt beam="2">  1       -1 0.47210450E-01 0.12356831E+04</pdfrwt>
<totfact> 0.89538134E+01</totfact>
</mgrwt>
</event>
<event>
12    6  0.9533401E-008  0.1911860E+04  0.7818608E-02  0.8648975E-01
         -1   -1    0    0    0  501 -0.00000000000E+00  0.00000000000E+00  0.97098427414E+03  0.97098427414E+03  0.00000000000E+00 0.  1.
          2   -1    0    0  501    0  0.00000000000E+00 -0.00000000000E+00 -0.94110914008E+03  0.94110914008E+03  0.00000000000E+00 0. -1.
         24    2    1    2    0    0 -0.13838177934E+03 -0.50940693789E+03  0.53068757861E+03  0.75275947294E+03  0.79828395875E+02 0.  0.
        254    2    1    2    0    0  0.13838177934E+03  0.50940693789E+03 -0.50081244455E+03  0.11593339413E+04  0.90255035181E+03 0.  0.
         23    2    4    4    0    0  0.24709982427E+03  0.31935493694E+03 -0.72384457101E+03  0.83383952963E+03  0.91057670145E+02 0.  0.
         23    2    4    4    0    0 -0.10871804492E+03  0.19005200095E+03  0.22303212647E+03  0.32549441164E+03  0.90906029581E+02 0.  0.
          2    1    3    3  502    0  0.18949391555E+01 -0.21777212976E+02  0.55911404135E+01  0.22563214543E+02  0.00000000000E+00 0. -1.
         -1    1    3    3    0  502 -0.14027671850E+03 -0.48762972491E+03  0.52509643819E+03  0.73019625840E+03  0.00000000000E+00 0.  1.
         11    1    5    5    0    0  0.20611895198E+03  0.19850947469E+03 -0.48986732139E+03  0.56732797082E+03  0.00000000000E+00 0. -1.
        -11    1    5    5    0    0  0.40980872283E+02  0.12084546225E+03 -0.23397724962E+03  0.26651155881E+03  0.00000000000E+00 0.  1.
          3    1    6    6  503    0 -0.12520143095E+03  0.16939314245E+03  0.19866481002E+03  0.28954644146E+03  0.00000000000E+00 0. -1.
         -3    1    6    6    0  503  0.16483386023E+02  0.20658858495E+02  0.24367316448E+02  0.35947970179E+02  0.00000000000E+00 0.  1.
<mgrwt>
<rscale>  0 0.19118600E+04</rscale>
<asrwt>0</asrwt>
<pdfrwt beam="1">  1        2 0.14478602E+00 0.19118600E+04</pdfrwt>
<pdfrwt beam="2">  1       -1 0.14938220E+00 0.19118600E+04</pdfrwt>
<totfact> 0.10365722E+01</totfact>
</mgrwt>
</event>
<event>
12    6  0.9533401E-008  0.1358528E+04  0.7818608E-02  0.8984397E-01
         -1   -1    0    0    0  501 -0.00000000000E+00  0.00000000000E+00  0.24744817733E+03  0.24744817733E+03  0.00000000000E+00 0.  1.
          2   -1    0    0  501    0  0.00000000000E+00 -0.00000000000E+00 -0.18646322391E+04  0.18646322391E+04  0.00000000000E+00 0. -1.
         24    2    1    2    0    0 -0.25111299995E+03 -0.21120455032E+03 -0.16916066807E+03  0.37746391035E+03  0.78731005145E+02 0.  0.
        254    2    1    2    0    0  0.25111299995E+03  0.21120455032E+03 -0.14480233937E+04  0.17346165061E+04  0.89691558894E+03 0.  0.
         23    2    4    4    0    0  0.18881421842E+02  0.53704240327E+03 -0.82247712524E+03  0.98665826955E+03  0.90856305955E+02 0.  0.
         23    2    4    4    0    0  0.23223157811E+03 -0.32583785294E+03 -0.62554626844E+03  0.74795823652E+03  0.89619067982E+02 0.  0.
          2    1    3    3  502    0 -0.18378378796E+03 -0.18948018143E+03 -0.15223301734E+03  0.30471972605E+03  0.00000000000E+00 0. -1.
         -1    1    3    3    0  502 -0.67329211984E+02 -0.21724368891E+02 -0.16927650735E+02  0.72744184300E+02  0.00000000000E+00 0.  1.
         11    1    5    5    0    0  0.49460714158E+02  0.39296346016E+03 -0.56427280531E+03  0.68939860899E+03  0.00000000000E+00 0. -1.
        -11    1    5    5    0    0 -0.30579292316E+02  0.14407894310E+03 -0.25820431993E+03  0.29725966056E+03  0.00000000000E+00 0.  1.
          2    1    6    6  503    0  0.15644433957E+03 -0.26566181555E+03 -0.52187741213E+03  0.60614112624E+03  0.00000000000E+00 0. -1.
         -2    1    6    6    0  503  0.75787238538E+02 -0.60176037395E+02 -0.10366885630E+03  0.14181711028E+03  0.00000000000E+00 0.  1.
<mgrwt>
<rscale>  0 0.13585284E+04</rscale>
<asrwt>0</asrwt>
<pdfrwt beam="1">  1        2 0.28686649E+00 0.13585284E+04</pdfrwt>
<pdfrwt beam="2">  1       -1 0.38068952E-01 0.13585284E+04</pdfrwt>
<totfact> 0.58914503E+01</totfact>
</mgrwt>
</event>
<event>
12    6  0.9533401E-008  0.2759312E+04  0.7818608E-02  0.8316013E-01
         -3   -1    0    0    0  501 -0.00000000000E+00  0.00000000000E+00  0.28856511130E+04  0.28856511130E+04  0.00000000000E+00 0.  1.
          4   -1    0    0  501    0  0.00000000000E+00 -0.00000000000E+00 -0.65962622846E+03  0.65962622846E+03  0.00000000000E+00 0. -1.
         24    2    1    2    0    0  0.30625149903E+03  0.79574933349E+02 -0.53605174090E+03  0.62713411915E+03  0.76312409235E+02 0.  0.
        254    2    1    2    0    0 -0.30625149903E+03 -0.79574933349E+02  0.27620766254E+04  0.29181432223E+04  0.88677529871E+03 0.  0.
         23    2    4    4    0    0 -0.58182269687E+03  0.44377892611E+02  0.13912813745E+04  0.15114322422E+04  0.90975336663E+02 0.  0.
         23    2    4    4    0    0  0.27557119784E+03 -0.12395282596E+03  0.13707952509E+04  0.14067109801E+04  0.91936789766E+02 0.  0.
          4    1    3    3  502    0  0.23573531588E+03  0.81277573286E+02 -0.36433257614E+03  0.44149225260E+03  0.00000000000E+00 0. -1.
         -3    1    3    3    0  502  0.70516183152E+02 -0.17026399362E+01 -0.17171916476E+03  0.18564186654E+03  0.00000000000E+00 0.  1.
         11    1    5    5    0    0 -0.52588673205E+03  0.67111802352E+02  0.12442764063E+04  0.13525104895E+04  0.00000000000E+00 0.  1.
        -11    1    5    5    0    0 -0.55935964817E+02 -0.22733909741E+02  0.14700496819E+03  0.15892175271E+03  0.00000000000E+00 0. -1.
          2    1    6    6  503    0  0.20479868718E+02 -0.23732880297E+02  0.29070616289E+03  0.29239142903E+03  0.00000000000E+00 0. -1.
         -2    1    6    6    0  503  0.25509132912E+03 -0.10021994566E+03  0.10800890881E+04  0.11143195510E+04  0.00000000000E+00 0.  1.
<mgrwt>
<rscale>  0 0.27593123E+04</rscale>
<asrwt>0</asrwt>
<pdfrwt beam="1">  1        4 0.10148096E+00 0.27593123E+04</pdfrwt>
<pdfrwt beam="2">  1       -3 0.44394632E+00 0.27593123E+04</pdfrwt>
<totfact> 0.96487217E-03</totfact>
</mgrwt>
</event>
<event>
12    6  0.9533401E-008  0.3717013E+04  0.7818608E-02  0.8064202E-01
          2   -1    0    0  501    0  0.00000000000E+00  0.00000000000E+00  0.32209064245E+04  0.32209064245E+04  0.00000000000E+00 0. -1.
         -1   -1    0    0    0  501 -0.00000000000E+00 -0.00000000000E+00 -0.10723832105E+04  0.10723832105E+04  0.00000000000E+00 0.  1.
         24    2    1    2    0    0 -0.13559933315E+04 -0.10989267860E+04  0.10011538723E+04  0.20137107134E+04  0.79773210939E+02 0.  0.
        254    2    1    2    0    0  0.13559933315E+04  0.10989267860E+04  0.11473693418E+04  0.22795789216E+04  0.91305293233E+03 0.  0.
         23    2    4    4    0    0 -0.94217749190E+02  0.26001213220E+03  0.13981952698E+03  0.32250747784E+03  0.89321217984E+02 0.  0.
         23    2    4    4    0    0  0.14502110807E+04  0.83891465382E+03  0.10075498148E+04  0.19570714438E+04  0.89900120882E+02 0.  0.
          4    1    3    3  502    0 -0.10887765319E+04 -0.84739326676E+03  0.77009414092E+03  0.15800489457E+04  0.00000000000E+00 0. -1.
         -1    1    3    3    0  502 -0.26721679960E+03 -0.25153351926E+03  0.23105973137E+03  0.43366176770E+03  0.00000000000E+00 0.  1.
         11    1    5    5    0    0 -0.39407482705E+02  0.17337783161E+03  0.46267812536E+02  0.18372134515E+03  0.00000000000E+00 0.  1.
        -11    1    5    5    0    0 -0.54810266485E+02  0.86634300589E+02  0.93551714440E+02  0.13878613268E+03  0.00000000000E+00 0. -1.
          3    1    6    6  503    0  0.10684265989E+04  0.65337016266E+03  0.72380034179E+03  0.14464836333E+04  0.00000000000E+00 0. -1.
         -3    1    6    6    0  503  0.38178448180E+03  0.18554449116E+03  0.28374947304E+03  0.51058781047E+03  0.00000000000E+00 0.  1.
<mgrwt>
<rscale>  0 0.37170128E+04</rscale>
<asrwt>0</asrwt>
<pdfrwt beam="1">  1        2 0.49552406E+00 0.37170128E+04</pdfrwt>
<pdfrwt beam="2">  1       -1 0.16498203E+00 0.37170128E+04</pdfrwt>
<totfact> 0.30836930E-01</totfact>
</mgrwt>
</event>
<event>
12    6  0.9533401E-008  0.2143017E+04  0.7818608E-02  0.8542527E-01
          2   -1    0    0  501    0  0.00000000000E+00  0.00000000000E+00  0.12226082050E+04  0.12226082050E+04  0.00000000000E+00 0. -1.
         -1   -1    0    0    0  501 -0.00000000000E+00 -0.00000000000E+00 -0.93908284945E+03  0.93908284945E+03  0.00000000000E+00 0.  1.
         24    2    1    2    0    0 -0.37188485087E+03 -0.60994911428E+03  0.63506226777E+03  0.95919243020E+03  0.80061038511E+02 0.  0.
        254    2    1    2    0    0  0.37188485087E+03  0.60994911428E+03 -0.35153691227E+03  0.12024986242E+04  0.90115951763E+03 0.  0.
         23    2    4    4    0    0  0.42965025702E+03  0.17856088240E+03  0.18225345097E+03  0.50781484130E+03  0.90422677315E+02 0.  0.
         23    2    4    4    0    0 -0.57765406148E+02  0.43138823188E+03 -0.53379036324E+03  0.69468378291E+03  0.90668393590E+02 0.  0.
          2    1    3    3  502    0 -0.19577879489E+03 -0.35195862721E+03  0.30878306603E+03  0.50749501837E+03  0.00000000000E+00 0. -1.
         -1    1    3    3    0  502 -0.17610605598E+03 -0.25799048708E+03  0.32627920174E+03  0.45169741184E+03  0.00000000000E+00 0.  1.
         11    1    5    5    0    0  0.41767143019E+03  0.17547268740E+03  0.15660375613E+03  0.47933790175E+03  0.00000000000E+00 0. -1.
        -11    1    5    5    0    0  0.11978826825E+02  0.30881950007E+01  0.25649694841E+02  0.28476939546E+02  0.00000000000E+00 0.  1.
          1    1    6    6  503    0 -0.41890383495E+02  0.12607493642E+03 -0.11210018391E+03  0.17382791794E+03  0.00000000000E+00 0. -1.
         -1    1    6    6    0  503 -0.15875022653E+02  0.30531329546E+03 -0.42169017933E+03  0.52085586497E+03  0.00000000000E+00 0.  1.
<mgrwt>
<rscale>  0 0.21430169E+04</rscale>
<asrwt>0</asrwt>
<pdfrwt beam="1">  1        2 0.18809357E+00 0.21430169E+04</pdfrwt>
<pdfrwt beam="2">  1       -1 0.14447428E+00 0.21430169E+04</pdfrwt>
<totfact> 0.74161172E+00</totfact>
</mgrwt>
</event>
<event>
12    6  0.9533401E-008  0.2691800E+04  0.7818608E-02  0.8337671E-01
         -1   -1    0    0    0  501 -0.00000000000E+00  0.00000000000E+00  0.74268030365E+03  0.74268030365E+03  0.00000000000E+00 0.  1.
          2   -1    0    0  501    0  0.00000000000E+00 -0.00000000000E+00 -0.24390661483E+04  0.24390661483E+04  0.00000000000E+00 0. -1.
         24    2    1    2    0    0 -0.24880694883E+03  0.41411214684E+03  0.53658797259E+03  0.72656715961E+03  0.81113606426E+02 0.  0.
        254    2    1    2    0    0  0.24880694883E+03 -0.41411214684E+03 -0.22329738172E+04  0.24551792923E+04  0.89907703846E+03 0.  0.
         23    2    4    4    0    0  0.26639803853E+03  0.60791956615E+02 -0.17428725450E+04  0.17662656811E+04  0.86175235808E+02 0.  0.
         23    2    4    4    0    0 -0.17591089695E+02 -0.47490410345E+03 -0.49010127223E+03  0.68891361121E+03  0.92516770100E+02 0.  0.
          4    1    3    3  502    0 -0.16538657803E+03  0.31280036305E+03  0.43421309047E+03  0.56012301796E+03  0.00000000000E+00 0. -1.
         -3    1    3    3    0  502 -0.83420370802E+02  0.10131178379E+03  0.10237488212E+03  0.16644414164E+03  0.00000000000E+00 0.  1.
         11    1    5    5    0    0  0.13173888949E+03 -0.11596632108E+01 -0.63510898755E+03  0.64862925149E+03  0.00000000000E+00 0. -1.
        -11    1    5    5    0    0  0.13465914903E+03  0.61951619826E+02 -0.11077635575E+04  0.11176364296E+04  0.00000000000E+00 0.  1.
          1    1    6    6  503    0 -0.38920236994E+02 -0.84905509356E+02 -0.87498042163E+02  0.12798295882E+03  0.00000000000E+00 0. -1.
         -1    1    6    6    0  503  0.21329147299E+02 -0.38999859410E+03 -0.40260323007E+03  0.56093065238E+03  0.00000000000E+00 0.  1.
<mgrwt>
<rscale>  0 0.26917997E+04</rscale>
<asrwt>0</asrwt>
<pdfrwt beam="1">  1        2 0.37524095E+00 0.26917997E+04</pdfrwt>
<pdfrwt beam="2">  1       -1 0.11425851E+00 0.26917997E+04</pdfrwt>
<totfact> 0.26265594E+00</totfact>
</mgrwt>
</event>
<event>
12    6  0.9533401E-008  0.1049065E+04  0.7818608E-02  0.9256310E-01
          2   -1    0    0  501    0  0.00000000000E+00  0.00000000000E+00  0.93856053142E+03  0.93856053142E+03  0.00000000000E+00 0. -1.
         -1   -1    0    0    0  501 -0.00000000000E+00 -0.00000000000E+00 -0.29314506056E+03  0.29314506056E+03  0.00000000000E+00 0.  1.
         24    2    1    2    0    0  0.82361963285E+02  0.79078094920E+02  0.10904122651E+03  0.17562165879E+03  0.76916447300E+02 0.  0.
        254    2    1    2    0    0 -0.82361963285E+02 -0.79078094920E+02  0.53637424435E+03  0.10560839332E+04  0.90254036244E+03 0.  0.
         23    2    4    4    0    0 -0.15791699383E+02  0.11307720246E+01 -0.24563474422E+03  0.26186235867E+03  0.89357769136E+02 0.  0.
         23    2    4    4    0    0 -0.66570263902E+02 -0.80208866945E+02  0.78200898857E+03  0.79422157452E+03  0.91568492680E+02 0.  0.
          4    1    3    3  502    0  0.68814727441E+02  0.32474677787E+02  0.27846348774E+02  0.81027714704E+02  0.00000000000E+00 0. -1.
         -3    1    3    3    0  502  0.13547235844E+02  0.46603417133E+02  0.81194877733E+02  0.94593944086E+02  0.00000000000E+00 0.  1.
         11    1    5    5    0    0  0.57775145983E+01  0.20442450048E+02 -0.22573317570E+03  0.22673054503E+03  0.00000000000E+00 0.  1.
        -11    1    5    5    0    0 -0.21569213982E+02 -0.19311678023E+02 -0.19901568519E+02  0.35131813636E+02  0.00000000000E+00 0. -1.
          2    1    6    6  503    0 -0.27870356653E+02 -0.86729841481E+02  0.40206577407E+03  0.41225684817E+03  0.00000000000E+00 0.  1.
         -2    1    6    6    0  503 -0.38699907249E+02  0.65209745368E+01  0.37994321450E+03  0.38196472635E+03  0.00000000000E+00 0. -1.
<mgrwt>
<rscale>  0 0.10490651E+04</rscale>
<asrwt>0</asrwt>
<pdfrwt beam="1">  1        2 0.14439393E+00 0.10490651E+04</pdfrwt>
<pdfrwt beam="2">  1       -1 0.45099240E-01 0.10490651E+04</pdfrwt>
<totfact> 0.15294910E+02</totfact>
</mgrwt>
</event>
<event>
12    6  0.9533401E-008  0.1318629E+04  0.7818608E-02  0.9014922E-01
         -1   -1    0    0    0  501 -0.00000000000E+00  0.00000000000E+00  0.16655647455E+04  0.16655647455E+04  0.00000000000E+00 0.  1.
          2   -1    0    0  501    0  0.00000000000E+00 -0.00000000000E+00 -0.26098976756E+03  0.26098976756E+03  0.00000000000E+00 0. -1.
         24    2    1    2    0    0  0.24052574245E+03  0.18261697619E+03  0.12477077455E+03  0.33551147599E+03  0.76148614981E+02 0.  0.
        254    2    1    2    0    0 -0.24052574245E+03 -0.18261697619E+03  0.12798042033E+04  0.15910430370E+04  0.89572180615E+03 0.  0.
         23    2    4    4    0    0 -0.12345258853E+03 -0.23870402234E+03 -0.14128891634E+02  0.28724189319E+03  0.10043967208E+03 0.  0.
         23    2    4    4    0    0 -0.11707315392E+03  0.56087046150E+02  0.12939330950E+04  0.13038011438E+04  0.93715997954E+02 0.  0.
          4    1    3    3  502    0  0.24353288859E+03  0.17581242593E+03  0.11167888378E+03  0.32045350680E+03  0.00000000000E+00 0. -1.
         -3    1    3    3    0  502 -0.30071461381E+01  0.68045502601E+01  0.13091890777E+02  0.15057969194E+02  0.00000000000E+00 0.  1.
         11    1    5    5    0    0 -0.10862521438E+03 -0.10124184112E+03 -0.11869863006E+02  0.14896389240E+03  0.00000000000E+00 0. -1.
        -11    1    5    5    0    0 -0.14827374147E+02 -0.13746218123E+03 -0.22590286278E+01  0.13827800079E+03  0.00000000000E+00 0.  1.
          3    1    6    6  503    0 -0.25166637939E+02 -0.25203021681E+02  0.38066437388E+03  0.38232697722E+03  0.00000000000E+00 0. -1.
         -3    1    6    6    0  503 -0.91906515980E+02  0.81290067831E+02  0.91326872110E+03  0.92147416662E+03  0.00000000000E+00 0.  1.
<mgrwt>
<rscale>  0 0.13186286E+04</rscale>
<asrwt>0</asrwt>
<pdfrwt beam="1">  1        2 0.40152273E-01 0.13186286E+04</pdfrwt>
<pdfrwt beam="2">  1       -1 0.25624072E+00 0.13186286E+04</pdfrwt>
<totfact> 0.91507304E+00</totfact>
</mgrwt>
</event>
<event>
12    6  0.9533401E-008  0.3217237E+04  0.7818608E-02  0.8184280E-01
         -1   -1    0    0    0  501 -0.00000000000E+00  0.00000000000E+00  0.31238824945E+04  0.31238824945E+04  0.00000000000E+00 0.  1.
          2   -1    0    0  501    0  0.00000000000E+00 -0.00000000000E+00 -0.82834543878E+03  0.82834543878E+03  0.00000000000E+00 0. -1.
         24    2    1    2    0    0  0.33860733359E+03  0.12733629944E+04  0.18855236547E+04  0.23017306793E+04  0.81586923380E+02 0.  0.
        254    2    1    2    0    0 -0.33860733359E+03 -0.12733629944E+04  0.41001340103E+03  0.16504972539E+04  0.90549541939E+03 0.  0.
         23    2    4    4    0    0  0.18540496007E+02  0.12245240215E+03  0.20274808191E+02  0.15539789192E+03  0.91646583033E+02 0.  0.
         23    2    4    4    0    0 -0.35714782959E+03 -0.13958153965E+04  0.38973859284E+03  0.14950993620E+04  0.87009989543E+02 0.  0.
          4    1    3    3  502    0  0.47938176222E+02  0.10505610920E+03  0.18768184089E+03  0.22036181207E+03  0.00000000000E+00 0. -1.
         -3    1    3    3    0  502  0.29066915736E+03  0.11683068852E+04  0.16978418138E+04  0.20813688673E+04  0.00000000000E+00 0.  1.
         11    1    5    5    0    0  0.52870931984E+02  0.59764040663E+02 -0.40558265501E+01  0.79896969494E+02  0.00000000000E+00 0. -1.
        -11    1    5    5    0    0 -0.34330435977E+02  0.62688361491E+02  0.24330634741E+02  0.75500922430E+02  0.00000000000E+00 0.  1.
          4    1    6    6  503    0 -0.26346552407E+03 -0.86816165079E+03  0.25825627001E+03  0.94330007700E+03  0.00000000000E+00 0. -1.
         -4    1    6    6    0  503 -0.93682305526E+02 -0.52765374572E+03  0.13148232283E+03  0.55179928502E+03  0.00000000000E+00 0.  1.
<mgrwt>
<rscale>  0 0.32172372E+04</rscale>
<asrwt>0</asrwt>
<pdfrwt beam="1">  1        2 0.12743776E+00 0.32172372E+04</pdfrwt>
<pdfrwt beam="2">  1       -1 0.48059730E+00 0.32172372E+04</pdfrwt>
<totfact> 0.62945949E-02</totfact>
</mgrwt>
</event>
<event>
12    6  0.9533401E-008  0.1256685E+04  0.7818608E-02  0.9064638E-01
         -1   -1    0    0    0  501 -0.00000000000E+00  0.00000000000E+00  0.11792997501E+03  0.11792997501E+03  0.00000000000E+00 0.  1.
          2   -1    0    0  501    0  0.00000000000E+00 -0.00000000000E+00 -0.33478702667E+04  0.33478702667E+04  0.00000000000E+00 0. -1.
         24    2    1    2    0    0 -0.24892957180E+03 -0.20791502793E+02 -0.12507347778E+04  0.12779158915E+04  0.79582177821E+02 0.  0.
        254    2    1    2    0    0  0.24892957180E+03  0.20791502793E+02 -0.19792055139E+04  0.21878843502E+04  0.89843488658E+03 0.  0.
         23    2    4    4    0    0 -0.12248224400E+03 -0.16198324255E+03 -0.71552984258E+02  0.23363986628E+03  0.90704391264E+02 0.  0.
         23    2    4    4    0    0  0.37141181580E+03  0.18277474534E+03 -0.19076525296E+04  0.19542444839E+04  0.92628207198E+02 0.  0.
          2    1    3    3  502    0 -0.13467232032E+03 -0.58097263786E+01 -0.86147570115E+03  0.87195800957E+03  0.00000000000E+00 0. -1.
         -1    1    3    3    0  502 -0.11425725148E+03 -0.14981776414E+02 -0.38925907661E+03  0.40595788189E+03  0.00000000000E+00 0.  1.
         11    1    5    5    0    0 -0.17593078835E+02 -0.88031064389E+02 -0.71699872981E+01  0.90057722812E+02  0.00000000000E+00 0.  1.
        -11    1    5    5    0    0 -0.10488916516E+03 -0.73952178162E+02 -0.64382996960E+02  0.14358214346E+03  0.00000000000E+00 0. -1.
          2    1    6    6  503    0  0.55855888592E+02  0.14653059765E+02 -0.15302744718E+03  0.16356036207E+03  0.00000000000E+00 0. -1.
         -2    1    6    6    0  503  0.31555592721E+03  0.16812168558E+03 -0.17546250824E+04  0.17906841219E+04  0.00000000000E+00 0.  1.
<mgrwt>
<rscale>  0 0.12566849E+04</rscale>
<asrwt>0</asrwt>
<pdfrwt beam="1">  1        2 0.51505706E+00 0.12566849E+04</pdfrwt>
<pdfrwt beam="2">  1       -1 0.18143070E-01 0.12566849E+04</pdfrwt>
<totfact> 0.28415747E+01</totfact>
</mgrwt>
</event>
<event>
12    6  0.9533401E-008  0.1393985E+04  0.7818608E-02  0.8958184E-01
         -1   -1    0    0    0  501 -0.00000000000E+00  0.00000000000E+00  0.22243051522E+03  0.22243051522E+03  0.00000000000E+00 0.  1.
          2   -1    0    0  501    0  0.00000000000E+00 -0.00000000000E+00 -0.21840447828E+04  0.21840447828E+04  0.00000000000E+00 0. -1.
         24    2    1    2    0    0 -0.71655423513E+02 -0.24778379466E+03 -0.42786905193E+02  0.27289966067E+03  0.78180540540E+02 0.  0.
        254    2    1    2    0    0  0.71655423513E+02  0.24778379466E+03 -0.19188273624E+04  0.21335756373E+04  0.89650167041E+03 0.  0.
         23    2    4    4    0    0  0.46908192088E+03  0.11317856586E+03 -0.85392988798E+03  0.98540039754E+03  0.94712478668E+02 0.  0.
         23    2    4    4    0    0 -0.39742649737E+03  0.13460522881E+03 -0.10648974744E+04  0.11481752398E+04  0.90737874618E+02 0.  0.
          4    1    3    3  502    0 -0.26118658009E+02 -0.17959276809E+02  0.90039339492E+01  0.32951339066E+02  0.00000000000E+00 0. -1.
         -3    1    3    3    0  502 -0.45536765504E+02 -0.22982451786E+03 -0.51790839142E+02  0.23994832160E+03  0.00000000000E+00 0.  1.
         11    1    5    5    0    0  0.11570089056E+03  0.67747556306E+02 -0.26752289077E+03  0.29924057971E+03  0.00000000000E+00 0.  1.
        -11    1    5    5    0    0  0.35338103032E+03  0.45431009553E+02 -0.58640699722E+03  0.68615981783E+03  0.00000000000E+00 0. -1.
          3    1    6    6  503    0 -0.30940450586E+03  0.93263997503E+02 -0.90571055973E+03  0.96163451451E+03  0.00000000000E+00 0. -1.
         -3    1    6    6    0  503 -0.88021991505E+02  0.41341231303E+02 -0.15918691466E+03  0.18654072529E+03  0.00000000000E+00 0.  1.
<mgrwt>
<rscale>  0 0.13939845E+04</rscale>
<asrwt>0</asrwt>
<pdfrwt beam="1">  1        2 0.33600689E+00 0.13939845E+04</pdfrwt>
<pdfrwt beam="2">  1       -1 0.34220079E-01 0.13939845E+04</pdfrwt>
<totfact> 0.47310327E+01</totfact>
</mgrwt>
</event>
<event>
12    6  0.9533401E-008  0.3181927E+04  0.7818608E-02  0.8193607E-01
         -1   -1    0    0    0  501 -0.00000000000E+00  0.00000000000E+00  0.13733476266E+04  0.13733476266E+04  0.00000000000E+00 0.  1.
          2   -1    0    0  501    0  0.00000000000E+00 -0.00000000000E+00 -0.18430623066E+04  0.18430623066E+04  0.00000000000E+00 0. -1.
         24    2    1    2    0    0 -0.10947765621E+04  0.36356306009E+03  0.71916298266E+03  0.13614142400E+04  0.74427934944E+02 0.  0.
        254    2    1    2    0    0  0.10947765621E+04 -0.36356306009E+03 -0.11888776626E+04  0.18549956933E+04  0.83478446669E+03 0.  0.
         23    2    4    4    0    0  0.78672061546E+03 -0.29550356352E+03 -0.28296907609E+03  0.89142290026E+03  0.91168010998E+02 0.  0.
         23    2    4    4    0    0  0.30805594666E+03 -0.68059496566E+02 -0.90590858649E+03  0.96357279301E+03  0.90948331570E+02 0.  0.
          2    1    3    3  502    0 -0.34462847884E+02  0.38356256326E+01  0.34955710739E+02  0.49237197540E+02  0.00000000000E+00 0. -1.
         -3    1    3    3    0  502 -0.10603137142E+04  0.35972743446E+03  0.68420727192E+03  0.13121770424E+04  0.00000000000E+00 0.  1.
         11    1    5    5    0    0  0.62257739089E+01 -0.69062576525E+01  0.53746489688E+01  0.10739809452E+02  0.00000000000E+00 0.  1.
        -11    1    5    5    0    0  0.78049484155E+03 -0.28859730587E+03 -0.28834372506E+03  0.88068309080E+03  0.00000000000E+00 0. -1.
          1    1    6    6  503    0  0.21740338747E+03 -0.49395024118E+02 -0.74822087856E+03  0.78072952064E+03  0.00000000000E+00 0. -1.
         -1    1    6    6    0  503  0.90652559183E+02 -0.18664472449E+02 -0.15768770793E+03  0.18284327237E+03  0.00000000000E+00 0.  1.
<mgrwt>
<rscale>  0 0.31819272E+04</rscale>
<asrwt>0</asrwt>
<pdfrwt beam="1">  1        2 0.28354805E+00 0.31819272E+04</pdfrwt>
<pdfrwt beam="2">  1       -1 0.21128425E+00 0.31819272E+04</pdfrwt>
<totfact> 0.98742573E-01</totfact>
</mgrwt>
</event>
<event>
12    6  0.9533401E-008  0.1200825E+04  0.7818608E-02  0.9112135E-01
         -1   -1    0    0    0  501 -0.00000000000E+00  0.00000000000E+00  0.17800057922E+03  0.17800057922E+03  0.00000000000E+00 0.  1.
          2   -1    0    0  501    0  0.00000000000E+00 -0.00000000000E+00 -0.20252458667E+04  0.20252458667E+04  0.00000000000E+00 0. -1.
         24    2    1    2    0    0  0.37645049877E+02  0.17922664670E+03 -0.72016912709E+03  0.74734495152E+03  0.79633939179E+02 0.  0.
        254    2    1    2    0    0 -0.37645049877E+02 -0.17922664670E+03 -0.11270761604E+04  0.14559014944E+04  0.90322153950E+03 0.  0.
         23    2    4    4    0    0  0.24739971322E+03 -0.13846778505E+03 -0.11144036683E+04  0.11534375323E+04  0.90236684691E+02 0.  0.
         23    2    4    4    0    0 -0.28504476310E+03 -0.40758861653E+02 -0.12672492056E+02  0.30246396213E+03  0.91717253342E+02 0.  0.
          4    1    3    3  502    0  0.58078858432E+02  0.86030287107E+02 -0.34897766565E+03  0.36408759279E+03  0.00000000000E+00 0. -1.
         -3    1    3    3    0  502 -0.20433808555E+02  0.93196359594E+02 -0.37119146144E+03  0.38325735873E+03  0.00000000000E+00 0.  1.
         11    1    5    5    0    0  0.37479706785E+02 -0.20443785100E+02 -0.73146491811E+02  0.84694073193E+02  0.00000000000E+00 0.  1.
        -11    1    5    5    0    0  0.20992000643E+03 -0.11802399995E+03 -0.10412571765E+04  0.10687434591E+04  0.00000000000E+00 0. -1.
          3    1    6    6  503    0 -0.29043841257E+03 -0.35349525431E+02 -0.65180722197E+01  0.29265431094E+03  0.00000000000E+00 0. -1.
         -3    1    6    6    0  503  0.53936494738E+01 -0.54093362218E+01 -0.61544198366E+01  0.98096511932E+01  0.00000000000E+00 0.  1.
<mgrwt>
<rscale>  0 0.12008246E+04</rscale>
<asrwt>0</asrwt>
<pdfrwt beam="1">  1        2 0.31157629E+00 0.12008246E+04</pdfrwt>
<pdfrwt beam="2">  1       -1 0.27384704E-01 0.12008246E+04</pdfrwt>
<totfact> 0.87140178E+01</totfact>
</mgrwt>
</event>
<event>
12    6  0.9533401E-008  0.3134350E+04  0.7818608E-02  0.8206374E-01
          2   -1    0    0  501    0  0.00000000000E+00  0.00000000000E+00  0.33940417672E+04  0.33940417672E+04  0.00000000000E+00 0. -1.
         -1   -1    0    0    0  501 -0.00000000000E+00 -0.00000000000E+00 -0.72363203132E+03  0.72363203132E+03  0.00000000000E+00 0.  1.
         24    2    1    2    0    0 -0.71313350435E+03  0.14092621461E+03  0.28453295882E+04  0.29377494083E+04  0.77791562465E+02 0.  0.
        254    2    1    2    0    0  0.71313350435E+03 -0.14092621461E+03 -0.17491985235E+03  0.11799243902E+04  0.91280064579E+03 0.  0.
         23    2    4    4    0    0  0.45173864950E+02 -0.39961496598E+03 -0.19879332467E+03  0.45767199998E+03  0.90620497260E+02 0.  0.
         23    2    4    4    0    0  0.66795963940E+03  0.25868875137E+03  0.23873472315E+02  0.72225239026E+03  0.89379094924E+02 0.  0.
          2    1    3    3  502    0 -0.55291887973E+03  0.13853507236E+03  0.21611265054E+04  0.22350344575E+04  0.00000000000E+00 0. -1.
         -1    1    3    3    0  502 -0.16021462462E+03  0.23911422455E+01  0.68420308284E+03  0.70271495080E+03  0.00000000000E+00 0.  1.
         11    1    5    5    0    0  0.50915348730E+02 -0.36834249561E+03 -0.15338367482E+03  0.40223763936E+03  0.00000000000E+00 0. -1.
        -11    1    5    5    0    0 -0.57414837803E+01 -0.31272470361E+02 -0.45409649843E+02  0.55434360620E+02  0.00000000000E+00 0.  1.
          4    1    6    6  503    0  0.77655588878E+02  0.62680126750E+02 -0.84610567783E-01  0.99795771114E+02  0.00000000000E+00 0. -1.
         -4    1    6    6    0  503  0.59030405052E+03  0.19600862462E+03  0.23958082883E+02  0.62245661915E+03  0.00000000000E+00 0.  1.
<mgrwt>
<rscale>  0 0.31343499E+04</rscale>
<asrwt>0</asrwt>
<pdfrwt beam="1">  1        2 0.52216026E+00 0.31343499E+04</pdfrwt>
<pdfrwt beam="2">  1       -1 0.11132801E+00 0.31343499E+04</pdfrwt>
<totfact> 0.68568938E-01</totfact>
</mgrwt>
</event>
<event>
12    6  0.9533401E-008  0.1701314E+04  0.7818608E-02  0.8760616E-01
          4   -1    0    0  501    0  0.00000000000E+00  0.00000000000E+00  0.17899704492E+04  0.17899704492E+04  0.00000000000E+00 0. -1.
         -3   -1    0    0    0  501 -0.00000000000E+00 -0.00000000000E+00 -0.40426195480E+03  0.40426195480E+03  0.00000000000E+00 0.  1.
         24    2    1    2    0    0  0.12249018726E+03 -0.37652418474E+03  0.10988126639E+04  0.11707074645E+04  0.79952420371E+02 0.  0.
        254    2    1    2    0    0 -0.12249018726E+03  0.37652418474E+03  0.28689583054E+03  0.10235249395E+04  0.89917727759E+03 0.  0.
         23    2    4    4    0    0 -0.47696907669E+03  0.76020023291E+02  0.50449399857E+02  0.49408763296E+03  0.91098315233E+02 0.  0.
         23    2    4    4    0    0  0.35447888943E+03  0.30050416145E+03  0.23644643068E+03  0.52943730654E+03  0.91863555778E+02 0.  0.
          2    1    3    3  502    0  0.10913741703E+03 -0.34362704917E+03  0.10512271525E+04  0.11113366055E+04  0.00000000000E+00 0. -1.
         -1    1    3    3    0  502  0.13352770229E+02 -0.32897135571E+02  0.47585511453E+02  0.59370859029E+02  0.00000000000E+00 0.  1.
         11    1    5    5    0    0 -0.35275115431E+02  0.16103251486E+02 -0.18642135245E+02  0.43025314450E+02  0.00000000000E+00 0. -1.
        -11    1    5    5    0    0 -0.44169396126E+03  0.59916771805E+02  0.69091535102E+02  0.45106231851E+03  0.00000000000E+00 0.  1.
          2    1    6    6  503    0 -0.81111163256E+00  0.16394287494E+01  0.14899336592E+02  0.15011191145E+02  0.00000000000E+00 0. -1.
         -2    1    6    6    0  503  0.35529000106E+03  0.29886473270E+03  0.22154709409E+03  0.51442611540E+03  0.00000000000E+00 0.  1.
<mgrwt>
<rscale>  0 0.17013136E+04</rscale>
<asrwt>0</asrwt>
<pdfrwt beam="1">  1        4 0.27538006E+00 0.17013136E+04</pdfrwt>
<pdfrwt beam="2">  1       -3 0.62194148E-01 0.17013136E+04</pdfrwt>
<totfact> 0.24084458E-01</totfact>
</mgrwt>
</event>
<event>
12    6  0.9533401E-008  0.2377089E+04  0.7818608E-02  0.8448131E-01
          2   -1    0    0  501    0  0.00000000000E+00  0.00000000000E+00  0.11385836497E+04  0.11385836497E+04  0.00000000000E+00 0. -1.
         -1   -1    0    0    0  501 -0.00000000000E+00 -0.00000000000E+00 -0.12406978918E+04  0.12406978918E+04  0.00000000000E+00 0.  1.
         24    2    1    2    0    0  0.98584679748E+03  0.15161984703E+03 -0.24831116853E+03  0.10310166146E+04  0.80338888675E+02 0.  0.
        254    2    1    2    0    0 -0.98584679748E+03 -0.15161984703E+03  0.14619692643E+03  0.13482649269E+04  0.89530010925E+03 0.  0.
         23    2    4    4    0    0 -0.76426606627E+03  0.20827656075E+02  0.47664112145E+03  0.90539841969E+03  0.89571917504E+02 0.  0.
         23    2    4    4    0    0 -0.22158073121E+03 -0.17244750310E+03 -0.33044419502E+03  0.44286650719E+03  0.90006751934E+02 0.  0.
          2    1    3    3  502    0  0.82094157772E+03  0.10904865577E+03 -0.23136393044E+03  0.85986391462E+03  0.00000000000E+00 0. -1.
         -1    1    3    3    0  502  0.16490521976E+03  0.42571191255E+02 -0.16947238086E+02  0.17115269997E+03  0.00000000000E+00 0.  1.
         11    1    5    5    0    0 -0.56101717362E+03  0.36730695298E+02  0.38791725821E+03  0.68305871804E+03  0.00000000000E+00 0. -1.
        -11    1    5    5    0    0 -0.20324889265E+03 -0.15903039222E+02  0.88723863239E+02  0.22233970165E+03  0.00000000000E+00 0.  1.
          2    1    6    6  503    0 -0.14514257498E+03 -0.56078051026E+02 -0.17718602848E+03  0.23580925250E+03  0.00000000000E+00 0. -1.
         -2    1    6    6    0  503 -0.76438156236E+02 -0.11636945208E+03 -0.15325816654E+03  0.20705725469E+03  0.00000000000E+00 0.  1.
<mgrwt>
<rscale>  0 0.23770893E+04</rscale>
<asrwt>0</asrwt>
<pdfrwt beam="1">  1        2 0.17516672E+00 0.23770893E+04</pdfrwt>
<pdfrwt beam="2">  1       -1 0.19087660E+00 0.23770893E+04</pdfrwt>
<totfact> 0.36910649E+00</totfact>
</mgrwt>
</event>
<event>
12    6  0.9533401E-008  0.2059585E+04  0.7818608E-02  0.8579258E-01
         -1   -1    0    0    0  501 -0.00000000000E+00  0.00000000000E+00  0.44199093757E+03  0.44199093757E+03  0.00000000000E+00 0.  1.
          2   -1    0    0  501    0  0.00000000000E+00 -0.00000000000E+00 -0.23993094232E+04  0.23993094232E+04  0.00000000000E+00 0. -1.
         24    2    1    2    0    0  0.30341648053E+03  0.65415329015E+03 -0.13570645300E+04  0.15393178190E+04  0.88865751180E+02 0.  0.
        254    2    1    2    0    0 -0.30341648053E+03 -0.65415329015E+03 -0.60025395559E+03  0.13019825417E+04  0.90270462500E+03 0.  0.
         23    2    4    4    0    0 -0.43007941959E+03 -0.58609819966E+03 -0.59646700186E+02  0.73508577863E+03  0.91180953558E+02 0.  0.
         23    2    4    4    0    0  0.12666293906E+03 -0.68055090487E+02 -0.54060725541E+03  0.56689676307E+03  0.91873499477E+02 0.  0.
          2    1    3    3  502    0  0.13141177968E+03  0.31444063808E+03 -0.55164292514E+03  0.64842261495E+03  0.00000000000E+00 0. -1.
         -1    1    3    3    0  502  0.17200470085E+03  0.33971265207E+03 -0.80542160485E+03  0.89089520408E+03  0.00000000000E+00 0.  1.
         11    1    5    5    0    0 -0.49364184034E+02 -0.12173264182E+03  0.25910755400E+01  0.13138634793E+03  0.00000000000E+00 0. -1.
        -11    1    5    5    0    0 -0.38071523556E+03 -0.46436555784E+03 -0.62237775727E+02  0.60369943070E+03  0.00000000000E+00 0.  1.
          1    1    6    6  503    0  0.38837523442E+01  0.12203861478E+02 -0.96095007614E+01  0.16011254546E+02  0.00000000000E+00 0. -1.
         -1    1    6    6    0  503  0.12277918671E+03 -0.80258951965E+02 -0.53099775464E+03  0.55088550852E+03  0.00000000000E+00 0.  1.
<mgrwt>
<rscale>  0 0.20595854E+04</rscale>
<asrwt>0</asrwt>
<pdfrwt beam="1">  1        2 0.36912452E+00 0.20595854E+04</pdfrwt>
<pdfrwt beam="2">  1       -1 0.67998607E-01 0.20595854E+04</pdfrwt>
<totfact> 0.91715497E+00</totfact>
</mgrwt>
</event>
<event>
12    6  0.9533401E-008  0.1866221E+04  0.7818608E-02  0.8671855E-01
          2   -1    0    0  501    0  0.00000000000E+00  0.00000000000E+00  0.10136623242E+04  0.10136623242E+04  0.00000000000E+00 0. -1.
         -1   -1    0    0    0  501 -0.00000000000E+00 -0.00000000000E+00 -0.85895982397E+03  0.85895982397E+03  0.00000000000E+00 0.  1.
         24    2    1    2    0    0 -0.28892848782E+03  0.27873611610E+02 -0.58176300228E+03  0.65501290307E+03  0.79605923573E+02 0.  0.
        254    2    1    2    0    0  0.28892848782E+03 -0.27873611610E+02  0.73646550246E+03  0.12176092451E+04  0.92516713518E+03 0.  0.
         23    2    4    4    0    0  0.53993271708E+03 -0.88880623911E+01  0.14162515172E+03  0.56531522296E+03  0.88979104770E+02 0.  0.
         23    2    4    4    0    0 -0.25100422926E+03 -0.18985549219E+02  0.59484035075E+03  0.65229402209E+03  0.91043254550E+02 0.  0.
          2    1    3    3  502    0 -0.33404115529E+02  0.96538047862E+01 -0.27218074142E+02  0.44157156171E+02  0.00000000000E+00 0. -1.
         -1    1    3    3    0  502 -0.25552437229E+03  0.18219806824E+02 -0.55454492814E+03  0.61085574689E+03  0.00000000000E+00 0.  1.
         11    1    5    5    0    0  0.24932455966E+03 -0.35999012209E+02  0.33810886660E+02  0.25416892215E+03  0.00000000000E+00 0. -1.
        -11    1    5    5    0    0  0.29060815742E+03  0.27110949818E+02  0.10781426506E+03  0.31114630081E+03  0.00000000000E+00 0.  1.
          3    1    6    6  503    0 -0.17671972665E+03  0.18719282312E+02  0.46738249855E+03  0.50002667256E+03  0.00000000000E+00 0. -1.
         -3    1    6    6    0  503 -0.74284502610E+02 -0.37704831531E+02  0.12745785220E+03  0.15226734954E+03  0.00000000000E+00 0.  1.
<mgrwt>
<rscale>  0 0.18662210E+04</rscale>
<asrwt>0</asrwt>
<pdfrwt beam="1">  1        2 0.15594805E+00 0.18662210E+04</pdfrwt>
<pdfrwt beam="2">  1       -1 0.13214767E+00 0.18662210E+04</pdfrwt>
<totfact> 0.12866563E+01</totfact>
</mgrwt>
</event>
<event>
12    6  0.9533401E-008  0.1063075E+04  0.7818608E-02  0.9241948E-01
          2   -1    0    0  501    0  0.00000000000E+00  0.00000000000E+00  0.17104532604E+04  0.17104532604E+04  0.00000000000E+00 0. -1.
         -1   -1    0    0    0  501 -0.00000000000E+00 -0.00000000000E+00 -0.16517961793E+03  0.16517961793E+03  0.00000000000E+00 0.  1.
         24    2    1    2    0    0 -0.10632378160E+03  0.21510864258E+02  0.86754043525E+02  0.16001522317E+03  0.79442707426E+02 0.  0.
        254    2    1    2    0    0  0.10632378160E+03 -0.21510864258E+02  0.14585195989E+04  0.17156176551E+04  0.89682610041E+03 0.  0.
         23    2    4    4    0    0 -0.20849132537E+02  0.33477252057E+03  0.20517081467E+03  0.40352481753E+03  0.90718731866E+02 0.  0.
         23    2    4    4    0    0  0.12717291413E+03 -0.35628338482E+03  0.12533487842E+04  0.13120928376E+04  0.87141489340E+02 0.  0.
          2    1    3    3  502    0  0.30435443143E+01  0.24734212660E+02  0.18784199280E+02  0.31207220006E+02  0.00000000000E+00 0. -1.
         -1    1    3    3    0  502 -0.10936732591E+03 -0.32233484022E+01  0.67969844245E+02  0.12880800316E+03  0.00000000000E+00 0.  1.
         11    1    5    5    0    0 -0.40473970510E+02  0.29250964045E+03  0.14968247682E+03  0.33106627118E+03  0.00000000000E+00 0. -1.
        -11    1    5    5    0    0  0.19624837973E+02  0.42262880119E+02  0.55488337852E+02  0.72458546349E+02  0.00000000000E+00 0.  1.
          4    1    6    6  503    0  0.13680860545E+03 -0.28949973312E+03  0.10601803184E+04  0.11074786669E+04  0.00000000000E+00 0. -1.
         -4    1    6    6    0  503 -0.96356913151E+01 -0.66783651701E+02  0.19316846581E+03  0.20461417074E+03  0.00000000000E+00 0.  1.
<mgrwt>
<rscale>  0 0.10630748E+04</rscale>
<asrwt>0</asrwt>
<pdfrwt beam="1">  1        2 0.26314664E+00 0.10630748E+04</pdfrwt>
<pdfrwt beam="2">  1       -1 0.25412250E-01 0.10630748E+04</pdfrwt>
<totfact> 0.14940281E+02</totfact>
</mgrwt>
</event>
<event>
12    6  0.9533401E-008  0.1101402E+04  0.7818608E-02  0.9203826E-01
          2   -1    0    0  501    0  0.00000000000E+00  0.00000000000E+00  0.11789851981E+04  0.11789851981E+04  0.00000000000E+00 0. -1.
         -1   -1    0    0    0  501 -0.00000000000E+00 -0.00000000000E+00 -0.25723119047E+03  0.25723119047E+03  0.00000000000E+00 0.  1.
         24    2    1    2    0    0 -0.47467930569E+02  0.13632879482E+03  0.24097341638E+03  0.29198563839E+03  0.79678610001E+02 0.  0.
        254    2    1    2    0    0  0.47467930569E+02 -0.13632879482E+03  0.68078059122E+03  0.11442307502E+04  0.90827476652E+03 0.  0.
         23    2    4    4    0    0  0.39427489795E+03  0.14212523538E+03  0.17638621479E+03  0.46476407648E+03  0.96131536636E+02 0.  0.
         23    2    4    4    0    0 -0.34680696738E+03 -0.27845403020E+03  0.50439437643E+03  0.67946667368E+03  0.97208817023E+02 0.  0.
          4    1    3    3  502    0 -0.11962374575E+02  0.10331657282E+03  0.10571356795E+03  0.14829959903E+03  0.00000000000E+00 0. -1.
         -3    1    3    3    0  502 -0.35505555994E+02  0.33012222005E+02  0.13525984843E+03  0.14368603936E+03  0.00000000000E+00 0.  1.
         11    1    5    5    0    0  0.34878323353E+03  0.11346961707E+03  0.11776014334E+03  0.38521753510E+03  0.00000000000E+00 0. -1.
        -11    1    5    5    0    0  0.45491664421E+02  0.28655618306E+02  0.58626071448E+02  0.79546541381E+02  0.00000000000E+00 0.  1.
          1    1    6    6  503    0 -0.17388469840E+03 -0.97943767659E+02  0.27796292431E+03  0.34218745923E+03  0.00000000000E+00 0. -1.
         -1    1    6    6    0  503 -0.17292226899E+03 -0.18051026254E+03  0.22643145212E+03  0.33727921445E+03  0.00000000000E+00 0.  1.
<mgrwt>
<rscale>  0 0.11014023E+04</rscale>
<asrwt>0</asrwt>
<pdfrwt beam="1">  1        2 0.18138234E+00 0.11014023E+04</pdfrwt>
<pdfrwt beam="2">  1       -1 0.39574030E-01 0.11014023E+04</pdfrwt>
<totfact> 0.13695781E+02</totfact>
</mgrwt>
</event>
<event>
12    6  0.9533401E-008  0.1794183E+04  0.7818608E-02  0.8709399E-01
          2   -1    0    0  501    0  0.00000000000E+00  0.00000000000E+00  0.96782309413E+03  0.96782309413E+03  0.00000000000E+00 0. -1.
         -1   -1    0    0    0  501 -0.00000000000E+00 -0.00000000000E+00 -0.83152963703E+03  0.83152963703E+03  0.00000000000E+00 0.  1.
         24    2    1    2    0    0 -0.44413503453E+03 -0.50235793968E+03  0.86303142157E+02  0.68120927744E+03  0.83536931222E+02 0.  0.
        254    2    1    2    0    0  0.44413503453E+03  0.50235793968E+03  0.49990314949E+02  0.11181434537E+04  0.89337915973E+03 0.  0.
         23    2    4    4    0    0  0.61071728513E+03  0.13238825295E+03  0.22008015089E+03  0.66852349125E+03  0.89365170292E+02 0.  0.
         23    2    4    4    0    0 -0.16658225060E+03  0.36996968672E+03 -0.17008983594E+03  0.44961996247E+03  0.92738034536E+02 0.  0.
          4    1    3    3  502    0 -0.48990783645E+02 -0.93065684885E+02 -0.36244224746E+01  0.10523523661E+03  0.00000000000E+00 0. -1.
         -3    1    3    3    0  502 -0.39514425089E+03 -0.40929225479E+03  0.89927564632E+02  0.57597404084E+03  0.00000000000E+00 0.  1.
         11    1    5    5    0    0  0.30135724901E+03  0.27426631379E+02  0.79451369309E+02  0.31285928422E+03  0.00000000000E+00 0. -1.
        -11    1    5    5    0    0  0.30936003612E+03  0.10496162157E+03  0.14062878158E+03  0.35566420703E+03  0.00000000000E+00 0.  1.
          3    1    6    6  503    0 -0.36566153868E+02  0.54683178418E+02  0.55325379535E+01  0.66014714926E+02  0.00000000000E+00 0. -1.
         -3    1    6    6    0  503 -0.13001609673E+03  0.31528650831E+03 -0.17562237389E+03  0.38360524754E+03  0.00000000000E+00 0.  1.
<mgrwt>
<rscale>  0 0.17941835E+04</rscale>
<asrwt>0</asrwt>
<pdfrwt beam="1">  1        2 0.14889586E+00 0.17941835E+04</pdfrwt>
<pdfrwt beam="2">  1       -1 0.12792764E+00 0.17941835E+04</pdfrwt>
<totfact> 0.15042962E+01</totfact>
</mgrwt>
</event>
<event>
12    6  0.9533401E-008  0.2596136E+04  0.7818608E-02  0.8369515E-01
          2   -1    0    0  501    0  0.00000000000E+00  0.00000000000E+00  0.39245265915E+04  0.39245265915E+04  0.00000000000E+00 0. -1.
         -1   -1    0    0    0  501 -0.00000000000E+00 -0.00000000000E+00 -0.42934634512E+03  0.42934634512E+03  0.00000000000E+00 0.  1.
         24    2    1    2    0    0 -0.79555231083E+03  0.80043340701E+03  0.18151685279E+04  0.21389075776E+04  0.80571226095E+02 0.  0.
        254    2    1    2    0    0  0.79555231083E+03 -0.80043340701E+03  0.16800117185E+04  0.22149653590E+04  0.90001947154E+03 0.  0.
         23    2    4    4    0    0  0.37647500314E+03  0.35339174557E+02  0.14479573044E+03  0.41512068663E+03  0.91526475244E+02 0.  0.
         23    2    4    4    0    0  0.41907730769E+03 -0.83577258157E+03  0.15352159881E+04  0.17998446724E+04  0.91712141499E+02 0.  0.
          4    1    3    3  502    0 -0.19917089845E+03  0.15297430666E+03  0.40496501405E+03  0.47651531758E+03  0.00000000000E+00 0. -1.
         -3    1    3    3    0  502 -0.59638141238E+03  0.64745910035E+03  0.14102035138E+04  0.16623922600E+04  0.00000000000E+00 0.  1.
         11    1    5    5    0    0  0.22600500797E+02 -0.13043777192E+02 -0.70284890615E+01  0.27024478130E+02  0.00000000000E+00 0. -1.
        -11    1    5    5    0    0  0.35387450234E+03  0.48382951748E+02  0.15182421950E+03  0.38809620850E+03  0.00000000000E+00 0.  1.
          2    1    6    6  503    0  0.12411089385E+03 -0.28787794339E+03  0.44094225806E+03  0.54102430556E+03  0.00000000000E+00 0. -1.
         -2    1    6    6    0  503  0.29496641384E+03 -0.54789463818E+03  0.10942737300E+04  0.12588203669E+04  0.00000000000E+00 0.  1.
<mgrwt>
<rscale>  0 0.25961365E+04</rscale>
<asrwt>0</asrwt>
<pdfrwt beam="1">  1        2 0.60377330E+00 0.25961365E+04</pdfrwt>
<pdfrwt beam="2">  1       -1 0.66053286E-01 0.25961365E+04</pdfrwt>
<totfact> 0.92086048E-01</totfact>
</mgrwt>
</event>
<event>
12    6  0.9533401E-008  0.3330793E+04  0.7818608E-02  0.8155104E-01
          2   -1    0    0  501    0  0.00000000000E+00  0.00000000000E+00  0.79879494057E+03  0.79879494057E+03  0.00000000000E+00 0. -1.
         -1   -1    0    0    0  501 -0.00000000000E+00 -0.00000000000E+00 -0.34721627725E+04  0.34721627725E+04  0.00000000000E+00 0.  1.
         24    2    1    2    0    0 -0.71232303099E+03  0.12354877686E+04 -0.19923353361E+04  0.24518959640E+04  0.92518105757E+02 0.  0.
        254    2    1    2    0    0  0.71232303099E+03 -0.12354877686E+04 -0.68103249579E+03  0.18190617491E+04  0.90074761161E+03 0.  0.
         23    2    4    4    0    0 -0.10357654041E+03 -0.16374271526E+03  0.12197215317E+03  0.24807315058E+03  0.95515995356E+02 0.  0.
         23    2    4    4    0    0  0.81589957140E+03 -0.10717450533E+04 -0.80300464896E+03  0.15709885985E+04  0.94123006693E+02 0.  0.
          4    1    3    3  502    0 -0.13357221653E+03  0.20550319925E+03 -0.40025374824E+03  0.46933587644E+03  0.00000000000E+00 0. -1.
         -3    1    3    3    0  502 -0.57875081446E+03  0.10299845693E+04 -0.15920815879E+04  0.19825600876E+04  0.00000000000E+00 0.  1.
         11    1    5    5    0    0 -0.20301853077E+02 -0.29165254919E+02  0.74997198555E+02  0.82990102566E+02  0.00000000000E+00 0. -1.
        -11    1    5    5    0    0 -0.83274687336E+02 -0.13457746034E+03  0.46974954612E+02  0.16508304802E+03  0.00000000000E+00 0.  1.
          3    1    6    6  503    0  0.16575135260E+02 -0.41083554663E+02 -0.13303130154E+02  0.46255452052E+02  0.00000000000E+00 0. -1.
         -3    1    6    6    0  503  0.79932443614E+03 -0.10306614987E+04 -0.78970151880E+03  0.15247331464E+04  0.00000000000E+00 0.  1.
<mgrwt>
<rscale>  0 0.33307933E+04</rscale>
<asrwt>0</asrwt>
<pdfrwt beam="1">  1        2 0.12289153E+00 0.33307933E+04</pdfrwt>
<pdfrwt beam="2">  1       -1 0.53417887E+00 0.33307933E+04</pdfrwt>
<totfact> 0.30031796E-02</totfact>
</mgrwt>
</event>
<event>
12    6  0.1528948E-007  0.1991030E+04  0.7818608E-02  0.8610826E-01
         -1   -1    0    0    0  501 -0.00000000000E+00  0.00000000000E+00  0.80288191579E+03  0.80288191579E+03  0.00000000000E+00 0.  1.
          2   -1    0    0  501    0  0.00000000000E+00 -0.00000000000E+00 -0.12343657927E+04  0.12343657927E+04  0.00000000000E+00 0. -1.
         24    2    1    2    0    0  0.44002862023E+03 -0.51786137755E+03  0.23650673632E+03  0.72346125096E+03  0.75200746906E+02 0.  0.
        254    2    1    2    0    0 -0.44002862023E+03  0.51786137755E+03 -0.66799061326E+03  0.13137864576E+04  0.90444336676E+03 0.  0.
         23    2    4    4    0    0 -0.37275825573E+03 -0.14758170549E+03 -0.43812764414E+03  0.60061982965E+03  0.89773438115E+02 0.  0.
         23    2    4    4    0    0 -0.67270364495E+02  0.66544308305E+03 -0.22986296912E+03  0.71316662791E+03  0.91814246564E+02 0.  0.
          2    1    3    3  502    0  0.63274701881E+02 -0.43384909162E+02  0.40031349452E+02  0.86535814435E+02  0.00000000000E+00 0. -1.
         -1    1    3    3    0  502  0.37675391834E+03 -0.47447646839E+03  0.19647538687E+03  0.63692543652E+03  0.00000000000E+00 0.  1.
         11    1    5    5    0    0  0.32027097988E+01  0.27867649896E+01 -0.12286099683E+02  0.12998909746E+02  0.00000000000E+00 0. -1.
        -11    1    5    5    0    0 -0.37596096553E+03 -0.15036847048E+03 -0.42584154446E+03  0.58762091990E+03  0.00000000000E+00 0.  1.
          3    1    6    6  503    0 -0.18177219948E+02  0.25446422297E+02  0.29493437811E+00  0.31273290825E+02  0.00000000000E+00 0. -1.
         -3    1    6    6    0  503 -0.49093144547E+02  0.63999666075E+03 -0.23015790349E+03  0.68189333708E+03  0.00000000000E+00 0.  1.
<mgrwt>
<rscale>  0 0.19910299E+04</rscale>
<asrwt>0</asrwt>
<pdfrwt beam="1">  1        2 0.18990243E+00 0.19910299E+04</pdfrwt>
<pdfrwt beam="2">  1       -1 0.12352030E+00 0.19910299E+04</pdfrwt>
<totfact> 0.11041117E+01</totfact>
</mgrwt>
</event>
<event>
12    6  0.9533401E-008  0.1648528E+04  0.7818608E-02  0.8791278E-01
          2   -1    0    0  501    0  0.00000000000E+00  0.00000000000E+00  0.18001879446E+04  0.18001879446E+04  0.00000000000E+00 0. -1.
         -1   -1    0    0    0  501 -0.00000000000E+00 -0.00000000000E+00 -0.37741138735E+03  0.37741138735E+03  0.00000000000E+00 0.  1.
         24    2    1    2    0    0  0.56073107850E+03  0.79917202342E+02  0.81601532261E+03  0.99653467676E+03  0.79964077162E+02 0.  0.
        254    2    1    2    0    0 -0.56073107850E+03 -0.79917202342E+02  0.60676123469E+03  0.11810646552E+04  0.84020736862E+03 0.  0.
         23    2    4    4    0    0 -0.32446956571E+03 -0.37404611268E+03  0.53372157675E+02  0.50542862391E+03  0.86130791124E+02 0.  0.
         23    2    4    4    0    0 -0.23626151279E+03  0.29412891033E+03  0.55338907701E+03  0.67563603131E+03  0.88956494588E+02 0.  0.
          2    1    3    3  502    0  0.36999595525E+03  0.44044447639E+02  0.46971094694E+03  0.59955424603E+03  0.00000000000E+00 0. -1.
         -1    1    3    3    0  502  0.19073512325E+03  0.35872754703E+02  0.34630437567E+03  0.39698043073E+03  0.00000000000E+00 0.  1.
         11    1    5    5    0    0 -0.26218053590E+03 -0.32298241126E+03  0.15152661540E+02  0.41627619982E+03  0.00000000000E+00 0. -1.
        -11    1    5    5    0    0 -0.62289029805E+02 -0.51063701418E+02  0.38219496135E+02  0.89152424091E+02  0.00000000000E+00 0.  1.
          4    1    6    6  503    0 -0.16659156003E+03  0.16757954075E+03  0.40255687779E+03  0.46678441513E+03  0.00000000000E+00 0. -1.
         -4    1    6    6    0  503 -0.69669952764E+02  0.12654936959E+03  0.15083219922E+03  0.20885161619E+03  0.00000000000E+00 0.  1.
<mgrwt>
<rscale>  0 0.16485283E+04</rscale>
<asrwt>0</asrwt>
<pdfrwt beam="1">  1        2 0.27695199E+00 0.16485283E+04</pdfrwt>
<pdfrwt beam="2">  1       -1 0.58063291E-01 0.16485283E+04</pdfrwt>
<totfact> 0.28211999E+01</totfact>
</mgrwt>
</event>
<event>
12    6  0.9533401E-008  0.1410056E+04  0.7818608E-02  0.8946572E-01
          2   -1    0    0  501    0  0.00000000000E+00  0.00000000000E+00  0.92800821951E+03  0.92800821951E+03  0.00000000000E+00 0. -1.
         -1   -1    0    0    0  501 -0.00000000000E+00 -0.00000000000E+00 -0.53562504667E+03  0.53562504667E+03  0.00000000000E+00 0.  1.
         24    2    1    2    0    0 -0.12452059102E+03 -0.37792094574E+03  0.12687402857E+03  0.42533743037E+03  0.80531309017E+02 0.  0.
        254    2    1    2    0    0  0.12452059102E+03  0.37792094574E+03  0.26550914426E+03  0.10382958358E+04  0.92153866883E+03 0.  0.
         23    2    4    4    0    0 -0.19854379877E+03 -0.13133606868E+03  0.33904413289E+03  0.42403096782E+03  0.90457363714E+02 0.  0.
         23    2    4    4    0    0  0.32306438979E+03  0.50925701442E+03 -0.73534988630E+02  0.61426486799E+03  0.90557312276E+02 0.  0.
          2    1    3    3  502    0 -0.16857540901E+01 -0.10913060961E+02 -0.99310656527E+01  0.14851354530E+02  0.00000000000E+00 0. -1.
         -1    1    3    3    0  502 -0.12283483693E+03 -0.36700788478E+03  0.13680509423E+03  0.41048607584E+03  0.00000000000E+00 0.  1.
         11    1    5    5    0    0 -0.13518814124E+03 -0.81784944722E+02  0.14693927205E+03  0.21576783909E+03  0.00000000000E+00 0. -1.
        -11    1    5    5    0    0 -0.63355657533E+02 -0.49551123958E+02  0.19210486085E+03  0.20826312873E+03  0.00000000000E+00 0.  1.
          1    1    6    6  503    0  0.23338779076E+01 -0.10010873341E+01 -0.75630964911E+01  0.79780693448E+01  0.00000000000E+00 0. -1.
         -1    1    6    6    0  503  0.32073051189E+03  0.51025810175E+03 -0.65971892139E+02  0.60628679864E+03  0.00000000000E+00 0.  1.
<mgrwt>
<rscale>  0 0.14100560E+04</rscale>
<asrwt>0</asrwt>
<pdfrwt beam="1">  1        2 0.14277050E+00 0.14100560E+04</pdfrwt>
<pdfrwt beam="2">  1       -1 0.82403853E-01 0.14100560E+04</pdfrwt>
<totfact> 0.45638057E+01</totfact>
</mgrwt>
</event>
<event>
12    6  0.9533401E-008  0.1209162E+04  0.7818608E-02  0.9104875E-01
          2   -1    0    0  501    0  0.00000000000E+00  0.00000000000E+00  0.13245404552E+04  0.13245404552E+04  0.00000000000E+00 0. -1.
         -1   -1    0    0    0  501 -0.00000000000E+00 -0.00000000000E+00 -0.27595842701E+03  0.27595842701E+03  0.00000000000E+00 0.  1.
         24    2    1    2    0    0 -0.47208223890E+02 -0.16908777758E+03  0.49427531957E+03  0.53063438433E+03  0.80283655673E+02 0.  0.
        254    2    1    2    0    0  0.47208223890E+02  0.16908777758E+03  0.55430670864E+03  0.10698644979E+04  0.89807283875E+03 0.  0.
         23    2    4    4    0    0 -0.25363019121E+03  0.36838834748E+02  0.65924222087E+03  0.71296954116E+03  0.89665418098E+02 0.  0.
         23    2    4    4    0    0  0.30083841510E+03  0.13224894283E+03 -0.10493551223E+03  0.35689495675E+03  0.91482312740E+02 0.  0.
          4    1    3    3  502    0 -0.52994264744E+02 -0.81738401960E+02  0.33513241205E+03  0.34900328374E+03  0.00000000000E+00 0. -1.
         -3    1    3    3    0  502  0.57860408535E+01 -0.87349375618E+02  0.15914290751E+03  0.18163110059E+03  0.00000000000E+00 0.  1.
         11    1    5    5    0    0 -0.21724345132E+03  0.42933671387E+02  0.62327403194E+03  0.66144428048E+03  0.00000000000E+00 0.  1.
        -11    1    5    5    0    0 -0.36386739893E+02 -0.60948366384E+01  0.35968188925E+02  0.51525260681E+02  0.00000000000E+00 0. -1.
          4    1    6    6  503    0  0.21422534953E+03  0.76996181271E+02 -0.29732098860E+02  0.22957549959E+03  0.00000000000E+00 0. -1.
         -4    1    6    6    0  503  0.86613065574E+02  0.55252761559E+02 -0.75203413366E+02  0.12731945715E+03  0.00000000000E+00 0.  1.
<mgrwt>
<rscale>  0 0.12091619E+04</rscale>
<asrwt>0</asrwt>
<pdfrwt beam="1">  1        2 0.20377545E+00 0.12091619E+04</pdfrwt>
<pdfrwt beam="2">  1       -1 0.42455143E-01 0.12091619E+04</pdfrwt>
<totfact> 0.98074653E+01</totfact>
</mgrwt>
</event>
<event>
12    6  0.9533401E-008  0.1872177E+04  0.7818608E-02  0.8668831E-01
          2   -1    0    0  501    0  0.00000000000E+00  0.00000000000E+00  0.10916780874E+04  0.10916780874E+04  0.00000000000E+00 0. -1.
         -1   -1    0    0    0  501 -0.00000000000E+00 -0.00000000000E+00 -0.80267363515E+03  0.80267363515E+03  0.00000000000E+00 0.  1.
         24    2    1    2    0    0 -0.51664227320E+03 -0.45579292968E+03 -0.47674650210E+02  0.69530961983E+03  0.80722747479E+02 0.  0.
        254    2    1    2    0    0  0.51664227320E+03  0.45579292968E+03  0.33667910242E+03  0.11990421027E+04  0.92178235653E+03 0.  0.
         23    2    4    4    0    0  0.16882206855E+03  0.66332983755E+03  0.46661867525E+02  0.69311920667E+03  0.98638433511E+02 0.  0.
         23    2    4    4    0    0  0.34782020465E+03 -0.20753690787E+03  0.29001723490E+03  0.50592289601E+03  0.88303551917E+02 0.  0.
          4    1    3    3  502    0 -0.51143003075E+01 -0.18530547861E+01  0.74103376059E+01  0.91925504137E+01  0.00000000000E+00 0. -1.
         -3    1    3    3    0  502 -0.51152797289E+03 -0.45393987489E+03 -0.55084987816E+02  0.68611706942E+03  0.00000000000E+00 0.  1.
         11    1    5    5    0    0 -0.57233172858E+01  0.11274539526E+02  0.11659932361E+02  0.17199582116E+02  0.00000000000E+00 0. -1.
        -11    1    5    5    0    0  0.17454538584E+03  0.65205529802E+03  0.35001935163E+02  0.67591962456E+03  0.00000000000E+00 0.  1.
          3    1    6    6  503    0  0.39705422446E+02 -0.10561915266E+01  0.93746209726E+01  0.40810778363E+02  0.00000000000E+00 0. -1.
         -3    1    6    6    0  503  0.30811478220E+03 -0.20648071635E+03  0.28064261393E+03  0.46511211765E+03  0.00000000000E+00 0.  1.
<mgrwt>
<rscale>  0 0.18721765E+04</rscale>
<asrwt>0</asrwt>
<pdfrwt beam="1">  1        2 0.16795048E+00 0.18721765E+04</pdfrwt>
<pdfrwt beam="2">  1       -1 0.12348825E+00 0.18721765E+04</pdfrwt>
<totfact> 0.13615523E+01</totfact>
</mgrwt>
</event>
<event>
12    6  0.9533401E-008  0.1712950E+04  0.7818608E-02  0.8754013E-01
          2   -1    0    0  501    0  0.00000000000E+00  0.00000000000E+00  0.16475426527E+04  0.16475426527E+04  0.00000000000E+00 0. -1.
         -1   -1    0    0    0  501 -0.00000000000E+00 -0.00000000000E+00 -0.44523853670E+03  0.44523853670E+03  0.00000000000E+00 0.  1.
         24    2    1    2    0    0  0.21862889475E+03 -0.24836651376E+03  0.10384550150E+04  0.10928303746E+04  0.80030560674E+02 0.  0.
        254    2    1    2    0    0 -0.21862889475E+03  0.24836651376E+03  0.16384910096E+03  0.99995081479E+03  0.92928498607E+03 0.  0.
         23    2    4    4    0    0  0.13423369585E+03  0.50189330614E+03  0.12358088516E+01  0.52747565125E+03  0.91178174937E+02 0.  0.
         23    2    4    4    0    0 -0.35286259060E+03 -0.25352679238E+03  0.16261329211E+03  0.47247516354E+03  0.89453088771E+02 0.  0.
          4    1    3    3  502    0  0.16314590122E+03 -0.14801691173E+03  0.77050571221E+03  0.80137671777E+03  0.00000000000E+00 0. -1.
         -3    1    3    3    0  502  0.55482993533E+02 -0.10034960202E+03  0.26794930281E+03  0.29145365682E+03  0.00000000000E+00 0.  1.
         11    1    5    5    0    0  0.60679546442E+02  0.24237408328E+03  0.45975466362E+02  0.25404910374E+03  0.00000000000E+00 0. -1.
        -11    1    5    5    0    0  0.73554149407E+02  0.25951922286E+03 -0.44739657511E+02  0.27342654751E+03  0.00000000000E+00 0.  1.
          4    1    6    6  503    0 -0.30181243801E+02 -0.54767212943E+02  0.75154157435E+01  0.62982827538E+02  0.00000000000E+00 0. -1.
         -4    1    6    6    0  503 -0.32268134680E+03 -0.19875957944E+03  0.15509787636E+03  0.40949233600E+03  0.00000000000E+00 0.  1.
<mgrwt>
<rscale>  0 0.17129501E+04</rscale>
<asrwt>0</asrwt>
<pdfrwt beam="1">  1        2 0.25346810E+00 0.17129501E+04</pdfrwt>
<pdfrwt beam="2">  1       -1 0.68498237E-01 0.17129501E+04</pdfrwt>
<totfact> 0.24503706E+01</totfact>
</mgrwt>
</event>
<event>
12    6  0.9533401E-008  0.3827285E+04  0.7818608E-02  0.8040325E-01
          2   -1    0    0  501    0  0.00000000000E+00  0.00000000000E+00  0.17757690342E+04  0.17757690342E+04  0.00000000000E+00 0. -1.
         -1   -1    0    0    0  501 -0.00000000000E+00 -0.00000000000E+00 -0.20622206997E+04  0.20622206997E+04  0.00000000000E+00 0.  1.
         24    2    1    2    0    0  0.17512404845E+03 -0.17957894113E+04 -0.22481921090E+03  0.18199323200E+04  0.77986727325E+02 0.  0.
        254    2    1    2    0    0 -0.17512404845E+03  0.17957894113E+04 -0.61632454612E+02  0.20180574139E+04  0.90179217361E+03 0.  0.
         23    2    4    4    0    0  0.11252342348E+02  0.12008179930E+04 -0.44118870351E+03  0.12825104101E+04  0.89972286087E+02 0.  0.
         23    2    4    4    0    0 -0.18637639080E+03  0.59497141829E+03  0.37955624890E+03  0.73554700387E+03  0.90770596532E+02 0.  0.
          4    1    3    3  502    0  0.80711847215E+02 -0.88852420910E+03 -0.15000522338E+03  0.90470505662E+03  0.00000000000E+00 0. -1.
         -3    1    3    3    0  502  0.94412201233E+02 -0.90726520221E+03 -0.74813987517E+02  0.91522726337E+03  0.00000000000E+00 0.  1.
         11    1    5    5    0    0  0.35814748208E+02  0.54701763369E+03 -0.16641606142E+03  0.57289204328E+03  0.00000000000E+00 0. -1.
        -11    1    5    5    0    0 -0.24562405859E+02  0.65380035933E+03 -0.27477264209E+03  0.70961836679E+03  0.00000000000E+00 0.  1.
          4    1    6    6  503    0 -0.18758549344E+03  0.54763978043E+03  0.32716817606E+03  0.66493357704E+03  0.00000000000E+00 0. -1.
         -4    1    6    6    0  503  0.12091026435E+01  0.47331637862E+02  0.52388072842E+02  0.70613426825E+02  0.00000000000E+00 0.  1.
<mgrwt>
<rscale>  0 0.38272850E+04</rscale>
<asrwt>0</asrwt>
<pdfrwt beam="1">  1        2 0.27319523E+00 0.38272850E+04</pdfrwt>
<pdfrwt beam="2">  1       -1 0.31726473E+00 0.38272850E+04</pdfrwt>
<totfact> 0.20663328E-01</totfact>
</mgrwt>
</event>
<event>
12    6  0.9533401E-008  0.1583568E+04  0.7818608E-02  0.8830707E-01
          2   -1    0    0  501    0  0.00000000000E+00  0.00000000000E+00  0.11087396712E+04  0.11087396712E+04  0.00000000000E+00 0. -1.
         -1   -1    0    0    0  501 -0.00000000000E+00 -0.00000000000E+00 -0.56543667791E+03  0.56543667791E+03  0.00000000000E+00 0.  1.
         24    2    1    2    0    0  0.19807111762E+03  0.11648663954E+03 -0.29864446860E+03  0.38581966955E+03  0.82867327425E+02 0.  0.
        254    2    1    2    0    0 -0.19807111762E+03 -0.11648663954E+03  0.84194746194E+03  0.12883566796E+04  0.94772680683E+03 0.  0.
         23    2    4    4    0    0 -0.14740476538E+03  0.21436984832E+03 -0.93198273757E+02  0.29100524439E+03  0.91189567952E+02 0.  0.
         23    2    4    4    0    0 -0.50666352238E+02 -0.33085648787E+03  0.93514573569E+03  0.99735143522E+03  0.90439170320E+02 0.  0.
          4    1    3    3  502    0  0.74648297902E+02  0.75862926967E+00 -0.81128704496E+02  0.11024885755E+03  0.00000000000E+00 0. -1.
         -3    1    3    3    0  502  0.12342281972E+03  0.11572801027E+03 -0.21751576411E+03  0.27557081200E+03  0.00000000000E+00 0.  1.
         11    1    5    5    0    0 -0.75897154652E+02  0.18179380669E+03 -0.63098522024E+02  0.20685934767E+03  0.00000000000E+00 0. -1.
        -11    1    5    5    0    0 -0.71507610732E+02  0.32576041632E+02 -0.30099751734E+02  0.84145896724E+02  0.00000000000E+00 0.  1.
          2    1    6    6  503    0 -0.73587548050E+02 -0.23503396180E+03  0.61850196163E+03  0.66573325512E+03  0.00000000000E+00 0. -1.
         -2    1    6    6    0  503  0.22921195812E+02 -0.95822526066E+02  0.31664377407E+03  0.33161818010E+03  0.00000000000E+00 0.  1.
<mgrwt>
<rscale>  0 0.15835682E+04</rscale>
<asrwt>0</asrwt>
<pdfrwt beam="1">  1        2 0.17057533E+00 0.15835682E+04</pdfrwt>
<pdfrwt beam="2">  1       -1 0.86990258E-01 0.15835682E+04</pdfrwt>
<totfact> 0.30678652E+01</totfact>
</mgrwt>
</event>
<event>
12    6  0.9533401E-008  0.2144450E+04  0.7818608E-02  0.8541912E-01
         -1   -1    0    0    0  501 -0.00000000000E+00  0.00000000000E+00  0.43335349057E+03  0.43335349057E+03  0.00000000000E+00 0.  1.
          2   -1    0    0  501    0  0.00000000000E+00 -0.00000000000E+00 -0.26529531110E+04  0.26529531110E+04  0.00000000000E+00 0. -1.
         24    2    1    2    0    0  0.17289440229E+03 -0.51002955703E+03  0.89282081060E+02  0.55172203682E+03  0.80020575623E+02 0.  0.
        254    2    1    2    0    0 -0.17289440229E+03  0.51002955703E+03 -0.23088817015E+04  0.25345845648E+04  0.89619282579E+03 0.  0.
         23    2    4    4    0    0  0.22483865788E+03  0.17807329495E+03 -0.17105779386E+04  0.17369175191E+04  0.92428694221E+02 0.  0.
         23    2    4    4    0    0 -0.39773306017E+03  0.33195626208E+03 -0.59830376293E+03  0.79766704573E+03  0.99593052069E+02 0.  0.
          4    1    3    3  502    0  0.71734332543E+02 -0.31979767930E+03  0.35551973993E+02  0.32966697288E+03  0.00000000000E+00 0. -1.
         -3    1    3    3    0  502  0.10116006975E+03 -0.19023187773E+03  0.53730107067E+02  0.22205506394E+03  0.00000000000E+00 0.  1.
         11    1    5    5    0    0  0.76324917455E+02  0.79992425464E+02 -0.42801204127E+03  0.44206174752E+03  0.00000000000E+00 0. -1.
        -11    1    5    5    0    0  0.14851374043E+03  0.98080869483E+02 -0.12825658973E+04  0.12948557715E+04  0.00000000000E+00 0.  1.
          3    1    6    6  503    0 -0.20758104715E+03  0.17425042299E+03 -0.38771384500E+03  0.47304875716E+03  0.00000000000E+00 0. -1.
         -3    1    6    6    0  503 -0.19015201302E+03  0.15770583909E+03 -0.21058991793E+03  0.32461828857E+03  0.00000000000E+00 0.  1.
<mgrwt>
<rscale>  0 0.21444500E+04</rscale>
<asrwt>0</asrwt>
<pdfrwt beam="1">  1        2 0.40814663E+00 0.21444500E+04</pdfrwt>
<pdfrwt beam="2">  1       -1 0.66669768E-01 0.21444500E+04</pdfrwt>
<totfact> 0.67491404E+00</totfact>
</mgrwt>
</event>
<event>
12    6  0.9533401E-008  0.1433732E+04  0.7818608E-02  0.8929757E-01
          2   -1    0    0  501    0  0.00000000000E+00  0.00000000000E+00  0.15046095024E+03  0.15046095024E+03  0.00000000000E+00 0. -1.
         -1   -1    0    0    0  501 -0.00000000000E+00 -0.00000000000E+00 -0.34154809807E+04  0.34154809807E+04  0.00000000000E+00 0.  1.
         24    2    1    2    0    0  0.36014088339E+03  0.69001566621E+02 -0.14143350888E+04  0.14632729681E+04  0.79758156763E+02 0.  0.
        254    2    1    2    0    0 -0.36014088339E+03 -0.69001566621E+02 -0.18506849416E+04  0.21026689628E+04  0.92828839381E+03 0.  0.
         23    2    4    4    0    0  0.13592022460E+03 -0.36720644360E+03 -0.88782193313E+03  0.97550785491E+03  0.10036388980E+03 0.  0.
         23    2    4    4    0    0 -0.49606110799E+03  0.29820487698E+03 -0.96286300845E+03  0.11271611079E+04  0.91565378780E+02 0.  0.
          4    1    3    3  502    0  0.80231736224E+02  0.24833872395E+02 -0.21279615711E+03  0.22877075249E+03  0.00000000000E+00 0. -1.
         -3    1    3    3    0  502  0.27990914716E+03  0.44167694226E+02 -0.12015389317E+04  0.12345022156E+04  0.00000000000E+00 0.  1.
         11    1    5    5    0    0  0.36063177026E+02 -0.74830357801E+02 -0.30188839852E+03  0.31310819272E+03  0.00000000000E+00 0.  1.
        -11    1    5    5    0    0  0.99857047576E+02 -0.29237608580E+03 -0.58593353461E+03  0.66239966220E+03  0.00000000000E+00 0. -1.
          2    1    6    6  503    0 -0.26483258679E+03  0.21101784449E+03 -0.57285047958E+03  0.66544909773E+03  0.00000000000E+00 0. -1.
         -2    1    6    6    0  503 -0.23122852120E+03  0.87187032494E+02 -0.39001252887E+03  0.46171201016E+03  0.00000000000E+00 0.  1.
<mgrwt>
<rscale>  0 0.14337315E+04</rscale>
<asrwt>0</asrwt>
<pdfrwt beam="1">  1        2 0.23147838E-01 0.14337315E+04</pdfrwt>
<pdfrwt beam="2">  1       -1 0.52545862E+00 0.14337315E+04</pdfrwt>
<totfact> 0.27512317E-01</totfact>
</mgrwt>
</event>
