<event>
12    7  0.1637954E-007  0.1624001E+04  0.7818608E-02  0.8805938E-01
          2   -1    0    0  501    0  0.00000000000E+00  0.00000000000E+00  0.10452524349E+04  0.10452524349E+04  0.00000000000E+00 0. -1.
         -1   -1    0    0    0  501 -0.00000000000E+00 -0.00000000000E+00 -0.63079920911E+03  0.63079920911E+03  0.00000000000E+00 0.  1.
         24    2    1    2    0    0  0.11512478758E+03 -0.50149037243E+03 -0.80877147759E+02  0.52795497152E+03  0.86307754987E+02 0.  0.
        254    2    1    2    0    0 -0.11512478758E+03  0.50149037243E+03  0.49533037359E+03  0.11480966725E+04  0.89890348767E+03 0.  0.
         23    2    4    4    0    0 -0.41494364465E+02  0.53971856849E+03  0.71095124028E+03  0.89819288627E+03  0.90999337557E+02 0.  0.
         23    2    4    4    0    0 -0.73630423116E+02 -0.38228196062E+02 -0.21562086669E+03  0.24990378627E+03  0.95271769453E+02 0.  0.
          4    1    3    3  502    0  0.13296247222E+02 -0.39588648874E+01 -0.17710896870E+01  0.13985691261E+02  0.00000000000E+00 0. -1.
         -3    1    3    3    0  502  0.10182854036E+03 -0.49753150754E+03 -0.79106058072E+02  0.51396928026E+03  0.00000000000E+00 0.  1.
         13    1    5    5    0    0 -0.56710185831E+02  0.26594765946E+03  0.30882012353E+03  0.41147791125E+03  0.00000000000E+00 0. -1.
        -13    1    5    5    0    0  0.15215821367E+02  0.27377090903E+03  0.40213111675E+03  0.48671497502E+03  0.00000000000E+00 0.  1.
          3    1    6    6  503    0  0.17821638401E+02 -0.29365817871E+02 -0.63179809594E+02  0.71914187716E+02  0.00000000000E+00 0. -1.
         -3    1    6    6    0  503 -0.91452061517E+02 -0.88623781918E+01 -0.15244105710E+03  0.17798959855E+03  0.00000000000E+00 0.  1.
<mgrwt>
<rscale>  0 0.16240005E+04</rscale>
<asrwt>0</asrwt>
<pdfrwt beam="1">  1        2 0.16080807E+00 0.16240005E+04</pdfrwt>
<pdfrwt beam="2">  1       -1 0.97046032E-01 0.16240005E+04</pdfrwt>
<totfact> 0.26268852E+01</totfact>
</mgrwt>
</event>
<event>
12    7  0.1637954E-007  0.2017870E+04  0.7818608E-02  0.8598311E-01
         -1   -1    0    0    0  501 -0.00000000000E+00  0.00000000000E+00  0.51693220852E+03  0.51693220852E+03  0.00000000000E+00 0.  1.
          2   -1    0    0  501    0  0.00000000000E+00 -0.00000000000E+00 -0.19692135160E+04  0.19692135160E+04  0.00000000000E+00 0. -1.
         24    2    1    2    0    0  0.20635230577E+03 -0.76864640131E+03 -0.53384378146E+03  0.96158671339E+03  0.79128124064E+02 0.  0.
        254    2    1    2    0    0 -0.20635230577E+03  0.76864640131E+03 -0.91843752599E+03  0.15245590111E+04  0.92051840005E+03 0.  0.
         23    2    4    4    0    0 -0.24307348506E+03 -0.85609978811E+02 -0.49357562890E+03  0.56509149467E+03  0.96424624945E+02 0.  0.
         23    2    4    4    0    0  0.36721179284E+02  0.85425638012E+03 -0.42486189709E+03  0.95946751642E+03  0.94698867457E+02 0.  0.
          2    1    3    3  502    0  0.11194450138E+03 -0.31349949540E+03 -0.25705987405E+03  0.42058683271E+03  0.00000000000E+00 0. -1.
         -1    1    3    3    0  502  0.94407804392E+02 -0.45514690591E+03 -0.27678390741E+03  0.54099988067E+03  0.00000000000E+00 0.  1.
         13    1    5    5    0    0 -0.12669867472E+03 -0.41333155928E+02 -0.35290439672E+03  0.37723003218E+03  0.00000000000E+00 0. -1.
        -13    1    5    5    0    0 -0.11637481034E+03 -0.44276822883E+02 -0.14067123218E+03  0.18786146250E+03  0.00000000000E+00 0.  1.
          3    1    6    6  503    0  0.59851714962E+02  0.59850823291E+03 -0.32721667545E+03  0.68473723817E+03  0.00000000000E+00 0. -1.
         -3    1    6    6    0  503 -0.23130535678E+02  0.25574814721E+03 -0.97645221639E+02  0.27473027826E+03  0.00000000000E+00 0.  1.
<mgrwt>
<rscale>  0 0.20178701E+04</rscale>
<asrwt>0</asrwt>
<pdfrwt beam="1">  1        2 0.30295593E+00 0.20178701E+04</pdfrwt>
<pdfrwt beam="2">  1       -1 0.79528032E-01 0.20178701E+04</pdfrwt>
<totfact> 0.11595898E+01</totfact>
</mgrwt>
</event>
<event>
12    7  0.1637954E-007  0.2257082E+04  0.7818608E-02  0.8495038E-01
          2   -1    0    0  501    0  0.00000000000E+00  0.00000000000E+00  0.19025938515E+04  0.19025938515E+04  0.00000000000E+00 0. -1.
         -1   -1    0    0    0  501 -0.00000000000E+00 -0.00000000000E+00 -0.66940425461E+03  0.66940425461E+03  0.00000000000E+00 0.  1.
         24    2    1    2    0    0 -0.13829666051E+03  0.45901279190E+02 -0.54816133186E+03  0.57123972705E+03  0.67831307489E+02 0.  0.
        254    2    1    2    0    0  0.13829666051E+03 -0.45901279190E+02  0.17813509287E+04  0.20007583790E+04  0.89921636234E+03 0.  0.
         23    2    4    4    0    0 -0.78549230137E+02 -0.22561294217E+03  0.16619396584E+04  0.16815594477E+04  0.92344823668E+02 0.  0.
         23    2    4    4    0    0  0.21684589065E+03  0.17971166298E+03  0.11941127028E+03  0.31919893139E+03  0.91161857290E+02 0.  0.
          2    1    3    3  502    0 -0.90262710976E+02  0.11697400997E+02 -0.22446624717E+03  0.24221742775E+03  0.00000000000E+00 0. -1.
         -1    1    3    3    0  502 -0.48033949534E+02  0.34203878194E+02 -0.32369508468E+03  0.32902229930E+03  0.00000000000E+00 0.  1.
         13    1    5    5    0    0 -0.21982969170E+02 -0.10506309456E+03  0.46462060964E+03  0.47685827630E+03  0.00000000000E+00 0.  1.
        -13    1    5    5    0    0 -0.56566260967E+02 -0.12054984761E+03  0.11973190488E+04  0.12047011714E+04  0.00000000000E+00 0. -1.
          3    1    6    6  503    0  0.18365476008E+03  0.15379750812E+03  0.61000393472E+02  0.24719181298E+03  0.00000000000E+00 0. -1.
         -3    1    6    6    0  503  0.33191130567E+02  0.25914154867E+02  0.58410876809E+02  0.72007118401E+02  0.00000000000E+00 0.  1.
<mgrwt>
<rscale>  0 0.22570817E+04</rscale>
<asrwt>0</asrwt>
<pdfrwt beam="1">  1        2 0.29270674E+00 0.22570817E+04</pdfrwt>
<pdfrwt beam="2">  1       -1 0.10298527E+00 0.22570817E+04</pdfrwt>
<totfact> 0.69800603E+00</totfact>
</mgrwt>
</event>
<event>
12    7  0.1637954E-007  0.1466581E+04  0.7818608E-02  0.8906985E-01
         -1   -1    0    0    0  501 -0.00000000000E+00  0.00000000000E+00  0.74510776441E+03  0.74510776441E+03  0.00000000000E+00 0.  1.
          2   -1    0    0  501    0  0.00000000000E+00 -0.00000000000E+00 -0.72166071858E+03  0.72166071858E+03  0.00000000000E+00 0. -1.
         24    2    1    2    0    0  0.21581204883E+02  0.43054913942E+03 -0.13628419688E+03  0.45989189712E+03  0.84195396895E+02 0.  0.
        254    2    1    2    0    0 -0.21581204883E+02 -0.43054913942E+03  0.15973124271E+03  0.10068765859E+04  0.89579466364E+03 0.  0.
         23    2    4    4    0    0  0.40671652788E+03 -0.93752866582E+02  0.15509545708E+03  0.45422076921E+03  0.89743926449E+02 0.  0.
         23    2    4    4    0    0 -0.42829773276E+03 -0.33679627284E+03  0.46357856295E+01  0.55265581665E+03  0.92392012005E+02 0.  0.
          4    1    3    3  502    0  0.27664983902E+02  0.38840200417E+03 -0.95495811595E+02  0.40092507805E+03  0.00000000000E+00 0. -1.
         -3    1    3    3    0  502 -0.60837790186E+01  0.42147135245E+02 -0.40788385285E+02  0.58966819066E+02  0.00000000000E+00 0.  1.
         13    1    5    5    0    0  0.28910148535E+03 -0.29110741735E+02  0.12698602667E+03  0.31710022877E+03  0.00000000000E+00 0.  1.
        -13    1    5    5    0    0  0.11761504253E+03 -0.64642124847E+02  0.28109430420E+02  0.13712054045E+03  0.00000000000E+00 0. -1.
          4    1    6    6  503    0 -0.19702857077E+02 -0.49110660987E+02  0.13234940070E+01  0.52932138026E+02  0.00000000000E+00 0. -1.
         -4    1    6    6    0  503 -0.40859487569E+03 -0.28768561185E+03  0.33122916225E+01  0.49972367863E+03  0.00000000000E+00 0.  1.
<mgrwt>
<rscale>  0 0.14665811E+04</rscale>
<asrwt>0</asrwt>
<pdfrwt beam="1">  1        2 0.11102473E+00 0.14665811E+04</pdfrwt>
<pdfrwt beam="2">  1       -1 0.11463196E+00 0.14665811E+04</pdfrwt>
<totfact> 0.30167160E+01</totfact>
</mgrwt>
</event>
<event>
12    7  0.1637954E-007  0.1044572E+04  0.7818608E-02  0.9260966E-01
         -1   -1    0    0    0  501 -0.00000000000E+00  0.00000000000E+00  0.20155327788E+04  0.20155327788E+04  0.00000000000E+00 0.  1.
          2   -1    0    0  501    0  0.00000000000E+00 -0.00000000000E+00 -0.13534017011E+03  0.13534017011E+03  0.00000000000E+00 0. -1.
         24    2    1    2    0    0  0.92444100343E+02  0.14059227840E+02  0.37300634272E+03  0.39304903153E+03  0.81303357264E+02 0.  0.
        254    2    1    2    0    0 -0.92444100343E+02 -0.14059227840E+02  0.15071862660E+04  0.17578239174E+04  0.89977269940E+03 0.  0.
         23    2    4    4    0    0 -0.26965350253E+03 -0.14745447156E+03  0.14831748010E+04  0.15175670581E+04  0.93522472787E+02 0.  0.
         23    2    4    4    0    0  0.17720940219E+03  0.13339524372E+03  0.24011464937E+02  0.24025685923E+03  0.89159097622E+02 0.  0.
          4    1    3    3  502    0  0.25679122816E+02  0.18982501549E+02  0.30837599210E+02  0.44392682265E+02  0.00000000000E+00 0. -1.
         -3    1    3    3    0  502  0.66764977527E+02 -0.49232737094E+01  0.34216874351E+03  0.34865634927E+03  0.00000000000E+00 0.  1.
         13    1    5    5    0    0 -0.25730674660E+03 -0.13846628884E+03  0.14648697928E+04  0.14937279487E+04  0.00000000000E+00 0. -1.
        -13    1    5    5    0    0 -0.12346755932E+02 -0.89881827219E+01  0.18305008254E+02  0.23839109418E+02  0.00000000000E+00 0.  1.
          1    1    6    6  503    0  0.17693802058E+03  0.14300522846E+03  0.29138580068E+02  0.22936132050E+03  0.00000000000E+00 0. -1.
         -1    1    6    6    0  503  0.27138160991E+00 -0.96099847411E+01 -0.51271151304E+01  0.10895538732E+02  0.00000000000E+00 0.  1.
<mgrwt>
<rscale>  0 0.10445718E+04</rscale>
<asrwt>0</asrwt>
<pdfrwt beam="1">  1        2 0.20821566E-01 0.10445718E+04</pdfrwt>
<pdfrwt beam="2">  1       -1 0.31008194E+00 0.10445718E+04</pdfrwt>
<totfact> 0.89322801E+00</totfact>
</mgrwt>
</event>
<event>
12    7  0.1637954E-007  0.2151606E+04  0.7818608E-02  0.8538845E-01
          2   -1    0    0  501    0  0.00000000000E+00  0.00000000000E+00  0.15211100506E+04  0.15211100506E+04  0.00000000000E+00 0. -1.
         -1   -1    0    0    0  501 -0.00000000000E+00 -0.00000000000E+00 -0.76086020491E+03  0.76086020491E+03  0.00000000000E+00 0.  1.
         24    2    1    2    0    0  0.12530522225E+03 -0.70578528725E+02  0.12225329628E+04  0.12337303380E+04  0.82589190042E+02 0.  0.
        254    2    1    2    0    0 -0.12530522225E+03  0.70578528725E+02 -0.46228311713E+03  0.10482399175E+04  0.92974110204E+03 0.  0.
         23    2    4    4    0    0 -0.63508116823E+02  0.46901257215E+03 -0.40777248051E+03  0.63138423960E+03  0.91441721400E+02 0.  0.
         23    2    4    4    0    0 -0.61797105431E+02 -0.39843404342E+03 -0.54510636617E+02  0.41685567791E+03  0.90712058192E+02 0.  0.
          4    1    3    3  502    0  0.10173150187E+03 -0.82064766677E+02  0.11306112811E+04  0.11381413767E+04  0.00000000000E+00 0. -1.
         -3    1    3    3    0  502  0.23573720389E+02  0.11486237953E+02  0.91921681749E+02  0.95588961344E+02  0.00000000000E+00 0.  1.
         13    1    5    5    0    0 -0.10995582960E+02  0.21285909655E+03 -0.23866112222E+03  0.31998285749E+03  0.00000000000E+00 0. -1.
        -13    1    5    5    0    0 -0.52512533863E+02  0.25615347560E+03 -0.16911135829E+03  0.31140138210E+03  0.00000000000E+00 0.  1.
          3    1    6    6  503    0 -0.68489685148E+02 -0.37387571121E+03 -0.29612105961E+02  0.38124894915E+03  0.00000000000E+00 0. -1.
         -3    1    6    6    0  503  0.66925797166E+01 -0.24558332212E+02 -0.24898530656E+02  0.35606728762E+02  0.00000000000E+00 0.  1.
<mgrwt>
<rscale>  0 0.21516060E+04</rscale>
<asrwt>0</asrwt>
<pdfrwt beam="1">  1        2 0.23401693E+00 0.21516060E+04</pdfrwt>
<pdfrwt beam="2">  1       -1 0.11705542E+00 0.21516060E+04</pdfrwt>
<totfact> 0.84920789E+00</totfact>
</mgrwt>
</event>
<event>
12    7  0.1637954E-007  0.1768394E+04  0.7818608E-02  0.8723290E-01
          2   -1    0    0  501    0  0.00000000000E+00  0.00000000000E+00  0.30538075908E+04  0.30538075908E+04  0.00000000000E+00 0. -1.
         -1   -1    0    0    0  501 -0.00000000000E+00 -0.00000000000E+00 -0.25600957306E+03  0.25600957306E+03  0.00000000000E+00 0.  1.
         24    2    1    2    0    0  0.26704928584E+03  0.81292053254E+01 -0.70148982347E+02  0.28738994980E+03  0.79313923588E+02 0.  0.
        254    2    1    2    0    0 -0.26704928584E+03 -0.81292053254E+01  0.28679470001E+04  0.30224272140E+04  0.91573187334E+03 0.  0.
         23    2    4    4    0    0  0.32465264117E+03 -0.55875119946E+02  0.12875541568E+04  0.13321617800E+04  0.91312294763E+02 0.  0.
         23    2    4    4    0    0 -0.59170192701E+03  0.47745914620E+02  0.15803928433E+04  0.16902654340E+04  0.83455708855E+02 0.  0.
          2    1    3    3  502    0  0.13216202745E+03 -0.95027323790E+01  0.37943632070E+01  0.13255753699E+03  0.00000000000E+00 0. -1.
         -1    1    3    3    0  502  0.13488725840E+03  0.17631937704E+02 -0.73943345554E+02  0.15483241281E+03  0.00000000000E+00 0.  1.
         13    1    5    5    0    0  0.83248607403E+02  0.22424465866E+02  0.39016591332E+03  0.39957806149E+03  0.00000000000E+00 0.  1.
        -13    1    5    5    0    0  0.24140403377E+03 -0.78299585812E+02  0.89738824344E+03  0.93258371856E+03  0.00000000000E+00 0. -1.
          3    1    6    6  503    0 -0.35602230007E+03  0.68089356377E+02  0.98742177833E+03  0.10518506581E+04  0.00000000000E+00 0. -1.
         -3    1    6    6    0  503 -0.23567962695E+03 -0.20343441757E+02  0.59297106496E+03  0.63841477588E+03  0.00000000000E+00 0.  1.
<mgrwt>
<rscale>  0 0.17683936E+04</rscale>
<asrwt>0</asrwt>
<pdfrwt beam="1">  1        2 0.46981653E+00 0.17683936E+04</pdfrwt>
<pdfrwt beam="2">  1       -1 0.39386090E-01 0.17683936E+04</pdfrwt>
<totfact> 0.10922126E+01</totfact>
</mgrwt>
</event>
<event>
12    7  0.1637954E-007  0.3415055E+04  0.7818608E-02  0.8134221E-01
          2   -1    0    0  501    0  0.00000000000E+00  0.00000000000E+00  0.13766539630E+04  0.13766539630E+04  0.00000000000E+00 0. -1.
         -1   -1    0    0    0  501 -0.00000000000E+00 -0.00000000000E+00 -0.21179247881E+04  0.21179247881E+04  0.00000000000E+00 0.  1.
         24    2    1    2    0    0 -0.19136394431E+02  0.65942048705E+03 -0.18165796320E+04  0.19343002357E+04  0.79713623761E+02 0.  0.
        254    2    1    2    0    0  0.19136394431E+02 -0.65942048705E+03  0.10753088069E+04  0.15602785155E+04  0.91813857089E+03 0.  0.
         23    2    4    4    0    0 -0.26374128372E+03 -0.23129913445E+02  0.54381265928E+01  0.28049990495E+03  0.92499544978E+02 0.  0.
         23    2    4    4    0    0  0.28287767816E+03 -0.63629057361E+03  0.10698706803E+04  0.12797786105E+04  0.91238942058E+02 0.  0.
          4    1    3    3  502    0  0.13244772107E+02  0.75656275854E+02 -0.27675190912E+03  0.28721231740E+03  0.00000000000E+00 0. -1.
         -3    1    3    3    0  502 -0.32381166538E+02  0.58376421120E+03 -0.15398277229E+04  0.16470879183E+04  0.00000000000E+00 0.  1.
         13    1    5    5    0    0 -0.15851703510E+03 -0.50778878496E+02  0.29574517936E+02  0.16905856094E+03  0.00000000000E+00 0. -1.
        -13    1    5    5    0    0 -0.10522424863E+03  0.27648965050E+02 -0.24136391343E+02  0.11144134401E+03  0.00000000000E+00 0.  1.
          2    1    6    6  503    0  0.19183692621E+03 -0.34133409519E+03  0.54931230376E+03  0.67457718451E+03  0.00000000000E+00 0. -1.
         -2    1    6    6    0  503  0.91040751943E+02 -0.29495647842E+03  0.52055837651E+03  0.60520142600E+03  0.00000000000E+00 0.  1.
<mgrwt>
<rscale>  0 0.34150546E+04</rscale>
<asrwt>0</asrwt>
<pdfrwt beam="1">  1        2 0.21179292E+00 0.34150546E+04</pdfrwt>
<pdfrwt beam="2">  1       -1 0.32583458E+00 0.34150546E+04</pdfrwt>
<totfact> 0.31515700E-01</totfact>
</mgrwt>
</event>
<event>
12    7  0.1637954E-007  0.2361219E+04  0.7818608E-02  0.8454167E-01
         -1   -1    0    0    0  501 -0.00000000000E+00  0.00000000000E+00  0.33566743327E+03  0.33566743327E+03  0.00000000000E+00 0.  1.
          2   -1    0    0  501    0  0.00000000000E+00 -0.00000000000E+00 -0.41524401202E+04  0.41524401202E+04  0.00000000000E+00 0. -1.
         24    2    1    2    0    0  0.76930443721E+02 -0.99451930118E+03 -0.18863751933E+04  0.21351766151E+04  0.74705248357E+02 0.  0.
        254    2    1    2    0    0 -0.76930443721E+02  0.99451930118E+03 -0.19303974937E+04  0.23529309384E+04  0.90269739326E+03 0.  0.
         23    2    4    4    0    0  0.35437587786E+03  0.60564790408E+03 -0.13649694186E+04  0.15375340138E+04  0.92074335766E+02 0.  0.
         23    2    4    4    0    0 -0.43130632158E+03  0.38887139710E+03 -0.56542807506E+03  0.81539692462E+03  0.88978256384E+02 0.  0.
          2    1    3    3  502    0  0.64967465489E+02 -0.65368487949E+03 -0.13094852423E+04  0.14650175061E+04  0.00000000000E+00 0. -1.
         -1    1    3    3    0  502  0.11962978232E+02 -0.34083442169E+03 -0.57688995103E+03  0.67015910906E+03  0.00000000000E+00 0.  1.
         13    1    5    5    0    0  0.26116468982E+03  0.51378038067E+03 -0.11342024377E+04  0.12722391459E+04  0.00000000000E+00 0. -1.
        -13    1    5    5    0    0  0.93211188033E+02  0.91867523415E+02 -0.23076698090E+03  0.26529486785E+03  0.00000000000E+00 0.  1.
          3    1    6    6  503    0 -0.28004441314E+03  0.29779878863E+03 -0.36201839123E+03  0.54604606713E+03  0.00000000000E+00 0. -1.
         -3    1    6    6    0  503 -0.15126190843E+03  0.91072608466E+02 -0.20340968383E+03  0.26935085749E+03  0.00000000000E+00 0.  1.
<mgrwt>
<rscale>  0 0.23612191E+04</rscale>
<asrwt>0</asrwt>
<pdfrwt beam="1">  1        2 0.63883697E+00 0.23612191E+04</pdfrwt>
<pdfrwt beam="2">  1       -1 0.51641141E-01 0.23612191E+04</pdfrwt>
<totfact> 0.99544855E-01</totfact>
</mgrwt>
</event>
<event>
12    7  0.1637954E-007  0.1982004E+04  0.7818608E-02  0.8615081E-01
          2   -1    0    0  501    0  0.00000000000E+00  0.00000000000E+00  0.89246036652E+03  0.89246036652E+03  0.00000000000E+00 0. -1.
         -1   -1    0    0    0  501 -0.00000000000E+00 -0.00000000000E+00 -0.11004241497E+04  0.11004241497E+04  0.00000000000E+00 0.  1.
         24    2    1    2    0    0 -0.67268924358E+03  0.77355322947E+02 -0.47177257277E+03  0.82968127748E+03  0.85480976603E+02 0.  0.
        254    2    1    2    0    0  0.67268924358E+03 -0.77355322947E+02  0.26380878964E+03  0.11632032387E+04  0.90826870066E+03 0.  0.
         23    2    4    4    0    0 -0.91064763779E+01 -0.52096738409E+02 -0.27134363056E+03  0.29141882845E+03  0.92198533953E+02 0.  0.
         23    2    4    4    0    0  0.68179571996E+03 -0.25258584538E+02  0.53515242020E+03  0.87178441024E+03  0.90202800685E+02 0.  0.
          2    1    3    3  502    0 -0.65762973597E+03  0.79525288434E+02 -0.44229503223E+03  0.79650865449E+03  0.00000000000E+00 0. -1.
         -1    1    3    3    0  502 -0.15059507606E+02 -0.21699654870E+01 -0.29477540548E+02  0.33172622994E+02  0.00000000000E+00 0.  1.
         13    1    5    5    0    0  0.18948034245E+02 -0.49299970438E+02 -0.25139090672E+03  0.25687916044E+03  0.00000000000E+00 0.  1.
        -13    1    5    5    0    0 -0.28054510623E+02 -0.27967679712E+01 -0.19952723839E+02  0.34539668006E+02  0.00000000000E+00 0. -1.
          3    1    6    6  503    0  0.61010045345E+03 -0.20271695183E+01  0.45023762654E+03  0.75824837162E+03  0.00000000000E+00 0.  1.
         -3    1    6    6    0  503  0.71695266512E+02 -0.23231415019E+02  0.84914793661E+02  0.11353603862E+03  0.00000000000E+00 0. -1.
<mgrwt>
<rscale>  0 0.19820040E+04</rscale>
<asrwt>0</asrwt>
<pdfrwt beam="1">  1        2 0.13730159E+00 0.19820040E+04</pdfrwt>
<pdfrwt beam="2">  1       -1 0.16929602E+00 0.19820040E+04</pdfrwt>
<totfact> 0.78434246E+00</totfact>
</mgrwt>
</event>
<event>
12    7  0.2647767E-007  0.1678452E+04  0.7818608E-02  0.8773750E-01
          2   -1    0    0  501    0  0.00000000000E+00  0.00000000000E+00  0.11231104391E+04  0.11231104391E+04  0.00000000000E+00 0. -1.
         -1   -1    0    0    0  501 -0.00000000000E+00 -0.00000000000E+00 -0.62709774527E+03  0.62709774527E+03  0.00000000000E+00 0.  1.
         24    2    1    2    0    0 -0.17400180811E+03  0.23214424610E+03  0.71876967168E+03  0.77924675129E+03  0.80175296907E+02 0.  0.
        254    2    1    2    0    0  0.17400180811E+03 -0.23214424610E+03 -0.22275697783E+03  0.97096143312E+03  0.89943196141E+03 0.  0.
         23    2    4    4    0    0  0.45042791718E+03 -0.70989340213E+02  0.13274687525E+03  0.48363645657E+03  0.91420425729E+02 0.  0.
         23    2    4    4    0    0 -0.27642610907E+03 -0.16115490589E+03 -0.35550385308E+03  0.48732497654E+03  0.93382791473E+02 0.  0.
          4    1    3    3  502    0 -0.17808220596E+03  0.23373632067E+03  0.68739662993E+03  0.74756943927E+03  0.00000000000E+00 0. -1.
         -3    1    3    3    0  502  0.40803978499E+01 -0.15920745746E+01  0.31373041751E+02  0.31677312019E+02  0.00000000000E+00 0.  1.
         13    1    5    5    0    0  0.40040356862E+03 -0.39809842995E+02  0.13562694719E+03  0.42462043070E+03  0.00000000000E+00 0.  1.
        -13    1    5    5    0    0  0.50024348565E+02 -0.31179497219E+02 -0.28800719443E+01  0.59016025879E+02  0.00000000000E+00 0. -1.
          4    1    6    6  503    0 -0.24939919247E+03 -0.17156327883E+03 -0.30920802668E+03  0.43271644250E+03  0.00000000000E+00 0.  1.
         -4    1    6    6    0  503 -0.27026916603E+02  0.10408372947E+02 -0.46295826394E+02  0.54608534040E+02  0.00000000000E+00 0. -1.
<mgrwt>
<rscale>  0 0.16784517E+04</rscale>
<asrwt>0</asrwt>
<pdfrwt beam="1">  1        2 0.17278622E+00 0.16784517E+04</pdfrwt>
<pdfrwt beam="2">  1       -1 0.96476576E-01 0.16784517E+04</pdfrwt>
<totfact> 0.23706782E+01</totfact>
</mgrwt>
</event>
<event>
12    7  0.1637954E-007  0.2423900E+04  0.7818608E-02  0.8430610E-01
         -1   -1    0    0    0  501 -0.00000000000E+00  0.00000000000E+00  0.61483717405E+03  0.61483717405E+03  0.00000000000E+00 0.  1.
          2   -1    0    0  501    0  0.00000000000E+00 -0.00000000000E+00 -0.23889627341E+04  0.23889627341E+04  0.00000000000E+00 0. -1.
         24    2    1    2    0    0  0.22447426455E+03 -0.18654264323E+03 -0.20046304158E+04  0.20273074057E+04  0.79027590418E+02 0.  0.
        254    2    1    2    0    0 -0.22447426455E+03  0.18654264323E+03  0.23050485571E+03  0.97649250250E+03  0.90289438239E+03 0.  0.
         23    2    4    4    0    0  0.22561683432E+03 -0.45043799006E+02  0.36852001955E+03  0.44383227435E+03  0.90819508868E+02 0.  0.
         23    2    4    4    0    0 -0.45009109887E+03  0.23158644223E+03 -0.13801516384E+03  0.53266022814E+03  0.92002476543E+02 0.  0.
          4    1    3    3  502    0  0.23109828001E+03 -0.18299517713E+03 -0.19618133427E+04  0.19838359915E+04  0.00000000000E+00 0. -1.
         -3    1    3    3    0  502 -0.66240154659E+01 -0.35474660973E+01 -0.42817073140E+02  0.43471414158E+02  0.00000000000E+00 0.  1.
         13    1    5    5    0    0  0.18992314228E+03 -0.12216742728E+02  0.23891009303E+03  0.30544734624E+03  0.00000000000E+00 0. -1.
        -13    1    5    5    0    0  0.35693692045E+02 -0.32827056278E+02  0.12960992653E+03  0.13838492812E+03  0.00000000000E+00 0.  1.
          2    1    6    6  503    0 -0.35920154683E+03  0.19167933057E+03 -0.72035826111E+02  0.41346810912E+03  0.00000000000E+00 0. -1.
         -2    1    6    6    0  503 -0.90889552038E+02  0.39907111666E+02 -0.65979337732E+02  0.11919211903E+03  0.00000000000E+00 0.  1.
<mgrwt>
<rscale>  0 0.24239002E+04</rscale>
<asrwt>0</asrwt>
<pdfrwt beam="1">  1        2 0.36753272E+00 0.24239002E+04</pdfrwt>
<pdfrwt beam="2">  1       -1 0.94590337E-01 0.24239002E+04</pdfrwt>
<totfact> 0.44520820E+00</totfact>
</mgrwt>
</event>
<event>
12    7  0.1637954E-007  0.1937218E+04  0.7818608E-02  0.8636549E-01
         -1   -1    0    0    0  501 -0.00000000000E+00  0.00000000000E+00  0.13331430565E+04  0.13331430565E+04  0.00000000000E+00 0.  1.
          2   -1    0    0  501    0  0.00000000000E+00 -0.00000000000E+00 -0.70375310678E+03  0.70375310678E+03  0.00000000000E+00 0. -1.
         24    2    1    2    0    0  0.20172425253E+03  0.45469028873E+03 -0.34381407117E+03  0.61068601161E+03  0.85401150575E+02 0.  0.
        254    2    1    2    0    0 -0.20172425253E+03 -0.45469028873E+03  0.97320402089E+03  0.14262101517E+04  0.91624963724E+03 0.  0.
         23    2    4    4    0    0 -0.40883439538E+03 -0.57283788298E+03  0.92586702728E+03  0.11666435568E+04  0.92404725710E+02 0.  0.
         23    2    4    4    0    0  0.20711014285E+03  0.11814759425E+03  0.47336993613E+02  0.25956659491E+03  0.90997587492E+02 0.  0.
          4    1    3    3  502    0  0.20981982906E+03  0.42637248636E+03 -0.32577112745E+03  0.57614640958E+03  0.00000000000E+00 0. -1.
         -3    1    3    3    0  502 -0.80955765300E+01  0.28317802371E+02 -0.18042943717E+02  0.34539602031E+02  0.00000000000E+00 0.  1.
         13    1    5    5    0    0 -0.38568355645E+03 -0.54389385115E+03  0.83528355684E+03  0.10687707646E+04  0.00000000000E+00 0. -1.
        -13    1    5    5    0    0 -0.23150838934E+02 -0.28944031825E+02  0.90583470439E+02  0.97872792125E+02  0.00000000000E+00 0.  1.
          2    1    6    6  503    0  0.10180551481E+03  0.18197293127E+02 -0.90511436411E+01  0.10381438977E+03  0.00000000000E+00 0.  1.
         -2    1    6    6    0  503  0.10530462804E+03  0.99950301120E+02  0.56388137255E+02  0.15575220513E+03  0.00000000000E+00 0. -1.
<mgrwt>
<rscale>  0 0.19372182E+04</rscale>
<asrwt>0</asrwt>
<pdfrwt beam="1">  1        2 0.10826971E+00 0.19372182E+04</pdfrwt>
<pdfrwt beam="2">  1       -1 0.20509893E+00 0.19372182E+04</pdfrwt>
<totfact> 0.60223599E+00</totfact>
</mgrwt>
</event>
<event>
12    7  0.1637954E-007  0.1244297E+04  0.7818608E-02  0.9074943E-01
          2   -1    0    0  501    0  0.00000000000E+00  0.00000000000E+00  0.44057649484E+04  0.44057649484E+04  0.00000000000E+00 0. -1.
         -1   -1    0    0    0  501 -0.00000000000E+00 -0.00000000000E+00 -0.87855089071E+02  0.87855089071E+02  0.00000000000E+00 0.  1.
         24    2    1    2    0    0  0.27320042639E+03 -0.16253971778E+02  0.68351859796E+03  0.74070126407E+03  0.80858050017E+02 0.  0.
        254    2    1    2    0    0 -0.27320042639E+03  0.16253971778E+02  0.36343912614E+04  0.37529187734E+04  0.89481663735E+03 0.  0.
         23    2    4    4    0    0 -0.97218536489E+02  0.16203239028E+03  0.34201493901E+04  0.34267712641E+04  0.98150427355E+02 0.  0.
         23    2    4    4    0    0 -0.17598188990E+03 -0.14577841850E+03  0.21424187123E+03  0.32614750929E+03  0.90838568621E+02 0.  0.
          4    1    3    3  502    0  0.18796021553E+03  0.14793590674E+02  0.52805211647E+03  0.56070217643E+03  0.00000000000E+00 0. -1.
         -1    1    3    3    0  502  0.85240210865E+02 -0.31047562452E+02  0.15546648149E+03  0.17999908763E+03  0.00000000000E+00 0.  1.
         13    1    5    5    0    0 -0.70629722638E+02  0.16067543013E+03  0.24601996643E+04  0.24664524199E+04  0.00000000000E+00 0. -1.
        -13    1    5    5    0    0 -0.26588813851E+02  0.13569601496E+01  0.95994972582E+03  0.96031884417E+03  0.00000000000E+00 0.  1.
          1    1    6    6  503    0 -0.17410192266E+03 -0.11669075509E+03  0.15686628324E+03  0.26179236546E+03  0.00000000000E+00 0. -1.
         -1    1    6    6    0  503 -0.18799672497E+01 -0.29087663417E+02  0.57375587986E+02  0.64355143825E+02  0.00000000000E+00 0.  1.
<mgrwt>
<rscale>  0 0.12442972E+04</rscale>
<asrwt>0</asrwt>
<pdfrwt beam="1">  1        2 0.67780982E+00 0.12442972E+04</pdfrwt>
<pdfrwt beam="2">  1       -1 0.13516171E-01 0.12442972E+04</pdfrwt>
<totfact> 0.69584575E+00</totfact>
</mgrwt>
</event>
<event>
12    7  0.1637954E-007  0.1716975E+04  0.7818608E-02  0.8751741E-01
         -1   -1    0    0    0  501 -0.00000000000E+00  0.00000000000E+00  0.23615978808E+03  0.23615978808E+03  0.00000000000E+00 0.  1.
          2   -1    0    0  501    0  0.00000000000E+00 -0.00000000000E+00 -0.31207735281E+04  0.31207735281E+04  0.00000000000E+00 0. -1.
         24    2    1    2    0    0 -0.46128834591E+03 -0.11281541040E+03 -0.18034960714E+04  0.18669452533E+04  0.85861773920E+02 0.  0.
        254    2    1    2    0    0  0.46128834591E+03  0.11281541040E+03 -0.10811176686E+04  0.14899880629E+04  0.90869948793E+03 0.  0.
         23    2    4    4    0    0  0.53905288193E+02 -0.14499226268E+03  0.10361937317E+03  0.20789797709E+03  0.92498962422E+02 0.  0.
         23    2    4    4    0    0  0.40738305772E+03  0.25780767308E+03 -0.11847370418E+04  0.12820900858E+04  0.87905506151E+02 0.  0.
          2    1    3    3  502    0 -0.30276617965E+03 -0.98297357626E+02 -0.10685239637E+04  0.11149319222E+04  0.00000000000E+00 0. -1.
         -1    1    3    3    0  502 -0.15852216626E+03 -0.14518052778E+02 -0.73497210770E+03  0.75201333109E+03  0.00000000000E+00 0.  1.
         13    1    5    5    0    0  0.50696235153E+02 -0.15742723868E+03  0.10340475725E+03  0.19505380683E+03  0.00000000000E+00 0.  1.
        -13    1    5    5    0    0  0.32090530403E+01  0.12434976001E+02  0.21461591658E+00  0.12844170256E+02  0.00000000000E+00 0. -1.
          1    1    6    6  503    0  0.11662973160E+02 -0.54987786300E+01 -0.53902464488E+02  0.55423254932E+02  0.00000000000E+00 0. -1.
         -1    1    6    6    0  503  0.39572008456E+03  0.26330645171E+03 -0.11308345773E+04  0.12266668309E+04  0.00000000000E+00 0.  1.
<mgrwt>
<rscale>  0 0.17169755E+04</rscale>
<asrwt>0</asrwt>
<pdfrwt beam="1">  1        2 0.48011895E+00 0.17169755E+04</pdfrwt>
<pdfrwt beam="2">  1       -1 0.36332279E-01 0.17169755E+04</pdfrwt>
<totfact> 0.11521339E+01</totfact>
</mgrwt>
</event>
<event>
12    7  0.1637954E-007  0.1248968E+04  0.7818608E-02  0.9071043E-01
          2   -1    0    0  501    0  0.00000000000E+00  0.00000000000E+00  0.32489116354E+03  0.32489116354E+03  0.00000000000E+00 0. -1.
         -1   -1    0    0    0  501 -0.00000000000E+00 -0.00000000000E+00 -0.12003404537E+04  0.12003404537E+04  0.00000000000E+00 0.  1.
         24    2    1    2    0    0  0.21842445157E+01 -0.21134468200E+03  0.34843321257E+02  0.22966654551E+03  0.82833082511E+02 0.  0.
        254    2    1    2    0    0 -0.21842445157E+01  0.21134468200E+03 -0.91029261137E+03  0.12955650717E+04  0.89732094099E+03 0.  0.
         23    2    4    4    0    0 -0.14352196877E+03 -0.31929120495E+03 -0.41315306601E+03  0.54919856924E+03  0.91532417384E+02 0.  0.
         23    2    4    4    0    0  0.14133772425E+03  0.53063588695E+03 -0.49713954536E+03  0.74636650245E+03  0.91457266521E+02 0.  0.
          2    1    3    3  502    0  0.20823213657E+02 -0.18443393691E+03  0.54723133371E+01  0.18568637409E+03  0.00000000000E+00 0. -1.
         -1    1    3    3    0  502 -0.18638969141E+02 -0.26910745092E+02  0.29371007920E+02  0.43980171422E+02  0.00000000000E+00 0.  1.
         13    1    5    5    0    0 -0.68124114771E+02 -0.21771158536E+03 -0.31578020324E+03  0.38955919469E+03  0.00000000000E+00 0. -1.
        -13    1    5    5    0    0 -0.75397853996E+02 -0.10157961959E+03 -0.97372862771E+02  0.15963937455E+03  0.00000000000E+00 0.  1.
          2    1    6    6  503    0  0.81458671882E+02  0.44040252371E+03 -0.38710130777E+03  0.59197746629E+03  0.00000000000E+00 0. -1.
         -2    1    6    6    0  503  0.59879052369E+02  0.90233363234E+02 -0.11003823760E+03  0.15438903616E+03  0.00000000000E+00 0.  1.
<mgrwt>
<rscale>  0 0.12489676E+04</rscale>
<asrwt>0</asrwt>
<pdfrwt beam="1">  1        2 0.49983257E-01 0.12489676E+04</pdfrwt>
<pdfrwt beam="2">  1       -1 0.18466776E+00 0.12489676E+04</pdfrwt>
<totfact> 0.21805521E+01</totfact>
</mgrwt>
</event>
<event>
12    7  0.1637954E-007  0.3096976E+04  0.7818608E-02  0.8216568E-01
          2   -1    0    0  501    0  0.00000000000E+00  0.00000000000E+00  0.17033699359E+04  0.17033699359E+04  0.00000000000E+00 0. -1.
         -1   -1    0    0    0  501 -0.00000000000E+00 -0.00000000000E+00 -0.14076887001E+04  0.14076887001E+04  0.00000000000E+00 0.  1.
         24    2    1    2    0    0  0.66604359841E+03 -0.50782745441E+03 -0.10103133591E+04  0.13146855936E+04  0.78500497528E+02 0.  0.
        254    2    1    2    0    0 -0.66604359841E+03  0.50782745441E+03  0.13059945948E+04  0.17963730424E+04  0.90544543032E+03 0.  0.
         23    2    4    4    0    0 -0.50435612660E+03  0.59421972293E+03  0.42604703353E+03  0.89288373173E+03  0.90846585247E+02 0.  0.
         23    2    4    4    0    0 -0.16168747181E+03 -0.86392268518E+02  0.87994756130E+03  0.90348931067E+03  0.91535573722E+02 0.  0.
          4    1    3    3  502    0  0.99067734949E+02 -0.10588036329E+03 -0.20224758737E+03  0.24885568917E+03  0.00000000000E+00 0. -1.
         -3    1    3    3    0  502  0.56697586346E+03 -0.40194709112E+03 -0.80806577170E+03  0.10658299044E+04  0.00000000000E+00 0.  1.
         13    1    5    5    0    0 -0.17116682105E+03  0.14013649254E+03  0.13045333290E+03  0.25681586640E+03  0.00000000000E+00 0.  1.
        -13    1    5    5    0    0 -0.33318930555E+03  0.45408323039E+03  0.29559370063E+03  0.63606786533E+03  0.00000000000E+00 0. -1.
          3    1    6    6  503    0 -0.84816816604E+02 -0.94826610790E+02  0.57240529588E+03  0.58637343156E+03  0.00000000000E+00 0. -1.
         -3    1    6    6    0  503 -0.76870655202E+02  0.84343422725E+01  0.30754226542E+03  0.31711587910E+03  0.00000000000E+00 0.  1.
<mgrwt>
<rscale>  0 0.30969757E+04</rscale>
<asrwt>0</asrwt>
<pdfrwt beam="1">  1        2 0.26205691E+00 0.30969757E+04</pdfrwt>
<pdfrwt beam="2">  1       -1 0.21656749E+00 0.30969757E+04</pdfrwt>
<totfact> 0.10953556E+00</totfact>
</mgrwt>
</event>
<event>
12    7  0.1637954E-007  0.1441856E+04  0.7818608E-02  0.8924066E-01
          2   -1    0    0  501    0  0.00000000000E+00  0.00000000000E+00  0.10084879698E+04  0.10084879698E+04  0.00000000000E+00 0. -1.
         -1   -1    0    0    0  501 -0.00000000000E+00 -0.00000000000E+00 -0.51536281462E+03  0.51536281462E+03  0.00000000000E+00 0.  1.
         24    2    1    2    0    0  0.19875722890E+02 -0.49543063784E+02 -0.29368287554E+03  0.30932229553E+03  0.81123927402E+02 0.  0.
        254    2    1    2    0    0 -0.19875722890E+02  0.49543063784E+02  0.78680803067E+03  0.12145284888E+04  0.92366823781E+03 0.  0.
         23    2    4    4    0    0  0.99201838702E+02 -0.39498668728E+03  0.55082013543E+03  0.69100236269E+03  0.90697054649E+02 0.  0.
         23    2    4    4    0    0 -0.11907756159E+03  0.44452975106E+03  0.23598789524E+03  0.52352612615E+03  0.81259785913E+02 0.  0.
          4    1    3    3  502    0 -0.16090385377E+02  0.12797487638E+02 -0.32945250981E+02  0.38833822290E+02  0.00000000000E+00 0. -1.
         -3    1    3    3    0  502  0.35966108267E+02 -0.62340551422E+02 -0.26073762456E+03  0.27048847325E+03  0.00000000000E+00 0.  1.
         13    1    5    5    0    0 -0.37375866658E+01 -0.12425978088E+03  0.20682502678E+03  0.24131111537E+03  0.00000000000E+00 0. -1.
        -13    1    5    5    0    0  0.10293942537E+03 -0.27072690640E+03  0.34399510865E+03  0.44969124732E+03  0.00000000000E+00 0.  1.
          4    1    6    6  503    0 -0.10850579292E+02  0.15274571396E+01  0.87099093412E+01  0.13997525389E+02  0.00000000000E+00 0.  1.
         -4    1    6    6    0  503 -0.10822698230E+03  0.44300229392E+03  0.22727798590E+03  0.50952860076E+03  0.00000000000E+00 0. -1.
<mgrwt>
<rscale>  0 0.14418560E+04</rscale>
<asrwt>0</asrwt>
<pdfrwt beam="1">  1        2 0.15515200E+00 0.14418560E+04</pdfrwt>
<pdfrwt beam="2">  1       -1 0.79286587E-01 0.14418560E+04</pdfrwt>
<totfact> 0.43792707E+01</totfact>
</mgrwt>
</event>
<event>
12    7  0.1637954E-007  0.1727837E+04  0.7818608E-02  0.8745645E-01
          2   -1    0    0  501    0  0.00000000000E+00  0.00000000000E+00  0.64238810591E+03  0.64238810591E+03  0.00000000000E+00 0. -1.
         -1   -1    0    0    0  501 -0.00000000000E+00 -0.00000000000E+00 -0.11618442320E+04  0.11618442320E+04  0.00000000000E+00 0.  1.
         24    2    1    2    0    0 -0.50355680260E+03  0.34548886939E+03 -0.20148326283E+02  0.61660486168E+03  0.82846774682E+02 0.  0.
        254    2    1    2    0    0  0.50355680260E+03 -0.34548886939E+03 -0.49930779984E+03  0.11876274763E+04  0.88781683419E+03 0.  0.
         23    2    4    4    0    0  0.57729435000E+03 -0.57093451777E+03 -0.32654468802E+03  0.88073880880E+03  0.99168674180E+02 0.  0.
         23    2    4    4    0    0 -0.73737547394E+02  0.22544564838E+03 -0.17276311183E+03  0.30688866746E+03  0.89836491110E+02 0.  0.
          4    1    3    3  502    0 -0.50363265960E+03  0.33947269422E+03 -0.13324418874E+02  0.60750728891E+03  0.00000000000E+00 0. -1.
         -3    1    3    3    0  502  0.75857001914E-01  0.60161751700E+01 -0.68239074090E+01  0.90975727690E+01  0.00000000000E+00 0.  1.
         13    1    5    5    0    0  0.37955241527E+03 -0.43621965029E+03 -0.21732258952E+03  0.61771897101E+03  0.00000000000E+00 0.  1.
        -13    1    5    5    0    0  0.19774193473E+03 -0.13471486748E+03 -0.10922209850E+03  0.26301983779E+03  0.00000000000E+00 0. -1.
          4    1    6    6  503    0  0.11525778621E+02  0.97018343846E+02 -0.49568455260E+02  0.10955562228E+03  0.00000000000E+00 0.  1.
         -4    1    6    6    0  503 -0.85263326016E+02  0.12842730454E+03 -0.12319465656E+03  0.19733304518E+03  0.00000000000E+00 0. -1.
<mgrwt>
<rscale>  0 0.17278367E+04</rscale>
<asrwt>0</asrwt>
<pdfrwt beam="1">  1        2 0.98828941E-01 0.17278367E+04</pdfrwt>
<pdfrwt beam="2">  1       -1 0.17874526E+00 0.17278367E+04</pdfrwt>
<totfact> 0.10511940E+01</totfact>
</mgrwt>
</event>
<event>
12    7  0.1637954E-007  0.1961415E+04  0.7818608E-02  0.8624876E-01
          2   -1    0    0  501    0  0.00000000000E+00  0.00000000000E+00  0.21528798491E+04  0.21528798491E+04  0.00000000000E+00 0. -1.
         -1   -1    0    0    0  501 -0.00000000000E+00 -0.00000000000E+00 -0.44674431524E+03  0.44674431524E+03  0.00000000000E+00 0.  1.
         24    2    1    2    0    0 -0.66400273544E+03 -0.24983249115E+03  0.30773518653E+03  0.77752693639E+03  0.80816368843E+02 0.  0.
        254    2    1    2    0    0  0.66400273544E+03  0.24983249115E+03  0.13984003473E+04  0.18220972280E+04  0.92800801203E+03 0.  0.
         23    2    4    4    0    0  0.22612514434E+03  0.52424995634E+02 -0.82659858374E+02  0.26245539379E+03  0.90383740090E+02 0.  0.
         23    2    4    4    0    0  0.43787759111E+03  0.19740749552E+03  0.14810602057E+04  0.15596418342E+04  0.90756894393E+02 0.  0.
          2    1    3    3  502    0 -0.80131615071E+02 -0.25771730951E+02  0.96258587576E+01  0.84722576725E+02  0.00000000000E+00 0. -1.
         -1    1    3    3    0  502 -0.58387112037E+03 -0.22406076020E+03  0.29810932778E+03  0.69280435966E+03  0.00000000000E+00 0.  1.
         13    1    5    5    0    0  0.22094524775E+03  0.68737366559E+02 -0.81412432978E+02  0.24529494962E+03  0.00000000000E+00 0.  1.
        -13    1    5    5    0    0  0.51798965820E+01 -0.16312370925E+02 -0.12474253957E+01  0.17160444164E+02  0.00000000000E+00 0. -1.
          1    1    6    6  503    0  0.31136371498E+03  0.17000033850E+03  0.98370025287E+03  0.10457120376E+04  0.00000000000E+00 0. -1.
         -1    1    6    6    0  503  0.12651387612E+03  0.27407157012E+02  0.49735995285E+03  0.51392979657E+03  0.00000000000E+00 0.  1.
<mgrwt>
<rscale>  0 0.19614146E+04</rscale>
<asrwt>0</asrwt>
<pdfrwt beam="1">  1        2 0.33121228E+00 0.19614146E+04</pdfrwt>
<pdfrwt beam="2">  1       -1 0.68729896E-01 0.19614146E+04</pdfrwt>
<totfact> 0.12476096E+01</totfact>
</mgrwt>
</event>
<event>
12    7  0.1637954E-007  0.2275927E+04  0.7818608E-02  0.8487474E-01
         -1   -1    0    0    0  501 -0.00000000000E+00  0.00000000000E+00  0.33146036932E+03  0.33146036932E+03  0.00000000000E+00 0.  1.
          2   -1    0    0  501    0  0.00000000000E+00 -0.00000000000E+00 -0.39068339866E+04  0.39068339866E+04  0.00000000000E+00 0. -1.
         24    2    1    2    0    0 -0.54654657966E+02  0.15815439883E+03 -0.31829662952E+04  0.31892924790E+04  0.11096005889E+03 0.  0.
        254    2    1    2    0    0  0.54654657966E+02 -0.15815439883E+03 -0.39240732209E+03  0.10490018769E+04  0.95834309403E+03 0.  0.
         23    2    4    4    0    0  0.12298857328E+02 -0.53992467091E+02  0.31203280003E+03  0.32984410467E+03  0.91467025185E+02 0.  0.
         23    2    4    4    0    0  0.42355800638E+02 -0.10416193174E+03 -0.70444012212E+03  0.71915777227E+03  0.91149843058E+02 0.  0.
          4    1    3    3  502    0 -0.16668510429E+02  0.16069982102E+03 -0.24306430309E+04  0.24360065303E+04  0.00000000000E+00 0. -1.
         -3    1    3    3    0  502 -0.37986147537E+02 -0.25454221842E+01 -0.75232326429E+03  0.75328594874E+03  0.00000000000E+00 0.  1.
         13    1    5    5    0    0  0.23226559356E+02 -0.63886718187E+02  0.30673863534E+03  0.31418080182E+03  0.00000000000E+00 0.  1.
        -13    1    5    5    0    0 -0.10927702028E+02  0.98942510957E+01  0.52941646846E+01  0.15663302847E+02  0.00000000000E+00 0. -1.
          4    1    6    6  503    0  0.37054888516E+02  0.26569792036E+01 -0.15336533229E+03  0.15780066366E+03  0.00000000000E+00 0. -1.
         -4    1    6    6    0  503  0.53009121223E+01 -0.10681891095E+03 -0.55107478983E+03  0.56135710861E+03  0.00000000000E+00 0.  1.
<mgrwt>
<rscale>  0 0.22759267E+04</rscale>
<asrwt>0</asrwt>
<pdfrwt beam="1">  1        2 0.60105133E+00 0.22759267E+04</pdfrwt>
<pdfrwt beam="2">  1       -1 0.50993908E-01 0.22759267E+04</pdfrwt>
<totfact> 0.16309819E+00</totfact>
</mgrwt>
</event>
<event>
12    7  0.1637954E-007  0.1209173E+04  0.7818608E-02  0.9104865E-01
          2   -1    0    0  501    0  0.00000000000E+00  0.00000000000E+00  0.13141561237E+04  0.13141561237E+04  0.00000000000E+00 0. -1.
         -1   -1    0    0    0  501 -0.00000000000E+00 -0.00000000000E+00 -0.27814420597E+03  0.27814420597E+03  0.00000000000E+00 0.  1.
         24    2    1    2    0    0  0.79853009032E+01 -0.77713359373E+01  0.58106173418E+03  0.58659572851E+03  0.79609365540E+02 0.  0.
        254    2    1    2    0    0 -0.79853009032E+01  0.77713359373E+01  0.45495018352E+03  0.10057046011E+04  0.89684888167E+03 0.  0.
         23    2    4    4    0    0  0.37230822697E+03  0.16665967990E+03  0.40219045362E+03  0.58027300397E+03  0.92578255444E+02 0.  0.
         23    2    4    4    0    0 -0.38029352787E+03 -0.15888834396E+03  0.52759729900E+02  0.42543159716E+03  0.91322404572E+02 0.  0.
          2    1    3    3  502    0 -0.25837923386E+02 -0.15155905539E+02  0.45136633840E+03  0.45235922805E+03  0.00000000000E+00 0. -1.
         -1    1    3    3    0  502  0.33823224289E+02  0.73845696016E+01  0.12969539578E+03  0.13423650046E+03  0.00000000000E+00 0.  1.
         13    1    5    5    0    0  0.37562131289E+03  0.17108172113E+03  0.39643559569E+03  0.57229494802E+03  0.00000000000E+00 0.  1.
        -13    1    5    5    0    0 -0.33130859183E+01 -0.44220412303E+01  0.57548579370E+01  0.79780559549E+01  0.00000000000E+00 0. -1.
          1    1    6    6  503    0 -0.27513187868E+02 -0.41574420046E+02 -0.53171087723E+00  0.49856700906E+02  0.00000000000E+00 0. -1.
         -1    1    6    6    0  503 -0.35278034000E+03 -0.11731392391E+03  0.53291440777E+02  0.37557489625E+03  0.00000000000E+00 0.  1.
<mgrwt>
<rscale>  0 0.12091731E+04</rscale>
<asrwt>0</asrwt>
<pdfrwt beam="1">  1        2 0.20217786E+00 0.12091731E+04</pdfrwt>
<pdfrwt beam="2">  1       -1 0.42791417E-01 0.12091731E+04</pdfrwt>
<totfact> 0.98007107E+01</totfact>
</mgrwt>
</event>
<event>
12    7  0.1637954E-007  0.2637089E+04  0.7818608E-02  0.8355711E-01
          2   -1    0    0  501    0  0.00000000000E+00  0.00000000000E+00  0.11767038163E+04  0.11767038163E+04  0.00000000000E+00 0. -1.
         -1   -1    0    0    0  501 -0.00000000000E+00 -0.00000000000E+00 -0.14774823504E+04  0.14774823504E+04  0.00000000000E+00 0.  1.
         24    2    1    2    0    0  0.93455052075E+03  0.87372410078E+02 -0.82286107561E+03  0.12506310989E+04  0.77195737612E+02 0.  0.
        254    2    1    2    0    0 -0.93455052075E+03 -0.87372410078E+02  0.52208254154E+03  0.14035550679E+04  0.90353640460E+03 0.  0.
         23    2    4    4    0    0 -0.10538261181E+04  0.61801424794E+02  0.54489587842E+03  0.11908841342E+04  0.83214178531E+02 0.  0.
         23    2    4    4    0    0  0.11927559733E+03 -0.14917383487E+03 -0.22813336878E+02  0.21267093366E+03  0.90713706541E+02 0.  0.
          4    1    3    3  502    0  0.24158701474E+03  0.37637763818E+02 -0.17489854356E+03  0.30061667867E+03  0.00000000000E+00 0. -1.
         -3    1    3    3    0  502  0.69296350601E+03  0.49734646260E+02 -0.64796253206E+03  0.95001442023E+03  0.00000000000E+00 0.  1.
         13    1    5    5    0    0 -0.70447967535E+03  0.70530295583E+02  0.39392713816E+03  0.81021276573E+03  0.00000000000E+00 0.  1.
        -13    1    5    5    0    0 -0.34934644273E+03 -0.87288707887E+01  0.15096874026E+03  0.38067136847E+03  0.00000000000E+00 0. -1.
          1    1    6    6  503    0  0.11783481125E+03 -0.13671395168E+03  0.66906143561E+01  0.18061149367E+03  0.00000000000E+00 0. -1.
         -1    1    6    6    0  503  0.14407860798E+01 -0.12459883191E+02 -0.29503951234E+02  0.32059439985E+02  0.00000000000E+00 0.  1.
<mgrwt>
<rscale>  0 0.26370886E+04</rscale>
<asrwt>0</asrwt>
<pdfrwt beam="1">  1        2 0.18103136E+00 0.26370886E+04</pdfrwt>
<pdfrwt beam="2">  1       -1 0.22730498E+00 0.26370886E+04</pdfrwt>
<totfact> 0.19336064E+00</totfact>
</mgrwt>
</event>
<event>
12    7  0.1637954E-007  0.1250186E+04  0.7818608E-02  0.9070028E-01
         -1   -1    0    0    0  501 -0.00000000000E+00  0.00000000000E+00  0.32359149503E+03  0.32359149503E+03  0.00000000000E+00 0.  1.
          2   -1    0    0  501    0  0.00000000000E+00 -0.00000000000E+00 -0.12075144970E+04  0.12075144970E+04  0.00000000000E+00 0. -1.
         24    2    1    2    0    0  0.13685359475E+03  0.16606672043E+03  0.29590948900E+02  0.23118367079E+03  0.79140402782E+02 0.  0.
        254    2    1    2    0    0 -0.13685359475E+03 -0.16606672043E+03 -0.91351395084E+03  0.12999223212E+04  0.89943495638E+03 0.  0.
         23    2    4    4    0    0  0.18886490712E+03 -0.33751610284E+03 -0.11012581053E+03  0.41152111042E+03  0.87377670846E+02 0.  0.
         23    2    4    4    0    0 -0.32571850187E+03  0.17144938241E+03 -0.80338814032E+03  0.88840121079E+03  0.91305937012E+02 0.  0.
          4    1    3    3  502    0  0.61480382150E+01 -0.89295087781E+01  0.75350560476E+00  0.10867486904E+02  0.00000000000E+00 0. -1.
         -3    1    3    3    0  502  0.13070555654E+03  0.17499622920E+03  0.28837443295E+02  0.22031618388E+03  0.00000000000E+00 0.  1.
         13    1    5    5    0    0  0.72654192814E+02 -0.21380966132E+03 -0.48625640188E+02  0.23099276156E+03  0.00000000000E+00 0.  1.
        -13    1    5    5    0    0  0.11621071431E+03 -0.12370644151E+03 -0.61500170339E+02  0.18052834886E+03  0.00000000000E+00 0. -1.
          3    1    6    6  503    0 -0.29034290561E+03  0.15633784784E+03 -0.63321119777E+03  0.71393063142E+03  0.00000000000E+00 0. -1.
         -3    1    6    6    0  503 -0.35375596260E+02  0.15111534574E+02 -0.17017694255E+03  0.17447057936E+03  0.00000000000E+00 0.  1.
<mgrwt>
<rscale>  0 0.12501863E+04</rscale>
<asrwt>0</asrwt>
<pdfrwt beam="1">  1        2 0.18577146E+00 0.12501863E+04</pdfrwt>
<pdfrwt beam="2">  1       -1 0.49783307E-01 0.12501863E+04</pdfrwt>
<totfact> 0.85042077E+01</totfact>
</mgrwt>
</event>
<event>
12    7  0.1637954E-007  0.2068176E+04  0.7818608E-02  0.8575393E-01
          2   -1    0    0  501    0  0.00000000000E+00  0.00000000000E+00  0.32469066590E+04  0.32469066590E+04  0.00000000000E+00 0. -1.
         -1   -1    0    0    0  501 -0.00000000000E+00 -0.00000000000E+00 -0.32934069684E+03  0.32934069684E+03  0.00000000000E+00 0.  1.
         24    2    1    2    0    0 -0.78002887269E+03 -0.17013270664E+03  0.16461064378E+04  0.18308336977E+04  0.69967448460E+02 0.  0.
        254    2    1    2    0    0  0.78002887269E+03  0.17013270664E+03  0.12714595244E+04  0.17454136582E+04  0.89020746795E+03 0.  0.
         23    2    4    4    0    0  0.55789609256E+03  0.28959423436E+03  0.13285047674E+04  0.14725571285E+04  0.91578976567E+02 0.  0.
         23    2    4    4    0    0  0.22213278012E+03 -0.11946152772E+03 -0.57045243043E+02  0.27285652970E+03  0.87077536923E+02 0.  0.
          4    1    3    3  502    0 -0.31858703410E+03 -0.43473453109E+02  0.60949661448E+03  0.68911084920E+03  0.00000000000E+00 0. -1.
         -3    1    3    3    0  502 -0.46144183859E+03 -0.12665925354E+03  0.10366098233E+04  0.11417228485E+04  0.00000000000E+00 0.  1.
         13    1    5    5    0    0  0.45416914540E+03  0.24823453234E+03  0.11621732538E+04  0.12722172250E+04  0.00000000000E+00 0.  1.
        -13    1    5    5    0    0  0.10372694716E+03  0.41359702026E+02  0.16633151364E+03  0.20033990354E+03  0.00000000000E+00 0. -1.
          3    1    6    6  503    0  0.34972203316E+02  0.89653962323E+01  0.74962866894E+01  0.36873129085E+02  0.00000000000E+00 0. -1.
         -3    1    6    6    0  503  0.18716057681E+03 -0.12842692395E+03 -0.64541529732E+02  0.23598340062E+03  0.00000000000E+00 0.  1.
<mgrwt>
<rscale>  0 0.20681765E+04</rscale>
<asrwt>0</asrwt>
<pdfrwt beam="1">  1        2 0.49952408E+00 0.20681765E+04</pdfrwt>
<pdfrwt beam="2">  1       -1 0.50667802E-01 0.20681765E+04</pdfrwt>
<totfact> 0.49871728E+00</totfact>
</mgrwt>
</event>
<event>
12    7  0.1637954E-007  0.1107703E+04  0.7818608E-02  0.9197716E-01
          2   -1    0    0  501    0  0.00000000000E+00  0.00000000000E+00  0.90510156898E+03  0.90510156898E+03  0.00000000000E+00 0. -1.
         -1   -1    0    0    0  501 -0.00000000000E+00 -0.00000000000E+00 -0.33891411226E+03  0.33891411226E+03  0.00000000000E+00 0.  1.
         24    2    1    2    0    0 -0.10093062694E+01  0.90218086624E+02  0.27275954731E+03  0.29814192786E+03  0.79690128913E+02 0.  0.
        254    2    1    2    0    0  0.10093062694E+01 -0.90218086624E+02  0.29342790942E+03  0.94587375338E+03  0.89467139077E+03 0.  0.
         23    2    4    4    0    0  0.19040719022E+03  0.20229425078E+03  0.46379499982E+03  0.54708799719E+03  0.83795064437E+02 0.  0.
         23    2    4    4    0    0 -0.18939788395E+03 -0.29251233740E+03 -0.17036709040E+03  0.39878575619E+03  0.92574877112E+02 0.  0.
          2    1    3    3  502    0  0.53884774765E+01  0.87937236940E+02  0.27663248056E+03  0.29032313485E+03  0.00000000000E+00 0. -1.
         -1    1    3    3    0  502 -0.63977837459E+01  0.22808496848E+01 -0.38729332494E+01  0.78187930078E+01  0.00000000000E+00 0.  1.
         13    1    5    5    0    0  0.17556139091E+03  0.20583329397E+03  0.45532883182E+03  0.52963524427E+03  0.00000000000E+00 0.  1.
        -13    1    5    5    0    0  0.14845799308E+02 -0.35390431921E+01  0.84661679975E+01  0.17452752917E+02  0.00000000000E+00 0. -1.
          2    1    6    6  503    0 -0.46143327986E+01 -0.45511963745E+02 -0.49715498998E+02  0.67559320243E+02  0.00000000000E+00 0. -1.
         -2    1    6    6    0  503 -0.18478355115E+03 -0.24700037366E+03 -0.12065159140E+03  0.33122643595E+03  0.00000000000E+00 0.  1.
<mgrwt>
<rscale>  0 0.11077034E+04</rscale>
<asrwt>0</asrwt>
<pdfrwt beam="1">  1        2 0.13924639E+00 0.11077034E+04</pdfrwt>
<pdfrwt beam="2">  1       -1 0.52140633E-01 0.11077034E+04</pdfrwt>
<totfact> 0.12198136E+02</totfact>
</mgrwt>
</event>
<event>
12    7  0.1637954E-007  0.2910561E+04  0.7818608E-02  0.8269742E-01
         -1   -1    0    0    0  501 -0.00000000000E+00  0.00000000000E+00  0.86025250312E+03  0.86025250312E+03  0.00000000000E+00 0.  1.
          2   -1    0    0  501    0  0.00000000000E+00 -0.00000000000E+00 -0.24618841341E+04  0.24618841341E+04  0.00000000000E+00 0. -1.
         24    2    1    2    0    0 -0.12446679687E+04 -0.32300080507E+03 -0.87766456027E+03  0.15588721017E+04  0.79115591444E+02 0.  0.
        254    2    1    2    0    0  0.12446679687E+04  0.32300080507E+03 -0.72396707065E+03  0.17632645354E+04  0.96511430940E+03 0.  0.
         23    2    4    4    0    0  0.37008026643E+03  0.47240503471E+03  0.10573618841E+02  0.60775948286E+03  0.95571267454E+02 0.  0.
         23    2    4    4    0    0  0.87458770226E+03 -0.14940422964E+03 -0.73454068949E+03  0.11555050526E+04  0.91742189085E+02 0.  0.
          2    1    3    3  502    0 -0.45116669101E+03 -0.11370596380E+03 -0.36385186078E+03  0.59065100176E+03  0.00000000000E+00 0. -1.
         -1    1    3    3    0  502 -0.79350127768E+03 -0.20929484128E+03 -0.51381269949E+03  0.96822109997E+03  0.00000000000E+00 0.  1.
         13    1    5    5    0    0  0.11910940715E+03  0.17477638390E+03 -0.39734048859E+02  0.21520369393E+03  0.00000000000E+00 0.  1.
        -13    1    5    5    0    0  0.25097085928E+03  0.29762865081E+03  0.50307667700E+02  0.39255578893E+03  0.00000000000E+00 0. -1.
          4    1    6    6  503    0  0.82491163135E+03 -0.13908052610E+03 -0.66110694403E+03  0.10662480873E+04  0.00000000000E+00 0. -1.
         -4    1    6    6    0  503  0.49676070913E+02 -0.10323703542E+02 -0.73433745458E+02  0.89256965264E+02  0.00000000000E+00 0.  1.
<mgrwt>
<rscale>  0 0.29105615E+04</rscale>
<asrwt>0</asrwt>
<pdfrwt beam="1">  1        2 0.37875140E+00 0.29105615E+04</pdfrwt>
<pdfrwt beam="2">  1       -1 0.13234654E+00 0.29105615E+04</pdfrwt>
<totfact> 0.17395377E+00</totfact>
</mgrwt>
</event>
<event>
12    7  0.1637954E-007  0.1598201E+04  0.7818608E-02  0.8821654E-01
          2   -1    0    0  501    0  0.00000000000E+00  0.00000000000E+00  0.34322558393E+04  0.34322558393E+04  0.00000000000E+00 0. -1.
         -1   -1    0    0    0  501 -0.00000000000E+00 -0.00000000000E+00 -0.18604709074E+03  0.18604709074E+03  0.00000000000E+00 0.  1.
         24    2    1    2    0    0 -0.21676812648E+03 -0.44494106459E+03  0.61548212030E+03  0.79380272142E+03  0.79646396729E+02 0.  0.
        254    2    1    2    0    0  0.21676812648E+03  0.44494106459E+03  0.26307266283E+04  0.28245002087E+04  0.90117582319E+03 0.  0.
         23    2    4    4    0    0 -0.96015179493E+02  0.44690108839E+02  0.23676605478E+01  0.14587546024E+03  0.10028919963E+03 0.  0.
         23    2    4    4    0    0  0.31278330597E+03  0.40025095575E+03  0.26283589677E+04  0.26786247484E+04  0.93410146429E+02 0.  0.
          4    1    3    3  502    0 -0.37647252270E+02 -0.14517024725E+03  0.21942305342E+03  0.26577846538E+03  0.00000000000E+00 0. -1.
         -3    1    3    3    0  502 -0.17912087421E+03 -0.29977081734E+03  0.39605906688E+03  0.52802425604E+03  0.00000000000E+00 0.  1.
         13    1    5    5    0    0 -0.25340686288E+01 -0.21600228736E+02 -0.19497188134E+02  0.29208418827E+02  0.00000000000E+00 0.  1.
        -13    1    5    5    0    0 -0.93481110864E+02  0.66290337575E+02  0.21864848682E+02  0.11666704141E+03  0.00000000000E+00 0. -1.
          2    1    6    6  503    0  0.24872210435E+03  0.32725843278E+03  0.22902406127E+04  0.23268353683E+04  0.00000000000E+00 0. -1.
         -2    1    6    6    0  503  0.64061201614E+02  0.72992522968E+02  0.33811835507E+03  0.35178938016E+03  0.00000000000E+00 0.  1.
<mgrwt>
<rscale>  0 0.15982005E+04</rscale>
<asrwt>0</asrwt>
<pdfrwt beam="1">  1        2 0.52803931E+00 0.15982005E+04</pdfrwt>
<pdfrwt beam="2">  1       -1 0.28622632E-01 0.15982005E+04</pdfrwt>
<totfact> 0.11083753E+01</totfact>
</mgrwt>
</event>
<event>
12    7  0.1637954E-007  0.2975948E+04  0.7818608E-02  0.8250633E-01
         -1   -1    0    0    0  501 -0.00000000000E+00  0.00000000000E+00  0.96177658168E+03  0.96177658168E+03  0.00000000000E+00 0.  1.
          2   -1    0    0  501    0  0.00000000000E+00 -0.00000000000E+00 -0.23020595194E+04  0.23020595194E+04  0.00000000000E+00 0. -1.
         24    2    1    2    0    0 -0.11477527154E+03 -0.73862467959E+03  0.61912991061E+03  0.97383207904E+03  0.79292444147E+02 0.  0.
        254    2    1    2    0    0  0.11477527154E+03  0.73862467959E+03 -0.19594128483E+04  0.22900040220E+04  0.91982603274E+03 0.  0.
         23    2    4    4    0    0  0.50633959007E+02  0.86941891667E+03 -0.10659360839E+04  0.13795716045E+04  0.92439312429E+02 0.  0.
         23    2    4    4    0    0  0.64141312532E+02 -0.13079423709E+03 -0.89347676444E+03  0.91043241756E+03  0.96774056009E+02 0.  0.
          2    1    3    3  502    0 -0.62786973290E+02 -0.38403350443E+03  0.37332383657E+03  0.53925376539E+03  0.00000000000E+00 0. -1.
         -1    1    3    3    0  502 -0.51988298248E+02 -0.35459117516E+03  0.24580607403E+03  0.43457831364E+03  0.00000000000E+00 0.  1.
         13    1    5    5    0    0  0.65350313177E+02  0.84251124725E+03 -0.10252406182E+04  0.13286136347E+04  0.00000000000E+00 0. -1.
        -13    1    5    5    0    0 -0.14716354171E+02  0.26907669421E+02 -0.40695465696E+02  0.50957969759E+02  0.00000000000E+00 0.  1.
          4    1    6    6  503    0  0.18703471503E+02  0.96588636743E+01 -0.21795906440E+03  0.21897321126E+03  0.00000000000E+00 0.  1.
         -4    1    6    6    0  503  0.45437841029E+02 -0.14045310076E+03 -0.67551770003E+03  0.69145920629E+03  0.00000000000E+00 0. -1.
<mgrwt>
<rscale>  0 0.29759482E+04</rscale>
<asrwt>0</asrwt>
<pdfrwt beam="1">  1        2 0.35416300E+00 0.29759482E+04</pdfrwt>
<pdfrwt beam="2">  1       -1 0.14796563E+00 0.29759482E+04</pdfrwt>
<totfact> 0.15957469E+00</totfact>
</mgrwt>
</event>
<event>
12    7  0.1637954E-007  0.1381377E+04  0.7818608E-02  0.8967410E-01
         -1   -1    0    0    0  501 -0.00000000000E+00  0.00000000000E+00  0.39524589198E+03  0.39524589198E+03  0.00000000000E+00 0.  1.
          2   -1    0    0  501    0  0.00000000000E+00 -0.00000000000E+00 -0.12069724943E+04  0.12069724943E+04  0.00000000000E+00 0. -1.
         24    2    1    2    0    0  0.86755063831E+02 -0.10129567875E+03  0.18627223544E+03  0.24152651004E+03  0.76488258701E+02 0.  0.
        254    2    1    2    0    0 -0.86755063831E+02  0.10129567875E+03 -0.99799883781E+03  0.13606918763E+04  0.91525594577E+03 0.  0.
         23    2    4    4    0    0 -0.10576423319E+03  0.47583485999E+03 -0.35130400446E+03  0.60775140229E+03  0.91336610605E+02 0.  0.
         23    2    4    4    0    0  0.19009169355E+02 -0.37453918123E+03 -0.64669483334E+03  0.75294047399E+03  0.89800908107E+02 0.  0.
          4    1    3    3  502    0  0.22073374655E+02 -0.75096884823E+02  0.65599227356E+02  0.10212754089E+03  0.00000000000E+00 0. -1.
         -3    1    3    3    0  502  0.64681689176E+02 -0.26198793930E+02  0.12067300809E+03  0.13939896915E+03  0.00000000000E+00 0.  1.
         13    1    5    5    0    0 -0.13828850072E+02  0.31840411339E+01 -0.13315904708E+02  0.19459921131E+02  0.00000000000E+00 0. -1.
        -13    1    5    5    0    0 -0.91935383114E+02  0.47265081885E+03 -0.33798809975E+03  0.58829148116E+03  0.00000000000E+00 0.  1.
          1    1    6    6  503    0 -0.25692150590E+02 -0.11128551911E+03 -0.24867195564E+03  0.27364629522E+03  0.00000000000E+00 0. -1.
         -1    1    6    6    0  503  0.44701319945E+02 -0.26325366212E+03 -0.39802287771E+03  0.47929417877E+03  0.00000000000E+00 0.  1.
<mgrwt>
<rscale>  0 0.13813775E+04</rscale>
<asrwt>0</asrwt>
<pdfrwt beam="1">  1        2 0.18568808E+00 0.13813775E+04</pdfrwt>
<pdfrwt beam="2">  1       -1 0.60807060E-01 0.13813775E+04</pdfrwt>
<totfact> 0.57175932E+01</totfact>
</mgrwt>
</event>
<event>
12    7  0.1637954E-007  0.1225150E+04  0.7818608E-02  0.9091124E-01
          2   -1    0    0  501    0  0.00000000000E+00  0.00000000000E+00  0.65483643871E+03  0.65483643871E+03  0.00000000000E+00 0. -1.
         -1   -1    0    0    0  501 -0.00000000000E+00 -0.00000000000E+00 -0.57304066276E+03  0.57304066276E+03  0.00000000000E+00 0.  1.
         24    2    1    2    0    0  0.16683731306E+02  0.15362244220E+03  0.21770076731E+03  0.27819379824E+03  0.78230196553E+02 0.  0.
        254    2    1    2    0    0 -0.16683731306E+02 -0.15362244220E+03 -0.13590499136E+03  0.94968330323E+03  0.92711919844E+03 0.  0.
         23    2    4    4    0    0  0.20800609031E+03  0.28898405523E+03 -0.23186292862E+03  0.43456411528E+03  0.91144033490E+02 0.  0.
         23    2    4    4    0    0 -0.22468982162E+03 -0.44260649743E+03  0.95957937259E+02  0.51511918795E+03  0.98761452808E+02 0.  0.
          4    1    3    3  502    0  0.37056674285E+02  0.11046975529E+03  0.19037811994E+03  0.22320526986E+03  0.00000000000E+00 0. -1.
         -3    1    3    3    0  502 -0.20372942978E+02  0.43152686914E+02  0.27322647364E+02  0.54988528372E+02  0.00000000000E+00 0.  1.
         13    1    5    5    0    0  0.12068284711E+03  0.15893254751E+03 -0.75876659737E+02  0.21349747478E+03  0.00000000000E+00 0.  1.
        -13    1    5    5    0    0  0.87323243200E+02  0.13005150772E+03 -0.15598626888E+03  0.22106664050E+03  0.00000000000E+00 0. -1.
          3    1    6    6  503    0 -0.59986959020E+02 -0.15950761931E+03  0.77123969599E+02  0.18705406319E+03  0.00000000000E+00 0. -1.
         -3    1    6    6    0  503 -0.16470286260E+03 -0.28309887812E+03  0.18833967660E+02  0.32806512475E+03  0.00000000000E+00 0.  1.
<mgrwt>
<rscale>  0 0.12251496E+04</rscale>
<asrwt>0</asrwt>
<pdfrwt beam="1">  1        2 0.10074407E+00 0.12251496E+04</pdfrwt>
<pdfrwt beam="2">  1       -1 0.88160102E-01 0.12251496E+04</pdfrwt>
<totfact> 0.63421838E+01</totfact>
</mgrwt>
</event>
<event>
12    7  0.1637954E-007  0.1916130E+04  0.7818608E-02  0.8646869E-01
         -1   -1    0    0    0  501 -0.00000000000E+00  0.00000000000E+00  0.16598931165E+04  0.16598931165E+04  0.00000000000E+00 0.  1.
          2   -1    0    0  501    0  0.00000000000E+00 -0.00000000000E+00 -0.55298054549E+03  0.55298054549E+03  0.00000000000E+00 0. -1.
         24    2    1    2    0    0  0.13353705663E+02  0.73847979656E+03  0.47398034442E+03  0.88122778322E+03  0.79839261273E+02 0.  0.
        254    2    1    2    0    0 -0.13353705663E+02 -0.73847979656E+03  0.63293222659E+03  0.13316458788E+04  0.90947611931E+03 0.  0.
         23    2    4    4    0    0 -0.30241071251E+03 -0.30629864676E+03 -0.76562381409E+02  0.44670422680E+03  0.91715690854E+02 0.  0.
         23    2    4    4    0    0  0.28905700685E+03 -0.43218114980E+03  0.70949460800E+03  0.88494165196E+03  0.96977467171E+02 0.  0.
          2    1    3    3  502    0  0.12738229039E+02  0.47708665216E+03  0.35050343183E+03  0.59213730829E+03  0.00000000000E+00 0. -1.
         -1    1    3    3    0  502  0.61547662377E+00  0.26139314440E+03  0.12347691259E+03  0.28909047493E+03  0.00000000000E+00 0.  1.
         13    1    5    5    0    0 -0.28797515563E+03 -0.24812290556E+03 -0.67908365639E+02  0.38614273611E+03  0.00000000000E+00 0. -1.
        -13    1    5    5    0    0 -0.14435556881E+02 -0.58175741198E+02 -0.86540157704E+01  0.60561490696E+02  0.00000000000E+00 0.  1.
          1    1    6    6  503    0  0.12606137136E+03 -0.27134536064E+03  0.37895255047E+03  0.48283000072E+03  0.00000000000E+00 0. -1.
         -1    1    6    6    0  503  0.16299563549E+03 -0.16083578916E+03  0.33054205754E+03  0.40211165124E+03  0.00000000000E+00 0.  1.
<mgrwt>
<rscale>  0 0.19161301E+04</rscale>
<asrwt>0</asrwt>
<pdfrwt beam="1">  1        2 0.85073931E-01 0.19161301E+04</pdfrwt>
<pdfrwt beam="2">  1       -1 0.25536817E+00 0.19161301E+04</pdfrwt>
<totfact> 0.37591603E+00</totfact>
</mgrwt>
</event>
<event>
12    7  0.1637954E-007  0.2351298E+04  0.7818608E-02  0.8457965E-01
         -1   -1    0    0    0  501 -0.00000000000E+00  0.00000000000E+00  0.15453693961E+04  0.15453693961E+04  0.00000000000E+00 0.  1.
          2   -1    0    0  501    0  0.00000000000E+00 -0.00000000000E+00 -0.89438227760E+03  0.89438227760E+03  0.00000000000E+00 0. -1.
         24    2    1    2    0    0  0.11250224108E+03  0.35480921501E+03 -0.68548056063E+03  0.78423509350E+03  0.81208063404E+02 0.  0.
        254    2    1    2    0    0 -0.11250224108E+03 -0.35480921501E+03  0.13364676791E+04  0.16555165802E+04  0.90335095981E+03 0.  0.
         23    2    4    4    0    0  0.15992308242E+03 -0.13597468214E+02  0.11607022504E+04  0.11751020056E+04  0.88739653718E+02 0.  0.
         23    2    4    4    0    0 -0.27242532351E+03 -0.34121174680E+03  0.17576542870E+03  0.48041457452E+03  0.96247932143E+02 0.  0.
          2    1    3    3  502    0  0.17560776436E+02  0.17641449249E+03 -0.35636904752E+03  0.39803184805E+03  0.00000000000E+00 0. -1.
         -1    1    3    3    0  502  0.94941464649E+02  0.17839472252E+03 -0.32911151312E+03  0.38620324545E+03  0.00000000000E+00 0.  1.
         13    1    5    5    0    0  0.15257528219E+03 -0.35721288325E+02  0.91753976906E+03  0.93082461021E+03  0.00000000000E+00 0.  1.
        -13    1    5    5    0    0  0.73478002374E+01  0.22123820111E+02  0.24316248134E+03  0.24427739542E+03  0.00000000000E+00 0. -1.
          1    1    6    6  503    0 -0.20933778471E+03 -0.31149604723E+03  0.13081772389E+03  0.39744857835E+03  0.00000000000E+00 0. -1.
         -1    1    6    6    0  503 -0.63087538804E+02 -0.29715699566E+02  0.44947704810E+02  0.82965996171E+02  0.00000000000E+00 0.  1.
<mgrwt>
<rscale>  0 0.23512984E+04</rscale>
<asrwt>0</asrwt>
<pdfrwt beam="1">  1        2 0.13759727E+00 0.23512984E+04</pdfrwt>
<pdfrwt beam="2">  1       -1 0.23774914E+00 0.23512984E+04</pdfrwt>
<totfact> 0.25549213E+00</totfact>
</mgrwt>
</event>
<event>
12    7  0.1637954E-007  0.1929703E+04  0.7818608E-02  0.8640211E-01
         -1   -1    0    0    0  501 -0.00000000000E+00  0.00000000000E+00  0.29334223752E+03  0.29334223752E+03  0.00000000000E+00 0.  1.
          2   -1    0    0  501    0  0.00000000000E+00 -0.00000000000E+00 -0.31735578560E+04  0.31735578560E+04  0.00000000000E+00 0. -1.
         24    2    1    2    0    0 -0.72220008368E+03 -0.27209690966E+02 -0.84015849985E+03  0.11112206354E+04  0.81435051430E+02 0.  0.
        254    2    1    2    0    0  0.72220008368E+03  0.27209690966E+02 -0.20400571186E+04  0.23556794581E+04  0.93009641103E+03 0.  0.
         23    2    4    4    0    0  0.10430694235E+03  0.34934395471E+03 -0.30745683689E+03  0.48584632617E+03  0.92713586841E+02 0.  0.
         23    2    4    4    0    0  0.61789314133E+03 -0.32213426374E+03 -0.17326002817E+04  0.18698331319E+04  0.93860465334E+02 0.  0.
          4    1    3    3  502    0 -0.27412049053E+03 -0.47952189912E+02 -0.30292536498E+03  0.41134563641E+03  0.00000000000E+00 0. -1.
         -3    1    3    3    0  502 -0.44807959314E+03  0.20742498946E+02 -0.53723313487E+03  0.69987499903E+03  0.00000000000E+00 0.  1.
         13    1    5    5    0    0  0.10085013532E+03  0.30312914856E+03 -0.30122782035E+03  0.43908567530E+03  0.00000000000E+00 0.  1.
        -13    1    5    5    0    0  0.34568070348E+01  0.46214806152E+02 -0.62290165373E+01  0.46760650868E+02  0.00000000000E+00 0. -1.
          3    1    6    6  503    0  0.45835481757E+02 -0.41585352317E+01 -0.15965096980E+03  0.16615239078E+03  0.00000000000E+00 0. -1.
         -3    1    6    6    0  503  0.57205765957E+03 -0.31797572851E+03 -0.15729493119E+04  0.17036807411E+04  0.00000000000E+00 0.  1.
<mgrwt>
<rscale>  0 0.19297032E+04</rscale>
<asrwt>0</asrwt>
<pdfrwt beam="1">  1        2 0.48823970E+00 0.19297032E+04</pdfrwt>
<pdfrwt beam="2">  1       -1 0.45129573E-01 0.19297032E+04</pdfrwt>
<totfact> 0.70175189E+00</totfact>
</mgrwt>
</event>
<event>
12    7  0.1637954E-007  0.2103880E+04  0.7818608E-02  0.8559536E-01
         -1   -1    0    0    0  501 -0.00000000000E+00  0.00000000000E+00  0.67425908748E+03  0.67425908748E+03  0.00000000000E+00 0.  1.
          2   -1    0    0  501    0  0.00000000000E+00 -0.00000000000E+00 -0.16411751241E+04  0.16411751241E+04  0.00000000000E+00 0. -1.
         24    2    1    2    0    0  0.55376491887E+03 -0.37034919007E+03 -0.99101805269E+03  0.11963260560E+04  0.72561309608E+02 0.  0.
        254    2    1    2    0    0 -0.55376491887E+03  0.37034919007E+03  0.24102016053E+02  0.11191081556E+04  0.89889267919E+03 0.  0.
         23    2    4    4    0    0 -0.31950653930E+03 -0.67713860001E+02  0.37318559702E+03  0.50455825230E+03  0.92962060248E+02 0.  0.
         23    2    4    4    0    0 -0.23425837957E+03  0.43806305007E+03 -0.34908358096E+03  0.61454990326E+03  0.95057944781E+02 0.  0.
          4    1    3    3  502    0  0.53521886097E+03 -0.37148390607E+03 -0.96113341011E+03  0.11611360616E+04  0.00000000000E+00 0. -1.
         -3    1    3    3    0  502  0.18546057901E+02  0.11347159997E+01 -0.29884642583E+02  0.35189994408E+02  0.00000000000E+00 0.  1.
         13    1    5    5    0    0 -0.25795215140E+03 -0.18141103077E+02  0.30761576310E+03  0.40186548712E+03  0.00000000000E+00 0. -1.
        -13    1    5    5    0    0 -0.61554387902E+02 -0.49572756923E+02  0.65569833918E+02  0.10269276517E+03  0.00000000000E+00 0.  1.
          4    1    6    6  503    0 -0.24253656211E+03  0.41950685071E+03 -0.32725013502E+03  0.58472440742E+03  0.00000000000E+00 0. -1.
         -4    1    6    6    0  503  0.82781825418E+01  0.18556199359E+02 -0.21833445944E+02  0.29825495850E+02  0.00000000000E+00 0.  1.
<mgrwt>
<rscale>  0 0.21038795E+04</rscale>
<asrwt>0</asrwt>
<pdfrwt beam="1">  1        2 0.25248848E+00 0.21038795E+04</pdfrwt>
<pdfrwt beam="2">  1       -1 0.10373217E+00 0.21038795E+04</pdfrwt>
<totfact> 0.97188424E+00</totfact>
</mgrwt>
</event>
<event>
12    7  0.1637954E-007  0.1681457E+04  0.7818608E-02  0.8772011E-01
          2   -1    0    0  501    0  0.00000000000E+00  0.00000000000E+00  0.17548749829E+04  0.17548749829E+04  0.00000000000E+00 0. -1.
         -1   -1    0    0    0  501 -0.00000000000E+00 -0.00000000000E+00 -0.40277780492E+03  0.40277780492E+03  0.00000000000E+00 0.  1.
         24    2    1    2    0    0  0.18870810437E+03  0.54584143587E+03  0.66720340945E+03  0.88594999506E+03  0.78698045722E+02 0.  0.
        254    2    1    2    0    0 -0.18870810437E+03 -0.54584143587E+03  0.68489376855E+03  0.12717027928E+04  0.90254911068E+03 0.  0.
         23    2    4    4    0    0 -0.14823036140E+03 -0.25108200367E+03 -0.17841754485E+03  0.35395941472E+03  0.91869659575E+02 0.  0.
         23    2    4    4    0    0 -0.40477742966E+02 -0.29475943220E+03  0.86331131341E+03  0.91774337805E+03  0.91787327883E+02 0.  0.
          2    1    3    3  502    0  0.13971209645E+03  0.47290580948E+03  0.59047970466E+03  0.76930205781E+03  0.00000000000E+00 0. -1.
         -1    1    3    3    0  502  0.48996007912E+02  0.72935626382E+02  0.76723704793E+02  0.11664793725E+03  0.00000000000E+00 0.  1.
         13    1    5    5    0    0 -0.14964163273E+03 -0.25615660764E+03 -0.18157401522E+03  0.34781884493E+03  0.00000000000E+00 0.  1.
        -13    1    5    5    0    0  0.14112713309E+01  0.50746039729E+01  0.31564703610E+01  0.61405697937E+01  0.00000000000E+00 0. -1.
          1    1    6    6  503    0 -0.32300867505E+02 -0.38208975709E+02  0.90355997841E+02  0.10328348470E+03  0.00000000000E+00 0. -1.
         -1    1    6    6    0  503 -0.81768754603E+01 -0.25655045649E+03  0.77295531557E+03  0.81445989335E+03  0.00000000000E+00 0.  1.
<mgrwt>
<rscale>  0 0.16814573E+04</rscale>
<asrwt>0</asrwt>
<pdfrwt beam="1">  1        2 0.26998076E+00 0.16814573E+04</pdfrwt>
<pdfrwt beam="2">  1       -1 0.61965817E-01 0.16814573E+04</pdfrwt>
<totfact> 0.26210895E+01</totfact>
</mgrwt>
</event>
<event>
12    7  0.1637954E-007  0.2317972E+04  0.7818608E-02  0.8470869E-01
          2   -1    0    0  501    0  0.00000000000E+00  0.00000000000E+00  0.24179575851E+04  0.24179575851E+04  0.00000000000E+00 0. -1.
         -1   -1    0    0    0  501 -0.00000000000E+00 -0.00000000000E+00 -0.55553003933E+03  0.55553003933E+03  0.00000000000E+00 0.  1.
         24    2    1    2    0    0  0.30338454691E+03  0.40274911055E+03  0.18733386946E+04  0.19416530406E+04  0.79809999540E+02 0.  0.
        254    2    1    2    0    0 -0.30338454691E+03 -0.40274911055E+03 -0.10911148871E+02  0.10318345838E+04  0.90017471960E+03 0.  0.
         23    2    4    4    0    0 -0.59836684764E+03 -0.28520035333E+03  0.11254440119E+03  0.67888632326E+03  0.94012083148E+02 0.  0.
         23    2    4    4    0    0  0.29498230073E+03 -0.11754875722E+03 -0.12345555006E+03  0.35294826054E+03  0.92189661620E+02 0.  0.
          4    1    3    3  502    0  0.19775713489E+03  0.28351793262E+03  0.14077751873E+04  0.14495934880E+04  0.00000000000E+00 0. -1.
         -3    1    3    3    0  502  0.10562741202E+03  0.11923117793E+03  0.46556350734E+03  0.49205955262E+03  0.00000000000E+00 0.  1.
         13    1    5    5    0    0 -0.78814558052E+02 -0.64395059994E+02 -0.63561835586E+01  0.10197479778E+03  0.00000000000E+00 0. -1.
        -13    1    5    5    0    0 -0.51955228959E+03 -0.22080529333E+03  0.11890058474E+03  0.57691152548E+03  0.00000000000E+00 0.  1.
          1    1    6    6  503    0  0.16314867805E+02 -0.29731026821E+02 -0.32421774964E+02  0.46917804287E+02  0.00000000000E+00 0. -1.
         -1    1    6    6    0  503  0.27866743293E+03 -0.87817730398E+02 -0.91033775092E+02  0.30603045625E+03  0.00000000000E+00 0.  1.
<mgrwt>
<rscale>  0 0.23179716E+04</rscale>
<asrwt>0</asrwt>
<pdfrwt beam="1">  1        2 0.37199347E+00 0.23179716E+04</pdfrwt>
<pdfrwt beam="2">  1       -1 0.85466161E-01 0.23179716E+04</pdfrwt>
<totfact> 0.54094230E+00</totfact>
</mgrwt>
</event>
<event>
12    7  0.1637954E-007  0.1451966E+04  0.7818608E-02  0.8917039E-01
          2   -1    0    0  501    0  0.00000000000E+00  0.00000000000E+00  0.84364072746E+03  0.84364072746E+03  0.00000000000E+00 0. -1.
         -1   -1    0    0    0  501 -0.00000000000E+00 -0.00000000000E+00 -0.62473393227E+03  0.62473393227E+03  0.00000000000E+00 0.  1.
         24    2    1    2    0    0  0.66059995877E+02  0.37156935144E+03  0.30628132799E+03  0.49250017336E+03  0.79501338973E+02 0.  0.
        254    2    1    2    0    0 -0.66059995877E+02 -0.37156935144E+03 -0.87374532803E+02  0.97587448638E+03  0.89569470144E+03 0.  0.
         23    2    4    4    0    0  0.45979281701E+01 -0.40885477832E+03  0.33524128750E+03  0.53650811244E+03  0.90944286089E+02 0.  0.
         23    2    4    4    0    0 -0.70657924048E+02  0.37285426877E+02 -0.42261582030E+03  0.43936637393E+03  0.89754853278E+02 0.  0.
          2    1    3    3  502    0  0.39736527856E+02  0.34458734332E+03  0.28672281006E+03  0.45003266397E+03  0.00000000000E+00 0. -1.
         -1    1    3    3    0  502  0.26323468021E+02  0.26982008121E+02  0.19558517926E+02  0.42467509397E+02  0.00000000000E+00 0.  1.
         13    1    5    5    0    0  0.29180108148E+02 -0.12438254149E+03  0.64897147436E+02  0.14329736594E+03  0.00000000000E+00 0. -1.
        -13    1    5    5    0    0 -0.24582179978E+02 -0.28447223683E+03  0.27034414006E+03  0.39321074650E+03  0.00000000000E+00 0.  1.
          3    1    6    6  503    0  0.13524836397E+02  0.21753379308E+01 -0.17414853610E+03  0.17468647893E+03  0.00000000000E+00 0. -1.
         -3    1    6    6    0  503 -0.84182760444E+02  0.35110088946E+02 -0.24846728420E+03  0.26467989501E+03  0.00000000000E+00 0.  1.
<mgrwt>
<rscale>  0 0.14519655E+04</rscale>
<asrwt>0</asrwt>
<pdfrwt beam="1">  1        2 0.12979088E+00 0.14519655E+04</pdfrwt>
<pdfrwt beam="2">  1       -1 0.96112912E-01 0.14519655E+04</pdfrwt>
<totfact> 0.37033251E+01</totfact>
</mgrwt>
</event>
<event>
12    7  0.1637954E-007  0.1559649E+04  0.7818608E-02  0.8845728E-01
         -1   -1    0    0    0  501 -0.00000000000E+00  0.00000000000E+00  0.25263057920E+03  0.25263057920E+03  0.00000000000E+00 0.  1.
          2   -1    0    0  501    0  0.00000000000E+00 -0.00000000000E+00 -0.24071760341E+04  0.24071760341E+04  0.00000000000E+00 0. -1.
         24    2    1    2    0    0 -0.39155128714E+03  0.33404212992E+03 -0.70788991444E+03  0.87890445771E+03  0.80426113856E+02 0.  0.
        254    2    1    2    0    0  0.39155128714E+03 -0.33404212992E+03 -0.14466555405E+04  0.17809021556E+04  0.90216610446E+03 0.  0.
         23    2    4    4    0    0  0.37508847315E+03 -0.62233378248E+03 -0.10859454030E+04  0.13098859299E+04  0.92374409323E+02 0.  0.
         23    2    4    4    0    0  0.16462813986E+02  0.28829165256E+03 -0.36071013749E+03  0.47101622574E+03  0.91440584198E+02 0.  0.
          4    1    3    3  502    0 -0.21913953129E+03  0.15108678346E+03 -0.31412346528E+03  0.41173158944E+03  0.00000000000E+00 0. -1.
         -3    1    3    3    0  502 -0.17241175585E+03  0.18295534646E+03 -0.39376644916E+03  0.46717286826E+03  0.00000000000E+00 0.  1.
         13    1    5    5    0    0  0.33665563685E+03 -0.60002736214E+03 -0.10224509397E+04  0.12323862127E+04  0.00000000000E+00 0.  1.
        -13    1    5    5    0    0  0.38432836305E+02 -0.22306420341E+02 -0.63494463244E+02  0.77499717145E+02  0.00000000000E+00 0. -1.
          3    1    6    6  503    0  0.44744206189E+02  0.11033583561E+03 -0.18005424667E+03  0.21586007586E+03  0.00000000000E+00 0. -1.
         -3    1    6    6    0  503 -0.28281392202E+02  0.17795581695E+03 -0.18065589082E+03  0.25515614988E+03  0.00000000000E+00 0.  1.
<mgrwt>
<rscale>  0 0.15596490E+04</rscale>
<asrwt>0</asrwt>
<pdfrwt beam="1">  1        2 0.37033478E+00 0.15596490E+04</pdfrwt>
<pdfrwt beam="2">  1       -1 0.38866243E-01 0.15596490E+04</pdfrwt>
<totfact> 0.27744660E+01</totfact>
</mgrwt>
</event>
<event>
12    7  0.1637954E-007  0.1789556E+04  0.7818608E-02  0.8711873E-01
         -1   -1    0    0    0  501 -0.00000000000E+00  0.00000000000E+00  0.10151405504E+04  0.10151405504E+04  0.00000000000E+00 0.  1.
          2   -1    0    0  501    0  0.00000000000E+00 -0.00000000000E+00 -0.78868653354E+03  0.78868653354E+03  0.00000000000E+00 0. -1.
         24    2    1    2    0    0  0.63660794427E+03 -0.98512383889E+02  0.25605310111E+03  0.69749265401E+03  0.77190979486E+02 0.  0.
        254    2    1    2    0    0 -0.63660794427E+03  0.98512383889E+02 -0.29599084224E+02  0.11063344300E+04  0.89895795265E+03 0.  0.
         23    2    4    4    0    0  0.19694500627E+03  0.12414422517E+03  0.74022987292E+02  0.26121405098E+03  0.92489208253E+02 0.  0.
         23    2    4    4    0    0 -0.83355295054E+03 -0.25631841285E+02 -0.10362207152E+03  0.84512037897E+03  0.89573481570E+02 0.  0.
          4    1    3    3  502    0  0.24568267306E+03 -0.59936150819E+02  0.67394001673E+02  0.26171409874E+03  0.00000000000E+00 0. -1.
         -3    1    3    3    0  502  0.39092527121E+03 -0.38576233070E+02  0.18865909944E+03  0.43577855527E+03  0.00000000000E+00 0.  1.
         13    1    5    5    0    0 -0.59295503175E+01  0.22504778380E+02  0.10820429067E+02  0.25665274245E+02  0.00000000000E+00 0.  1.
        -13    1    5    5    0    0  0.20287455659E+03  0.10163944679E+03  0.63202558225E+02  0.23554877674E+03  0.00000000000E+00 0. -1.
          1    1    6    6  503    0 -0.66905738484E+03 -0.40432257888E+02 -0.52970002798E+02  0.67236773634E+03  0.00000000000E+00 0. -1.
         -1    1    6    6    0  503 -0.16449556571E+03  0.14800416602E+02 -0.50652068718E+02  0.17275264263E+03  0.00000000000E+00 0.  1.
<mgrwt>
<rscale>  0 0.17895560E+04</rscale>
<asrwt>0</asrwt>
<pdfrwt beam="1">  1        2 0.12133639E+00 0.17895560E+04</pdfrwt>
<pdfrwt beam="2">  1       -1 0.15617547E+00 0.17895560E+04</pdfrwt>
<totfact> 0.11834717E+01</totfact>
</mgrwt>
</event>
<event>
12    7  0.1637954E-007  0.1383973E+04  0.7818608E-02  0.8965502E-01
         -3   -1    0    0    0  501 -0.00000000000E+00  0.00000000000E+00  0.18183508713E+03  0.18183508713E+03  0.00000000000E+00 0.  1.
          4   -1    0    0  501    0  0.00000000000E+00 -0.00000000000E+00 -0.26334058128E+04  0.26334058128E+04  0.00000000000E+00 0. -1.
         24    2    1    2    0    0 -0.35886029310E+02  0.37321592808E+03 -0.44745054681E+03  0.58930743858E+03  0.80581196649E+02 0.  0.
        254    2    1    2    0    0  0.35886029310E+02 -0.37321592808E+03 -0.20041201789E+04  0.22259334613E+04  0.89314284802E+03 0.  0.
         23    2    4    4    0    0 -0.18646892188E+03 -0.53729058955E+03 -0.17402047211E+04  0.18330498321E+04  0.91144825363E+02 0.  0.
         23    2    4    4    0    0  0.22235495119E+03  0.16407466148E+03 -0.26391545777E+03  0.39288362925E+03  0.91345270425E+02 0.  0.
          2    1    3    3  502    0  0.21453514422E+02  0.17414887656E+03 -0.22507682218E+03  0.28539036488E+03  0.00000000000E+00 0. -1.
         -1    1    3    3    0  502 -0.57339543732E+02  0.19906705152E+03 -0.22237372464E+03  0.30391707370E+03  0.00000000000E+00 0.  1.
         13    1    5    5    0    0 -0.61403177045E+02 -0.23455815727E+03 -0.87312004624E+03  0.90616030284E+03  0.00000000000E+00 0. -1.
        -13    1    5    5    0    0 -0.12506574483E+03 -0.30273243228E+03 -0.86708467485E+03  0.92688952926E+03  0.00000000000E+00 0.  1.
          4    1    6    6  503    0  0.16416782689E+03  0.88286394580E+02 -0.12557865451E+03  0.22475667136E+03  0.00000000000E+00 0. -1.
         -4    1    6    6    0  503  0.58187124300E+02  0.75788266897E+02 -0.13833680326E+03  0.16812695789E+03  0.00000000000E+00 0.  1.
<mgrwt>
<rscale>  0 0.13839734E+04</rscale>
<asrwt>0</asrwt>
<pdfrwt beam="1">  1        4 0.40513934E+00 0.13839734E+04</pdfrwt>
<pdfrwt beam="2">  1       -3 0.27974630E-01 0.13839734E+04</pdfrwt>
<totfact> 0.17648456E-01</totfact>
</mgrwt>
</event>
<event>
12    7  0.1637954E-007  0.1906537E+04  0.7818608E-02  0.8651609E-01
         -1   -1    0    0    0  501 -0.00000000000E+00  0.00000000000E+00  0.42417794302E+03  0.42417794302E+03  0.00000000000E+00 0.  1.
          2   -1    0    0  501    0  0.00000000000E+00 -0.00000000000E+00 -0.21423110077E+04  0.21423110077E+04  0.00000000000E+00 0. -1.
         24    2    1    2    0    0  0.44768041349E+03  0.55566387656E+03 -0.38377303154E+03  0.81425696129E+03  0.80947902605E+02 0.  0.
        254    2    1    2    0    0 -0.44768041349E+03 -0.55566387656E+03 -0.13343600332E+04  0.17522319895E+04  0.88352710791E+03 0.  0.
         23    2    4    4    0    0 -0.35168044963E+03 -0.76989369056E+03 -0.11864974094E+04  0.14604195004E+04  0.92917066497E+02 0.  0.
         23    2    4    4    0    0 -0.95999963861E+02  0.21422981400E+03 -0.14786262381E+03  0.29181248908E+03  0.90447592524E+02 0.  0.
          4    1    3    3  502    0  0.19082218355E+03  0.20568723613E+03 -0.11209485879E+03  0.30213507278E+03  0.00000000000E+00 0. -1.
         -3    1    3    3    0  502  0.25685822994E+03  0.34997664043E+03 -0.27167817275E+03  0.51212188850E+03  0.00000000000E+00 0.  1.
         13    1    5    5    0    0 -0.33032407627E+03 -0.66178999477E+03 -0.10002853271E+04  0.12440461117E+04  0.00000000000E+00 0. -1.
        -13    1    5    5    0    0 -0.21356373355E+02 -0.10810369579E+03 -0.18621208229E+03  0.21637338865E+03  0.00000000000E+00 0.  1.
          1    1    6    6  503    0 -0.81961021369E+02  0.21415859611E+03 -0.11596464858E+03  0.25696169565E+03  0.00000000000E+00 0. -1.
         -1    1    6    6    0  503 -0.14038942492E+02  0.71217886633E-01 -0.31897975235E+02  0.34850793425E+02  0.00000000000E+00 0.  1.
<mgrwt>
<rscale>  0 0.19065373E+04</rscale>
<asrwt>0</asrwt>
<pdfrwt beam="1">  1        2 0.32958631E+00 0.19065373E+04</pdfrwt>
<pdfrwt beam="2">  1       -1 0.65258146E-01 0.19065373E+04</pdfrwt>
<totfact> 0.14117969E+01</totfact>
</mgrwt>
</event>
<event>
12    7  0.1637954E-007  0.1200639E+04  0.7818608E-02  0.9112297E-01
         -1   -1    0    0    0  501 -0.00000000000E+00  0.00000000000E+00  0.88864930272E+02  0.88864930272E+02  0.00000000000E+00 0.  1.
          2   -1    0    0  501    0  0.00000000000E+00 -0.00000000000E+00 -0.40554105970E+04  0.40554105970E+04  0.00000000000E+00 0. -1.
         24    2    1    2    0    0  0.53877439179E+02 -0.18041742955E+03 -0.14728127874E+04  0.14868942945E+04  0.78891755112E+02 0.  0.
        254    2    1    2    0    0 -0.53877439179E+02  0.18041742955E+03 -0.24937328793E+04  0.26573812327E+04  0.89862011738E+03 0.  0.
         23    2    4    4    0    0 -0.43265202632E+03  0.20239792078E+02 -0.17236379326E+04  0.17795497466E+04  0.90951376114E+02 0.  0.
         23    2    4    4    0    0  0.37877458714E+03  0.16017763748E+03 -0.77009494668E+03  0.87783148611E+03  0.91732369955E+02 0.  0.
          2    1    3    3  502    0  0.31647572604E+02 -0.11844215233E+03 -0.12001083787E+04  0.12063541076E+04  0.00000000000E+00 0. -1.
         -1    1    3    3    0  502  0.22229866575E+02 -0.61975277225E+02 -0.27270440868E+03  0.28054018691E+03  0.00000000000E+00 0.  1.
         13    1    5    5    0    0 -0.11043972445E+01  0.79420205891E+01 -0.12994867369E+02  0.15269641851E+02  0.00000000000E+00 0. -1.
        -13    1    5    5    0    0 -0.43154762908E+03  0.12297771489E+02 -0.17106430652E+04  0.17642801047E+04  0.00000000000E+00 0.  1.
          1    1    6    6  503    0  0.19801871388E+03  0.61734331974E+02 -0.47219579538E+03  0.51574354864E+03  0.00000000000E+00 0. -1.
         -1    1    6    6    0  503  0.18075587326E+03  0.98443305503E+02 -0.29789915130E+03  0.36208793747E+03  0.00000000000E+00 0.  1.
<mgrwt>
<rscale>  0 0.12006395E+04</rscale>
<asrwt>0</asrwt>
<pdfrwt beam="1">  1        2 0.62390923E+00 0.12006395E+04</pdfrwt>
<pdfrwt beam="2">  1       -1 0.13671530E-01 0.12006395E+04</pdfrwt>
<totfact> 0.13816894E+01</totfact>
</mgrwt>
</event>
<event>
12    7  0.1637954E-007  0.1627529E+04  0.7818608E-02  0.8803812E-01
          2   -1    0    0  501    0  0.00000000000E+00  0.00000000000E+00  0.34415393755E+04  0.34415393755E+04  0.00000000000E+00 0. -1.
         -1   -1    0    0    0  501 -0.00000000000E+00 -0.00000000000E+00 -0.19241765333E+03  0.19241765333E+03  0.00000000000E+00 0.  1.
         24    2    1    2    0    0 -0.48494256980E+03  0.15721030157E+03  0.15680696540E+04  0.16507381204E+04  0.78800555483E+02 0.  0.
        254    2    1    2    0    0  0.48494256980E+03 -0.15721030157E+03  0.16810520682E+04  0.19832189085E+04  0.92050899389E+03 0.  0.
         23    2    4    4    0    0 -0.40595537171E+02 -0.41376852655E+03  0.96260387939E+03  0.10522770914E+04  0.88478569229E+02 0.  0.
         23    2    4    4    0    0  0.52553810697E+03  0.25655822498E+03  0.71844818885E+03  0.93094181709E+03  0.92045869332E+02 0.  0.
          4    1    3    3  502    0 -0.30980661577E+03  0.88339420492E+02  0.11015268183E+04  0.11476695186E+04  0.00000000000E+00 0. -1.
         -3    1    3    3    0  502 -0.17513595403E+03  0.68870881080E+02  0.46654283565E+03  0.50306860184E+03  0.00000000000E+00 0.  1.
         13    1    5    5    0    0 -0.34459829270E+02 -0.13680448037E+03  0.41969439533E+03  0.44277119503E+03  0.00000000000E+00 0. -1.
        -13    1    5    5    0    0 -0.61357079008E+01 -0.27696404618E+03  0.54290948406E+03  0.60950589634E+03  0.00000000000E+00 0.  1.
          1    1    6    6  503    0  0.43564619672E+03  0.17193905728E+03  0.57860622810E+03  0.74440299255E+03  0.00000000000E+00 0. -1.
         -1    1    6    6    0  503  0.89891910254E+02  0.84619167703E+02  0.13984196076E+03  0.18653882454E+03  0.00000000000E+00 0.  1.
<mgrwt>
<rscale>  0 0.16275293E+04</rscale>
<asrwt>0</asrwt>
<pdfrwt beam="1">  1        2 0.52946755E+00 0.16275293E+04</pdfrwt>
<pdfrwt beam="2">  1       -1 0.29602719E-01 0.16275293E+04</pdfrwt>
<totfact> 0.10268386E+01</totfact>
</mgrwt>
</event>
<event>
12    7  0.1637954E-007  0.1791953E+04  0.7818608E-02  0.8710591E-01
         -1   -1    0    0    0  501 -0.00000000000E+00  0.00000000000E+00  0.69212506351E+03  0.69212506351E+03  0.00000000000E+00 0.  1.
          2   -1    0    0  501    0  0.00000000000E+00 -0.00000000000E+00 -0.11598680128E+04  0.11598680128E+04  0.00000000000E+00 0. -1.
         24    2    1    2    0    0  0.51384782713E+02 -0.49091940611E+03  0.28907651549E+03  0.57757909309E+03  0.79938212232E+02 0.  0.
        254    2    1    2    0    0 -0.51384782713E+02  0.49091940611E+03 -0.75681946480E+03  0.12744139832E+04  0.89872856815E+03 0.  0.
         23    2    4    4    0    0 -0.22794949620E+03  0.41701503107E+03 -0.89793716119E+03  0.10200627562E+04  0.91511595674E+02 0.  0.
         23    2    4    4    0    0  0.17656471349E+03  0.73904375046E+02  0.14111769639E+03  0.25435122707E+03  0.90240721289E+02 0.  0.
          4    1    3    3  502    0 -0.17215702149E+02 -0.19045100035E+03  0.12457253656E+03  0.22822418978E+03  0.00000000000E+00 0. -1.
         -3    1    3    3    0  502  0.68600484862E+02 -0.30046840576E+03  0.16450397893E+03  0.34935490331E+03  0.00000000000E+00 0.  1.
         13    1    5    5    0    0  0.77370282916E+01  0.15641260134E+02 -0.21445123825E+02  0.27647856358E+02  0.00000000000E+00 0. -1.
        -13    1    5    5    0    0 -0.23568652450E+03  0.40137377093E+03 -0.87649203736E+03  0.99241489982E+03  0.00000000000E+00 0.  1.
          1    1    6    6  503    0  0.16121956244E+03  0.54599365806E+02  0.79268214309E+02  0.18776657812E+03  0.00000000000E+00 0.  1.
         -1    1    6    6    0  503  0.15345151050E+02  0.19305009240E+02  0.61849482078E+02  0.66584648950E+02  0.00000000000E+00 0. -1.
<mgrwt>
<rscale>  0 0.17919528E+04</rscale>
<asrwt>0</asrwt>
<pdfrwt beam="1">  1        2 0.17844123E+00 0.17919528E+04</pdfrwt>
<pdfrwt beam="2">  1       -1 0.10648078E+00 0.17919528E+04</pdfrwt>
<totfact> 0.17776122E+01</totfact>
</mgrwt>
</event>
<event>
12    7  0.1637954E-007  0.2203620E+04  0.7818608E-02  0.8516923E-01
         -1   -1    0    0    0  501 -0.00000000000E+00  0.00000000000E+00  0.85339205642E+03  0.85339205642E+03  0.00000000000E+00 0.  1.
          2   -1    0    0  501    0  0.00000000000E+00 -0.00000000000E+00 -0.14225405169E+04  0.14225405169E+04  0.00000000000E+00 0. -1.
         24    2    1    2    0    0 -0.89826689282E+02  0.10588891182E+03 -0.11769791068E+04  0.11879348467E+04  0.81413060363E+02 0.  0.
        254    2    1    2    0    0  0.89826689282E+02 -0.10588891182E+03  0.60783064626E+03  0.10879977267E+04  0.89162753601E+03 0.  0.
         23    2    4    4    0    0 -0.11213869843E+03 -0.50294318599E+02  0.78432617459E+03  0.79938616512E+03  0.93520514770E+02 0.  0.
         23    2    4    4    0    0  0.20196538771E+03 -0.55594593225E+02 -0.17649552833E+03  0.28861156156E+03  0.90913064605E+02 0.  0.
          2    1    3    3  502    0 -0.59759626142E+02  0.64890351008E+02 -0.41555297879E+03  0.42481319277E+03  0.00000000000E+00 0. -1.
         -1    1    3    3    0  502 -0.30067063141E+02  0.40998560815E+02 -0.76142612800E+03  0.76312165391E+03  0.00000000000E+00 0.  1.
         13    1    5    5    0    0 -0.10311301288E+03 -0.46633550721E+01  0.44071359228E+03  0.45263949311E+03  0.00000000000E+00 0.  1.
        -13    1    5    5    0    0 -0.90256855514E+01 -0.45630963527E+02  0.34361258231E+03  0.34674667201E+03  0.00000000000E+00 0. -1.
          1    1    6    6  503    0  0.16829195375E+03 -0.72614967066E+02 -0.11473810650E+03  0.21624048701E+03  0.00000000000E+00 0. -1.
         -1    1    6    6    0  503  0.33673433957E+02  0.17020373841E+02 -0.61757421824E+02  0.72371074542E+02  0.00000000000E+00 0.  1.
<mgrwt>
<rscale>  0 0.22036195E+04</rscale>
<asrwt>0</asrwt>
<pdfrwt beam="1">  1        2 0.21885239E+00 0.22036195E+04</pdfrwt>
<pdfrwt beam="2">  1       -1 0.13129109E+00 0.22036195E+04</pdfrwt>
<totfact> 0.72341331E+00</totfact>
</mgrwt>
</event>
<event>
12    7  0.1637954E-007  0.1380987E+04  0.7818608E-02  0.8967697E-01
         -1   -1    0    0    0  501 -0.00000000000E+00  0.00000000000E+00  0.87522882033E+03  0.87522882033E+03  0.00000000000E+00 0.  1.
          2   -1    0    0  501    0  0.00000000000E+00 -0.00000000000E+00 -0.54475060848E+03  0.54475060848E+03  0.00000000000E+00 0. -1.
         24    2    1    2    0    0  0.40036238982E+03  0.20131869087E+00  0.82803190695E+02  0.41609320844E+03  0.77376391790E+02 0.  0.
        254    2    1    2    0    0 -0.40036238982E+03 -0.20131869087E+00  0.24767502116E+03  0.10038862204E+04  0.88665356461E+03 0.  0.
         23    2    4    4    0    0 -0.48003857491E+03 -0.20328990784E+03 -0.14216138260E+03  0.54800860793E+03  0.91322262527E+02 0.  0.
         23    2    4    4    0    0  0.79676185092E+02  0.20308858914E+03  0.38983640376E+03  0.45587761244E+03  0.90877424671E+02 0.  0.
          4    1    3    3  502    0  0.33096199281E+03 -0.16117266037E+02  0.92796988449E+02  0.34410301948E+03  0.00000000000E+00 0. -1.
         -3    1    3    3    0  502  0.69400397012E+02  0.16318584728E+02 -0.99937977539E+01  0.71990188960E+02  0.00000000000E+00 0.  1.
         13    1    5    5    0    0 -0.17664197736E+03 -0.11912037042E+03 -0.38331601463E+02  0.21647485416E+03  0.00000000000E+00 0.  1.
        -13    1    5    5    0    0 -0.30339659756E+03 -0.84169537411E+02 -0.10382978114E+03  0.33153375377E+03  0.00000000000E+00 0. -1.
          1    1    6    6  503    0  0.68616456165E+02  0.13717397587E+03  0.33841263620E+03  0.37154815307E+03  0.00000000000E+00 0. -1.
         -1    1    6    6    0  503  0.11059728928E+02  0.65914613273E+02  0.51423767565E+02  0.84329459369E+02  0.00000000000E+00 0.  1.
<mgrwt>
<rscale>  0 0.13809872E+04</rscale>
<asrwt>0</asrwt>
<pdfrwt beam="1">  1        2 0.83807786E-01 0.13809872E+04</pdfrwt>
<pdfrwt beam="2">  1       -1 0.13465059E+00 0.13809872E+04</pdfrwt>
<totfact> 0.28773984E+01</totfact>
</mgrwt>
</event>
<event>
12    7  0.1637954E-007  0.1978743E+04  0.7818608E-02  0.8616624E-01
         -1   -1    0    0    0  501 -0.00000000000E+00  0.00000000000E+00  0.91877198398E+03  0.91877198398E+03  0.00000000000E+00 0.  1.
          2   -1    0    0  501    0  0.00000000000E+00 -0.00000000000E+00 -0.10653961827E+04  0.10653961827E+04  0.00000000000E+00 0. -1.
         24    2    1    2    0    0 -0.43398326395E+01  0.43154718853E+03  0.59580274346E+03  0.74037670016E+03  0.83216218054E+02 0.  0.
        254    2    1    2    0    0  0.43398326395E+01 -0.43154718853E+03 -0.74242694220E+03  0.12437914665E+04  0.89975976662E+03 0.  0.
         23    2    4    4    0    0 -0.29408635057E+03 -0.39386535677E+03 -0.72380445108E+02  0.50429107296E+03  0.86335720209E+02 0.  0.
         23    2    4    4    0    0  0.29842618321E+03 -0.37681831763E+02 -0.67004649709E+03  0.73950039357E+03  0.86141839726E+02 0.  0.
          4    1    3    3  502    0  0.30376012258E+02  0.74008837009E+02  0.98235876955E+02  0.12668976911E+03  0.00000000000E+00 0. -1.
         -3    1    3    3    0  502 -0.34715844897E+02  0.35753835152E+03  0.49756686651E+03  0.61368693105E+03  0.00000000000E+00 0.  1.
         13    1    5    5    0    0 -0.17878781323E+03 -0.18893675890E+03 -0.69058056031E+02  0.26913044444E+03  0.00000000000E+00 0. -1.
        -13    1    5    5    0    0 -0.11529853733E+03 -0.20492859787E+03 -0.33223890767E+01  0.23516062852E+03  0.00000000000E+00 0.  1.
          4    1    6    6  503    0  0.24237079918E+03  0.37671930167E+01 -0.49782238800E+03  0.55370111615E+03  0.00000000000E+00 0. -1.
         -4    1    6    6    0  503  0.56055384024E+02 -0.41449024780E+02 -0.17222410909E+03  0.18579927741E+03  0.00000000000E+00 0.  1.
<mgrwt>
<rscale>  0 0.19787432E+04</rscale>
<asrwt>0</asrwt>
<pdfrwt beam="1">  1        2 0.16390710E+00 0.19787432E+04</pdfrwt>
<pdfrwt beam="2">  1       -1 0.14134954E+00 0.19787432E+04</pdfrwt>
<totfact> 0.99330419E+00</totfact>
</mgrwt>
</event>
<event>
12    7  0.1637954E-007  0.1393257E+04  0.7818608E-02  0.8958714E-01
          2   -1    0    0  501    0  0.00000000000E+00  0.00000000000E+00  0.69609776566E+03  0.69609776566E+03  0.00000000000E+00 0. -1.
         -1   -1    0    0    0  501 -0.00000000000E+00 -0.00000000000E+00 -0.69715954439E+03  0.69715954439E+03  0.00000000000E+00 0.  1.
         24    2    1    2    0    0  0.13953445128E+03 -0.30313561771E+03  0.21792085466E+03  0.40844371712E+03  0.89306804562E+02 0.  0.
        254    2    1    2    0    0 -0.13953445128E+03  0.30313561771E+03 -0.21898263339E+03  0.98481359293E+03  0.90030181232E+03 0.  0.
         23    2    4    4    0    0 -0.78817356163E+02  0.23390277198E+03  0.32924274013E+03  0.42144470971E+03  0.91061402606E+02 0.  0.
         23    2    4    4    0    0 -0.60717095115E+02  0.69232845733E+02 -0.54822537352E+03  0.56336888321E+03  0.91398500161E+02 0.  0.
          4    1    3    3  502    0  0.12994131102E+03 -0.24662716314E+03  0.21317232372E+03  0.35093039411E+03  0.00000000000E+00 0. -1.
         -3    1    3    3    0  502  0.95931402624E+01 -0.56508454565E+02  0.47485309355E+01  0.57513323008E+02  0.00000000000E+00 0.  1.
         13    1    5    5    0    0  0.13360271224E+02  0.73656065449E+01  0.39113703562E+02  0.41983696994E+02  0.00000000000E+00 0. -1.
        -13    1    5    5    0    0 -0.92177627387E+02  0.22653716543E+03  0.29012903657E+03  0.37946101272E+03  0.00000000000E+00 0.  1.
          4    1    6    6  503    0 -0.15673523481E+02  0.39965023237E+02 -0.69850788529E+02  0.81987773959E+02  0.00000000000E+00 0. -1.
         -4    1    6    6    0  503 -0.45043571634E+02  0.29267822496E+02 -0.47837458499E+03  0.48138110925E+03  0.00000000000E+00 0.  1.
<mgrwt>
<rscale>  0 0.13932569E+04</rscale>
<asrwt>0</asrwt>
<pdfrwt beam="1">  1        2 0.10709196E+00 0.13932569E+04</pdfrwt>
<pdfrwt beam="2">  1       -1 0.10725532E+00 0.13932569E+04</pdfrwt>
<totfact> 0.37195289E+01</totfact>
</mgrwt>
</event>
<event>
12    7  0.1637954E-007  0.1773848E+04  0.7818608E-02  0.8720331E-01
          2   -1    0    0  501    0  0.00000000000E+00  0.00000000000E+00  0.20953888301E+04  0.20953888301E+04  0.00000000000E+00 0. -1.
         -1   -1    0    0    0  501 -0.00000000000E+00 -0.00000000000E+00 -0.37541222393E+03  0.37541222393E+03  0.00000000000E+00 0.  1.
         24    2    1    2    0    0 -0.26242134437E+01 -0.42952220042E+01 -0.27213208617E+03  0.28376465730E+03  0.80256918600E+02 0.  0.
        254    2    1    2    0    0  0.26242134437E+01  0.42952220042E+01  0.19921086923E+04  0.21870363967E+04  0.90255516348E+03 0.  0.
         23    2    4    4    0    0  0.23308075698E+03 -0.29544973326E+03  0.15509460203E+04  0.15986395372E+04  0.92723394331E+02 0.  0.
         23    2    4    4    0    0 -0.23045654354E+03  0.29974495527E+03  0.44116267207E+03  0.58839685956E+03  0.92892973080E+02 0.  0.
          2    1    3    3  502    0 -0.81745804717E+01 -0.28068507280E+02 -0.36005906837E+02  0.46379846852E+02  0.00000000000E+00 0. -1.
         -1    1    3    3    0  502  0.55503670280E+01  0.23773285276E+02 -0.23612617933E+03  0.23738481045E+03  0.00000000000E+00 0.  1.
         13    1    5    5    0    0  0.24195233840E+03 -0.28594462299E+03  0.14991370589E+04  0.15452239911E+04  0.00000000000E+00 0. -1.
        -13    1    5    5    0    0 -0.88715814132E+01 -0.95051102763E+01  0.51808961399E+02  0.53415546045E+02  0.00000000000E+00 0.  1.
          2    1    6    6  503    0 -0.58659819169E+02  0.10290932713E+03  0.20215000872E+03  0.23429880500E+03  0.00000000000E+00 0. -1.
         -2    1    6    6    0  503 -0.17179672437E+03  0.19683562814E+03  0.23901266334E+03  0.35409805456E+03  0.00000000000E+00 0.  1.
<mgrwt>
<rscale>  0 0.17738484E+04</rscale>
<asrwt>0</asrwt>
<pdfrwt beam="1">  1        2 0.32236751E+00 0.17738484E+04</pdfrwt>
<pdfrwt beam="2">  1       -1 0.57755728E-01 0.17738484E+04</pdfrwt>
<totfact> 0.19340865E+01</totfact>
</mgrwt>
</event>
<event>
12    7  0.1637954E-007  0.2255246E+04  0.7818608E-02  0.8495779E-01
          2   -1    0    0  501    0  0.00000000000E+00  0.00000000000E+00  0.14603925235E+04  0.14603925235E+04  0.00000000000E+00 0. -1.
         -1   -1    0    0    0  501 -0.00000000000E+00 -0.00000000000E+00 -0.87067931177E+03  0.87067931177E+03  0.00000000000E+00 0.  1.
         24    2    1    2    0    0 -0.43015188553E+03  0.80682744322E+03  0.11470989647E+02  0.91807501054E+03  0.82030321256E+02 0.  0.
        254    2    1    2    0    0  0.43015188553E+03 -0.80682744322E+03  0.57824222204E+03  0.14129968247E+04  0.90895257932E+03 0.  0.
         23    2    4    4    0    0  0.68168167201E+03 -0.74344368758E+03  0.42931578545E+03  0.11001516833E+04  0.92861532042E+02 0.  0.
         23    2    4    4    0    0 -0.25152978648E+03 -0.63383755644E+02  0.14892643658E+03  0.31284514135E+03  0.91696592038E+02 0.  0.
          4    1    3    3  502    0 -0.32253272468E+02  0.11297840410E+03  0.13184738104E+02  0.11822956778E+03  0.00000000000E+00 0. -1.
         -3    1    3    3    0  502 -0.39789861307E+03  0.69384903912E+03 -0.17137484570E+01  0.79984544276E+03  0.00000000000E+00 0.  1.
         13    1    5    5    0    0  0.32900787503E+02 -0.53880843705E+02  0.72548858516E+01  0.63547151827E+02  0.00000000000E+00 0. -1.
        -13    1    5    5    0    0  0.64878088451E+03 -0.68956284387E+03  0.42206089960E+03  0.10366045315E+04  0.00000000000E+00 0.  1.
          4    1    6    6  503    0 -0.18474162188E+02 -0.33641007510E+02  0.91179587268E+01  0.39448057318E+02  0.00000000000E+00 0. -1.
         -4    1    6    6    0  503 -0.23305562429E+03 -0.29742748134E+02  0.13980847786E+03  0.27339708404E+03  0.00000000000E+00 0.  1.
<mgrwt>
<rscale>  0 0.22552459E+04</rscale>
<asrwt>0</asrwt>
<pdfrwt beam="1">  1        2 0.22467577E+00 0.22552459E+04</pdfrwt>
<pdfrwt beam="2">  1       -1 0.13395066E+00 0.22552459E+04</pdfrwt>
<totfact> 0.65123987E+00</totfact>
</mgrwt>
</event>
<event>
12    7  0.1637954E-007  0.1373725E+04  0.7818608E-02  0.8973060E-01
          2   -1    0    0  501    0  0.00000000000E+00  0.00000000000E+00  0.11667065446E+04  0.11667065446E+04  0.00000000000E+00 0. -1.
         -1   -1    0    0    0  501 -0.00000000000E+00 -0.00000000000E+00 -0.40436932830E+03  0.40436932830E+03  0.00000000000E+00 0.  1.
         24    2    1    2    0    0 -0.84818936011E+02  0.78625709735E+02  0.63907898193E+03  0.65429658972E+03  0.79409244019E+02 0.  0.
        254    2    1    2    0    0  0.84818936011E+02 -0.78625709735E+02  0.12325823437E+03  0.91677928319E+03  0.90106348700E+03 0.  0.
         23    2    4    4    0    0  0.28402919254E+03  0.31502744577E+03 -0.42785118928E+02  0.43677426026E+03  0.95006916700E+02 0.  0.
         23    2    4    4    0    0 -0.19921025652E+03 -0.39365315550E+03  0.16604335330E+03  0.48000502293E+03  0.90481455134E+02 0.  0.
          2    1    3    3  502    0 -0.26680535604E+02  0.61782883205E+01  0.34054994453E+03  0.34164936257E+03  0.00000000000E+00 0. -1.
         -1    1    3    3    0  502 -0.58138400408E+02  0.72447421414E+02  0.29852903740E+03  0.31264722715E+03  0.00000000000E+00 0.  1.
         13    1    5    5    0    0  0.15064872959E+02  0.51697327653E+02  0.15134600825E+02  0.55934070349E+02  0.00000000000E+00 0. -1.
        -13    1    5    5    0    0  0.26896431958E+03  0.26333011812E+03 -0.57919719752E+02  0.38084018991E+03  0.00000000000E+00 0.  1.
          4    1    6    6  503    0 -0.10888176364E+02 -0.92591475467E+02  0.16438729478E+02  0.94667658366E+02  0.00000000000E+00 0. -1.
         -4    1    6    6    0  503 -0.18832208016E+03 -0.30106168004E+03  0.14960462382E+03  0.38533736457E+03  0.00000000000E+00 0.  1.
<mgrwt>
<rscale>  0 0.13737254E+04</rscale>
<asrwt>0</asrwt>
<pdfrwt beam="1">  1        2 0.17949331E+00 0.13737254E+04</pdfrwt>
<pdfrwt beam="2">  1       -1 0.62210666E-01 0.13737254E+04</pdfrwt>
<totfact> 0.57801704E+01</totfact>
</mgrwt>
</event>
<event>
12    7  0.1637954E-007  0.1206018E+04  0.7818608E-02  0.9107606E-01
         -1   -1    0    0    0  501 -0.00000000000E+00  0.00000000000E+00  0.12492515605E+04  0.12492515605E+04  0.00000000000E+00 0.  1.
          4   -1    0    0  501    0  0.00000000000E+00 -0.00000000000E+00 -0.29107000968E+03  0.29107000968E+03  0.00000000000E+00 0. -1.
         24    2    1    2    0    0 -0.32180858000E+02  0.26307346890E+03  0.25499759225E+03  0.37649060339E+03  0.80486922704E+02 0.  0.
        254    2    1    2    0    0  0.32180858000E+02 -0.26307346890E+03  0.70318395853E+03  0.11638309667E+04  0.88870218969E+03 0.  0.
         23    2    4    4    0    0  0.30506622517E+03 -0.45513574222E+03  0.56301386111E+03  0.79100568649E+03  0.92149024288E+02 0.  0.
         23    2    4    4    0    0 -0.27288536717E+03  0.19206227331E+03  0.14017009742E+03  0.37282528025E+03  0.89424230149E+02 0.  0.
          4    1    3    3  502    0 -0.35570295376E+02  0.25386658277E+03  0.21278544905E+03  0.33315332069E+03  0.00000000000E+00 0. -1.
         -3    1    3    3    0  502  0.33894373759E+01  0.92068861307E+01  0.42212143206E+02  0.43337282702E+02  0.00000000000E+00 0.  1.
         13    1    5    5    0    0  0.19491690479E+02 -0.17490617135E+02  0.52970678143E+01  0.26719030913E+02  0.00000000000E+00 0. -1.
        -13    1    5    5    0    0  0.28557453469E+03 -0.43764512508E+03  0.55771679329E+03  0.76428665558E+03  0.00000000000E+00 0.  1.
          2    1    6    6  503    0 -0.43140311850E+02  0.76666633519E+02  0.27953793070E+02  0.92305328929E+02  0.00000000000E+00 0. -1.
         -2    1    6    6    0  503 -0.22974505532E+03  0.11539563979E+03  0.11221630435E+03  0.28051995132E+03  0.00000000000E+00 0.  1.
<mgrwt>
<rscale>  0 0.12060177E+04</rscale>
<asrwt>0</asrwt>
<pdfrwt beam="1">  1        4 0.44780002E-01 0.12060177E+04</pdfrwt>
<pdfrwt beam="2">  1       -1 0.19219254E+00 0.12060177E+04</pdfrwt>
<totfact> 0.34341295E+00</totfact>
</mgrwt>
</event>
<event>
12    7  0.1637954E-007  0.3429136E+04  0.7818608E-02  0.8130792E-01
         -1   -1    0    0    0  501 -0.00000000000E+00  0.00000000000E+00  0.12997927747E+04  0.12997927747E+04  0.00000000000E+00 0.  1.
          2   -1    0    0  501    0  0.00000000000E+00 -0.00000000000E+00 -0.22617009790E+04  0.22617009790E+04  0.00000000000E+00 0. -1.
         24    2    1    2    0    0 -0.30737232045E+03 -0.15275075055E+04 -0.85900143650E+02  0.15625514655E+04  0.80195541601E+02 0.  0.
        254    2    1    2    0    0  0.30737232045E+03  0.15275075055E+04 -0.87600806067E+03  0.19989422882E+04  0.89477551739E+03 0.  0.
         23    2    4    4    0    0  0.36486439524E+03  0.20816112109E+03 -0.42346049010E+02  0.43455310924E+03  0.10288895780E+03 0.  0.
         23    2    4    4    0    0 -0.57492074783E+02  0.13193463844E+04 -0.83366201166E+03  0.15643891790E+04  0.91328707949E+02 0.  0.
          4    1    3    3  502    0 -0.94333937353E+02 -0.48406743824E+03 -0.64472343222E+02  0.49736994234E+03  0.00000000000E+00 0. -1.
         -3    1    3    3    0  502 -0.21303838310E+03 -0.10434400673E+04 -0.21427800428E+02  0.10651815232E+04  0.00000000000E+00 0.  1.
         13    1    5    5    0    0  0.14012636134E+03  0.95368281066E+02  0.31664379837E+02  0.17243299895E+03  0.00000000000E+00 0.  1.
        -13    1    5    5    0    0  0.22473803390E+03  0.11279284003E+03 -0.74010428848E+02  0.26212011029E+03  0.00000000000E+00 0. -1.
          1    1    6    6  503    0 -0.23117969396E+02  0.88043577370E+03 -0.50764698718E+03  0.10165663066E+04  0.00000000000E+00 0. -1.
         -1    1    6    6    0  503 -0.34374105387E+02  0.43891061074E+03 -0.32601502448E+03  0.54782287240E+03  0.00000000000E+00 0.  1.
<mgrwt>
<rscale>  0 0.34291355E+04</rscale>
<asrwt>0</asrwt>
<pdfrwt beam="1">  1        2 0.34795399E+00 0.34291355E+04</pdfrwt>
<pdfrwt beam="2">  1       -1 0.19996812E+00 0.34291355E+04</pdfrwt>
<totfact> 0.67429956E-01</totfact>
</mgrwt>
</event>
<event>
12    7  0.1637954E-007  0.2744102E+04  0.7818608E-02  0.8320836E-01
          2   -1    0    0  501    0  0.00000000000E+00  0.00000000000E+00  0.21481995655E+04  0.21481995655E+04  0.00000000000E+00 0. -1.
         -1   -1    0    0    0  501 -0.00000000000E+00 -0.00000000000E+00 -0.87632645358E+03  0.87632645358E+03  0.00000000000E+00 0.  1.
         24    2    1    2    0    0  0.55348121522E+03  0.52181685367E+03  0.16254574474E+04  0.17964245829E+04  0.79969270525E+02 0.  0.
        254    2    1    2    0    0 -0.55348121522E+03 -0.52181685367E+03 -0.35358433548E+03  0.12281014362E+04  0.89698214643E+03 0.  0.
         23    2    4    4    0    0  0.44886942160E+02 -0.51071684098E+03  0.13502594822E+02  0.51908190425E+03  0.80107265641E+02 0.  0.
         23    2    4    4    0    0 -0.59836815738E+03 -0.11100012685E+02 -0.36708693030E+03  0.70901953199E+03  0.98935434977E+02 0.  0.
          4    1    3    3  502    0  0.36263305887E+03  0.38655004656E+03  0.11677226800E+04  0.12823805719E+04  0.00000000000E+00 0. -1.
         -3    1    3    3    0  502  0.19084815635E+03  0.13526680711E+03  0.45773476744E+03  0.51404401097E+03  0.00000000000E+00 0.  1.
         13    1    5    5    0    0  0.82202047624E+01 -0.30520768752E+02 -0.18150284122E+02  0.36448894431E+02  0.00000000000E+00 0.  1.
        -13    1    5    5    0    0  0.36666737397E+02 -0.48019607223E+03  0.31652878944E+02  0.48263300982E+03  0.00000000000E+00 0. -1.
          1    1    6    6  503    0 -0.41995603394E+03  0.12654626716E+02 -0.30282266193E+03  0.51790421373E+03  0.00000000000E+00 0. -1.
         -1    1    6    6    0  503 -0.17841212344E+03 -0.23754639401E+02 -0.64264268368E+02  0.19111531826E+03  0.00000000000E+00 0.  1.
<mgrwt>
<rscale>  0 0.27441021E+04</rscale>
<asrwt>0</asrwt>
<pdfrwt beam="1">  1        2 0.33049224E+00 0.27441021E+04</pdfrwt>
<pdfrwt beam="2">  1       -1 0.13481945E+00 0.27441021E+04</pdfrwt>
<totfact> 0.25373980E+00</totfact>
</mgrwt>
</event>
<event>
12    7  0.1637954E-007  0.1703932E+04  0.7818608E-02  0.8759125E-01
         -1   -1    0    0    0  501 -0.00000000000E+00  0.00000000000E+00  0.58657063260E+03  0.58657063260E+03  0.00000000000E+00 0.  1.
          2   -1    0    0  501    0  0.00000000000E+00 -0.00000000000E+00 -0.12374401247E+04  0.12374401247E+04  0.00000000000E+00 0. -1.
         24    2    1    2    0    0 -0.27412156171E+03  0.30411992815E+03  0.24641889657E+03  0.48466192654E+03  0.80890970806E+02 0.  0.
        254    2    1    2    0    0  0.27412156171E+03 -0.30411992815E+03 -0.89728838864E+03  0.13393488307E+04  0.90614418097E+03 0.  0.
         23    2    4    4    0    0 -0.23778921637E+03 -0.37982302967E+03 -0.31954563018E+03  0.55781627507E+03  0.90776327755E+02 0.  0.
         23    2    4    4    0    0  0.51191077808E+03  0.75703101516E+02 -0.57774275846E+03  0.78153255565E+03  0.96035599171E+02 0.  0.
          2    1    3    3  502    0 -0.19321199075E+01  0.43280686033E+01 -0.58931889659E+01  0.75627337226E+01  0.00000000000E+00 0. -1.
         -1    1    3    3    0  502 -0.27218944180E+03  0.29979185955E+03  0.25231208553E+03  0.47709919282E+03  0.00000000000E+00 0.  1.
         13    1    5    5    0    0 -0.67523878749E+02 -0.58339608286E+02 -0.34567884516E+02  0.95697036194E+02  0.00000000000E+00 0. -1.
        -13    1    5    5    0    0 -0.17026533762E+03 -0.32148342138E+03 -0.28497774567E+03  0.46211923888E+03  0.00000000000E+00 0.  1.
          1    1    6    6  503    0  0.10120581896E+03  0.77175321409E+01 -0.62769272394E+02  0.11934051974E+03  0.00000000000E+00 0. -1.
         -1    1    6    6    0  503  0.41070495911E+03  0.67985569375E+02 -0.51497348606E+03  0.66219203592E+03  0.00000000000E+00 0.  1.
<mgrwt>
<rscale>  0 0.17039320E+04</rscale>
<asrwt>0</asrwt>
<pdfrwt beam="1">  1        2 0.19037540E+00 0.17039320E+04</pdfrwt>
<pdfrwt beam="2">  1       -1 0.90241638E-01 0.17039320E+04</pdfrwt>
<totfact> 0.23436042E+01</totfact>
</mgrwt>
</event>
<event>
12    7  0.1637954E-007  0.1298617E+04  0.7818608E-02  0.9030663E-01
         -1   -1    0    0    0  501 -0.00000000000E+00  0.00000000000E+00  0.27183061517E+03  0.27183061517E+03  0.00000000000E+00 0.  1.
          2   -1    0    0  501    0  0.00000000000E+00 -0.00000000000E+00 -0.15509705956E+04  0.15509705956E+04  0.00000000000E+00 0. -1.
         24    2    1    2    0    0 -0.99514907538E+02 -0.10187760910E+03  0.79754525725E+02  0.18171955980E+03  0.79868329018E+02 0.  0.
        254    2    1    2    0    0  0.99514907538E+02  0.10187760910E+03 -0.13588945062E+04  0.16410816510E+04  0.90899529276E+03 0.  0.
         23    2    4    4    0    0  0.16992168854E+03 -0.33732048738E+03 -0.31196148142E+03  0.50000413494E+03  0.10012830581E+03 0.  0.
         23    2    4    4    0    0 -0.70406781003E+02  0.43919809649E+03 -0.10469330247E+04  0.11410775160E+04  0.90205634805E+02 0.  0.
          2    1    3    3  502    0 -0.29268278955E+02 -0.83848885143E+02  0.29880399840E+02  0.93702219757E+02  0.00000000000E+00 0. -1.
         -1    1    3    3    0  502 -0.70246628582E+02 -0.18028723961E+02  0.49874125885E+02  0.88017340040E+02  0.00000000000E+00 0.  1.
         13    1    5    5    0    0  0.16556466257E+03 -0.31814956783E+03 -0.25587281333E+03  0.44056974658E+03  0.00000000000E+00 0.  1.
        -13    1    5    5    0    0  0.43570259734E+01 -0.19170919557E+02 -0.56088668090E+02  0.59434388364E+02  0.00000000000E+00 0. -1.
          1    1    6    6  503    0 -0.87999472403E+02  0.30378233809E+03 -0.69491135403E+03  0.76349813755E+03  0.00000000000E+00 0. -1.
         -1    1    6    6    0  503  0.17592691400E+02  0.13541575840E+03 -0.35202167071E+03  0.37757937849E+03  0.00000000000E+00 0.  1.
<mgrwt>
<rscale>  0 0.12986166E+04</rscale>
<asrwt>0</asrwt>
<pdfrwt beam="1">  1        2 0.23861086E+00 0.12986166E+04</pdfrwt>
<pdfrwt beam="2">  1       -1 0.41820094E-01 0.12986166E+04</pdfrwt>
<totfact> 0.74453405E+01</totfact>
</mgrwt>
</event>
<event>
12    7  0.1637954E-007  0.1314690E+04  0.7818608E-02  0.9017996E-01
          2   -1    0    0  501    0  0.00000000000E+00  0.00000000000E+00  0.11453992054E+04  0.11453992054E+04  0.00000000000E+00 0. -1.
         -1   -1    0    0    0  501 -0.00000000000E+00 -0.00000000000E+00 -0.37725047046E+03  0.37725047046E+03  0.00000000000E+00 0.  1.
         24    2    1    2    0    0  0.31157417493E+03  0.53549974387E+02  0.31473572184E+03  0.45309892337E+03  0.79334692989E+02 0.  0.
        254    2    1    2    0    0 -0.31157417493E+03 -0.53549974387E+02  0.45341301312E+03  0.10695507525E+04  0.91564697645E+03 0.  0.
         23    2    4    4    0    0 -0.75735763538E+02 -0.28021351244E+03 -0.17876963991E+03  0.35272288909E+03  0.90550173405E+02 0.  0.
         23    2    4    4    0    0 -0.23583841139E+03  0.22666353806E+03  0.63218265302E+03  0.71682786342E+03  0.84800726495E+02 0.  0.
          4    1    3    3  502    0  0.31270596711E+03  0.51139858852E+02  0.29416919520E+03  0.43236075496E+03  0.00000000000E+00 0. -1.
         -3    1    3    3    0  502 -0.11317921804E+01  0.24101155350E+01  0.20566526646E+02  0.20738168403E+02  0.00000000000E+00 0.  1.
         13    1    5    5    0    0 -0.50863993555E+02 -0.94918962308E+02 -0.24753774720E+02  0.11049662714E+03  0.00000000000E+00 0. -1.
        -13    1    5    5    0    0 -0.24871769983E+02 -0.18529455014E+03 -0.15401586519E+03  0.24222626196E+03  0.00000000000E+00 0.  1.
          4    1    6    6  503    0 -0.16842266993E+03  0.20601318037E+03  0.47261318641E+03  0.54237519320E+03  0.00000000000E+00 0. -1.
         -4    1    6    6    0  503 -0.67415741462E+02  0.20650357686E+02  0.15956946661E+03  0.17445267021E+03  0.00000000000E+00 0.  1.
<mgrwt>
<rscale>  0 0.13146899E+04</rscale>
<asrwt>0</asrwt>
<pdfrwt beam="1">  1        2 0.17621526E+00 0.13146899E+04</pdfrwt>
<pdfrwt beam="2">  1       -1 0.58038535E-01 0.13146899E+04</pdfrwt>
<totfact> 0.68616808E+01</totfact>
</mgrwt>
</event>
<event>
12    7  0.1637954E-007  0.1746225E+04  0.7818608E-02  0.8735431E-01
          2   -1    0    0  501    0  0.00000000000E+00  0.00000000000E+00  0.13700531866E+04  0.13700531866E+04  0.00000000000E+00 0. -1.
         -1   -1    0    0    0  501 -0.00000000000E+00 -0.00000000000E+00 -0.55642039730E+03  0.55642039730E+03  0.00000000000E+00 0.  1.
         24    2    1    2    0    0 -0.27175123296E+03  0.54652894066E+03  0.49597733339E+03  0.79060086062E+03  0.80706814929E+02 0.  0.
        254    2    1    2    0    0  0.27175123296E+03 -0.54652894066E+03  0.31765545593E+03  0.11358727233E+04  0.90374733155E+03 0.  0.
         23    2    4    4    0    0 -0.29297083148E+03 -0.12448952748E+03 -0.50685204284E+02  0.33537482035E+03  0.92616033364E+02 0.  0.
         23    2    4    4    0    0  0.56472206444E+03 -0.42203941317E+03  0.36834066022E+03  0.80049790297E+03  0.89965406374E+02 0.  0.
          4    1    3    3  502    0 -0.88002924316E+02  0.10541678931E+03  0.97654648934E+02  0.16850413827E+03  0.00000000000E+00 0. -1.
         -3    1    3    3    0  502 -0.18374830865E+03  0.44111215135E+03  0.39832268446E+03  0.62209672235E+03  0.00000000000E+00 0.  1.
         13    1    5    5    0    0 -0.13583434880E+03 -0.26004354967E+02 -0.57554648036E+02  0.14979897965E+03  0.00000000000E+00 0.  1.
        -13    1    5    5    0    0 -0.15713648268E+03 -0.98485172517E+02  0.68694437517E+01  0.18557584070E+03  0.00000000000E+00 0. -1.
          1    1    6    6  503    0  0.38601723596E+03 -0.23456586439E+03  0.23116604084E+03  0.50741323360E+03  0.00000000000E+00 0. -1.
         -1    1    6    6    0  503  0.17870482849E+03 -0.18747354878E+03  0.13717461937E+03  0.29308466937E+03  0.00000000000E+00 0.  1.
<mgrwt>
<rscale>  0 0.17462251E+04</rscale>
<asrwt>0</asrwt>
<pdfrwt beam="1">  1        2 0.21077741E+00 0.17462251E+04</pdfrwt>
<pdfrwt beam="2">  1       -1 0.85603138E-01 0.17462251E+04</pdfrwt>
<totfact> 0.21935573E+01</totfact>
</mgrwt>
</event>
<event>
12    7  0.1637954E-007  0.1308128E+04  0.7818608E-02  0.9023144E-01
          2   -1    0    0  501    0  0.00000000000E+00  0.00000000000E+00  0.36362123861E+04  0.36362123861E+04  0.00000000000E+00 0. -1.
         -1   -1    0    0    0  501 -0.00000000000E+00 -0.00000000000E+00 -0.11764982760E+03  0.11764982760E+03  0.00000000000E+00 0.  1.
         24    2    1    2    0    0  0.18691045300E+03  0.21699755469E+02  0.12338537799E+03  0.23930886419E+03  0.81476279701E+02 0.  0.
        254    2    1    2    0    0 -0.18691045300E+03 -0.21699755469E+02  0.33951771805E+04  0.35145533495E+04  0.88851041783E+03 0.  0.
         23    2    4    4    0    0 -0.18903782636E+03 -0.80772002221E+02  0.33995362797E+04  0.34069489388E+04  0.90524793600E+02 0.  0.
         23    2    4    4    0    0  0.21273733622E+01  0.59072246752E+02 -0.43590992415E+01  0.10760441068E+03  0.89808971698E+02 0.  0.
          4    1    3    3  502    0  0.60717335062E+02  0.16009753979E+02  0.93456093013E-01  0.62792640759E+02  0.00000000000E+00 0. -1.
         -3    1    3    3    0  502  0.12619311793E+03  0.56900014895E+01  0.12329192190E+03  0.17651622343E+03  0.00000000000E+00 0.  1.
         13    1    5    5    0    0 -0.16376262022E+03 -0.47400995414E+02  0.30752174308E+04  0.30799394956E+04  0.00000000000E+00 0. -1.
        -13    1    5    5    0    0 -0.25275206135E+02 -0.33371006807E+02  0.32431884893E+03  0.32700944316E+03  0.00000000000E+00 0.  1.
          3    1    6    6  503    0  0.34198762972E+01 -0.19673017026E+02  0.16756138885E+02  0.26067054746E+02  0.00000000000E+00 0. -1.
         -3    1    6    6    0  503 -0.12925029350E+01  0.78745263778E+02 -0.21115238127E+02  0.81537355932E+02  0.00000000000E+00 0.  1.
<mgrwt>
<rscale>  0 0.13081281E+04</rscale>
<asrwt>0</asrwt>
<pdfrwt beam="1">  1        2 0.55941720E+00 0.13081281E+04</pdfrwt>
<pdfrwt beam="2">  1       -1 0.18099976E-01 0.13081281E+04</pdfrwt>
<totfact> 0.17940523E+01</totfact>
</mgrwt>
</event>
<event>
12    7  0.1637954E-007  0.1688630E+04  0.7818608E-02  0.8767876E-01
         -1   -1    0    0    0  501 -0.00000000000E+00  0.00000000000E+00  0.10315240118E+04  0.10315240118E+04  0.00000000000E+00 0.  1.
          2   -1    0    0  501    0  0.00000000000E+00 -0.00000000000E+00 -0.69108185497E+03  0.69108185497E+03  0.00000000000E+00 0. -1.
         24    2    1    2    0    0  0.50879792086E+03  0.27329053718E+03  0.29862762220E+03  0.65518126063E+03  0.80752619480E+02 0.  0.
        254    2    1    2    0    0 -0.50879792086E+03 -0.27329053718E+03  0.41814534617E+02  0.10674246061E+04  0.89670719440E+03 0.  0.
         23    2    4    4    0    0 -0.11862617791E+03  0.31270212383E+03  0.81729787370E+02  0.35648716423E+03  0.92458378650E+02 0.  0.
         23    2    4    4    0    0 -0.39017174295E+03 -0.58599266101E+03 -0.39915252753E+02  0.71093744190E+03  0.90650047660E+02 0.  0.
          2    1    3    3  502    0  0.28918768306E+03  0.17010653395E+03  0.13055923199E+03  0.36001591907E+03  0.00000000000E+00 0. -1.
         -1    1    3    3    0  502  0.21961023780E+03  0.10318400323E+03  0.16806839021E+03  0.29516534156E+03  0.00000000000E+00 0.  1.
         13    1    5    5    0    0 -0.69551199115E+02  0.82663661539E+02  0.50351218035E+02  0.11918848684E+03  0.00000000000E+00 0. -1.
        -13    1    5    5    0    0 -0.49074978791E+02  0.23003846229E+03  0.31378569334E+02  0.23729867739E+03  0.00000000000E+00 0.  1.
          4    1    6    6  503    0  0.18678244734E+00 -0.76233783608E+01 -0.99268577276E+01  0.12517719028E+02  0.00000000000E+00 0. -1.
         -4    1    6    6    0  503 -0.39035852540E+03 -0.57836928265E+03 -0.29988395025E+02  0.69841972288E+03  0.00000000000E+00 0.  1.
<mgrwt>
<rscale>  0 0.16886297E+04</rscale>
<asrwt>0</asrwt>
<pdfrwt beam="1">  1        2 0.10632029E+00 0.16886297E+04</pdfrwt>
<pdfrwt beam="2">  1       -1 0.15869600E+00 0.16886297E+04</pdfrwt>
<totfact> 0.13542393E+01</totfact>
</mgrwt>
</event>
<event>
12    7  0.1637954E-007  0.1684552E+04  0.7818608E-02  0.8770224E-01
         -1   -1    0    0    0  501 -0.00000000000E+00  0.00000000000E+00  0.36911369639E+03  0.36911369639E+03  0.00000000000E+00 0.  1.
          2   -1    0    0  501    0  0.00000000000E+00 -0.00000000000E+00 -0.19219793256E+04  0.19219793256E+04  0.00000000000E+00 0. -1.
         24    2    1    2    0    0 -0.47399170774E+03 -0.23114925683E+03 -0.94094532128E+03  0.10815219013E+04  0.78825170386E+02 0.  0.
        254    2    1    2    0    0  0.47399170774E+03  0.23114925683E+03 -0.61192030796E+03  0.12095711207E+04  0.90028757338E+03 0.  0.
         23    2    4    4    0    0 -0.75315796019E+02  0.11427700524E+03  0.17445521748E+03  0.23980851273E+03  0.91333437547E+02 0.  0.
         23    2    4    4    0    0  0.54930750376E+03  0.11687225159E+03 -0.78637552545E+03  0.96976260797E+03  0.81579359586E+02 0.  0.
          2    1    3    3  502    0 -0.27584675074E+03 -0.17578287410E+03 -0.55762960148E+03  0.64648420024E+03  0.00000000000E+00 0. -1.
         -1    1    3    3    0  502 -0.19814495701E+03 -0.55366382723E+02 -0.38331571980E+03  0.43503770109E+03  0.00000000000E+00 0.  1.
         13    1    5    5    0    0  0.11579093771E+02  0.32589980380E+02  0.81710773225E+02  0.88728984525E+02  0.00000000000E+00 0. -1.
        -13    1    5    5    0    0 -0.86894889790E+02  0.81687024862E+02  0.92744444257E+02  0.15107952821E+03  0.00000000000E+00 0.  1.
          3    1    6    6  503    0  0.41003334031E+02  0.13937831877E+02 -0.10411713304E+03  0.11276486133E+03  0.00000000000E+00 0. -1.
         -3    1    6    6    0  503  0.50830416973E+03  0.10293441971E+03 -0.68225839241E+03  0.85699774663E+03  0.00000000000E+00 0.  1.
<mgrwt>
<rscale>  0 0.16845520E+04</rscale>
<asrwt>0</asrwt>
<pdfrwt beam="1">  1        2 0.29568913E+00 0.16845520E+04</pdfrwt>
<pdfrwt beam="2">  1       -1 0.56786721E-01 0.16845520E+04</pdfrwt>
<totfact> 0.25150315E+01</totfact>
</mgrwt>
</event>
<event>
12    7  0.1637954E-007  0.1972477E+04  0.7818608E-02  0.8619598E-01
          2   -1    0    0  501    0  0.00000000000E+00  0.00000000000E+00  0.12691853562E+04  0.12691853562E+04  0.00000000000E+00 0. -1.
         -1   -1    0    0    0  501 -0.00000000000E+00 -0.00000000000E+00 -0.76637042609E+03  0.76637042609E+03  0.00000000000E+00 0.  1.
         24    2    1    2    0    0 -0.19867194846E+03 -0.70740425365E+03 -0.85405913071E+02  0.74381321724E+03  0.77926959238E+02 0.  0.
        254    2    1    2    0    0  0.19867194846E+03  0.70740425365E+03  0.58822084321E+03  0.12917425651E+04  0.88470547239E+03 0.  0.
         23    2    4    4    0    0  0.35865737322E+01  0.10711090105E+03 -0.22041022229E+03  0.26191038017E+03  0.92362181185E+02 0.  0.
         23    2    4    4    0    0  0.19508537472E+03  0.60029335259E+03  0.80863106550E+03  0.10298321849E+04  0.90882981880E+02 0.  0.
          4    1    3    3  502    0 -0.29839907053E+02 -0.21782125398E+03 -0.44583288921E+02  0.22433053379E+03  0.00000000000E+00 0. -1.
         -3    1    3    3    0  502 -0.16883204140E+03 -0.48958299967E+03 -0.40822624151E+02  0.51948268345E+03  0.00000000000E+00 0.  1.
         13    1    5    5    0    0 -0.37041136023E+02  0.49764931110E+02 -0.15048387258E+03  0.16276974545E+03  0.00000000000E+00 0. -1.
        -13    1    5    5    0    0  0.40627709755E+02  0.57345969942E+02 -0.69926349708E+02  0.99140634717E+02  0.00000000000E+00 0.  1.
          3    1    6    6  503    0  0.13616266599E+03  0.42715841912E+03  0.50430408167E+03  0.67477936647E+03  0.00000000000E+00 0. -1.
         -3    1    6    6    0  503  0.58922708729E+02  0.17313493348E+03  0.30432698383E+03  0.35505281844E+03  0.00000000000E+00 0.  1.
<mgrwt>
<rscale>  0 0.19724767E+04</rscale>
<asrwt>0</asrwt>
<pdfrwt beam="1">  1        2 0.19525929E+00 0.19724767E+04</pdfrwt>
<pdfrwt beam="2">  1       -1 0.11790314E+00 0.19724767E+04</pdfrwt>
<totfact> 0.11823853E+01</totfact>
</mgrwt>
</event>
<event>
12    7  0.1637954E-007  0.1548453E+04  0.7818608E-02  0.8852857E-01
          2   -1    0    0  501    0  0.00000000000E+00  0.00000000000E+00  0.24232666487E+04  0.24232666487E+04  0.00000000000E+00 0. -1.
         -1   -1    0    0    0  501 -0.00000000000E+00 -0.00000000000E+00 -0.24736295704E+03  0.24736295704E+03  0.00000000000E+00 0.  1.
         24    2    1    2    0    0  0.89821179102E+01 -0.12430789821E+03  0.15735641833E+04  0.15805179161E+04  0.79996951210E+02 0.  0.
        254    2    1    2    0    0 -0.89821179102E+01  0.12430789821E+03  0.60233950831E+03  0.10901116896E+04  0.89999860027E+03 0.  0.
         23    2    4    4    0    0  0.15225569863E+02 -0.61717339769E+02 -0.21751717774E+03  0.24379231368E+03  0.89889496567E+02 0.  0.
         23    2    4    4    0    0 -0.24207687773E+02  0.18602523798E+03  0.81985668605E+03  0.84631937590E+03  0.94340336335E+02 0.  0.
          4    1    3    3  502    0 -0.10860233958E+02 -0.92000142833E+02  0.13897533968E+04  0.13928375623E+04  0.00000000000E+00 0. -1.
         -1    1    3    3    0  502  0.19842351868E+02 -0.32307755375E+02  0.18381078650E+03  0.18768035384E+03  0.00000000000E+00 0.  1.
         13    1    5    5    0    0 -0.21252018520E+02  0.16730710519E+01 -0.12009637377E+03  0.12197371213E+03  0.00000000000E+00 0. -1.
        -13    1    5    5    0    0  0.36477588384E+02 -0.63390410821E+02 -0.97420803969E+02  0.12181860155E+03  0.00000000000E+00 0.  1.
          3    1    6    6  503    0  0.13992820199E+02  0.15579763208E+03  0.69291159136E+03  0.71034862893E+03  0.00000000000E+00 0. -1.
         -3    1    6    6    0  503 -0.38200507972E+02  0.30227605892E+02  0.12694509468E+03  0.13597074697E+03  0.00000000000E+00 0.  1.
<mgrwt>
<rscale>  0 0.15484527E+04</rscale>
<asrwt>0</asrwt>
<pdfrwt beam="1">  1        2 0.37281024E+00 0.15484527E+04</pdfrwt>
<pdfrwt beam="2">  1       -1 0.38055841E-01 0.15484527E+04</pdfrwt>
<totfact> 0.28250718E+01</totfact>
</mgrwt>
</event>
<event>
12    7  0.1637954E-007  0.1930459E+04  0.7818608E-02  0.8639842E-01
          2   -1    0    0  501    0  0.00000000000E+00  0.00000000000E+00  0.10502047817E+04  0.10502047817E+04  0.00000000000E+00 0. -1.
         -1   -1    0    0    0  501 -0.00000000000E+00 -0.00000000000E+00 -0.88712949685E+03  0.88712949685E+03  0.00000000000E+00 0.  1.
         24    2    1    2    0    0  0.62756419533E+03  0.13143064927E+03  0.47381317126E+03  0.80129202963E+03  0.80368903604E+02 0.  0.
        254    2    1    2    0    0 -0.62756419533E+03 -0.13143064927E+03 -0.31073788636E+03  0.11360422490E+04  0.88482943135E+03 0.  0.
         23    2    4    4    0    0  0.18573789515E+03  0.11528718164E+03 -0.95659485606E+02  0.25456821006E+03  0.88682221686E+02 0.  0.
         23    2    4    4    0    0 -0.81330209048E+03 -0.24671783091E+03 -0.21507840076E+03  0.88147403890E+03  0.91693971031E+02 0.  0.
          4    1    3    3  502    0  0.48562546558E+03  0.93607482840E+02  0.32260555621E+03  0.59048183593E+03  0.00000000000E+00 0. -1.
         -3    1    3    3    0  502  0.14193872976E+03  0.37823166426E+02  0.15120761504E+03  0.21081019371E+03  0.00000000000E+00 0.  1.
         13    1    5    5    0    0  0.17854772355E+03  0.72917995948E+02 -0.75763293456E+02  0.20721100442E+03  0.00000000000E+00 0.  1.
        -13    1    5    5    0    0  0.71901715965E+01  0.42369185695E+02 -0.19896192150E+02  0.47357205641E+02  0.00000000000E+00 0. -1.
          3    1    6    6  503    0 -0.40103706556E+03 -0.16953795243E+03 -0.10819867139E+03  0.44864328565E+03  0.00000000000E+00 0. -1.
         -3    1    6    6    0  503 -0.41226502492E+03 -0.77179878477E+02 -0.10687972937E+03  0.43283075325E+03  0.00000000000E+00 0.  1.
<mgrwt>
<rscale>  0 0.19304586E+04</rscale>
<asrwt>0</asrwt>
<pdfrwt beam="1">  1        2 0.16156997E+00 0.19304586E+04</pdfrwt>
<pdfrwt beam="2">  1       -1 0.13648146E+00 0.19304586E+04</pdfrwt>
<totfact> 0.11170346E+01</totfact>
</mgrwt>
</event>
<event>
12    7  0.1637954E-007  0.1493768E+04  0.7818608E-02  0.8888608E-01
         -1   -1    0    0    0  501 -0.00000000000E+00  0.00000000000E+00  0.19538108206E+03  0.19538108206E+03  0.00000000000E+00 0.  1.
          2   -1    0    0  501    0  0.00000000000E+00 -0.00000000000E+00 -0.28551174258E+04  0.28551174258E+04  0.00000000000E+00 0. -1.
         24    2    1    2    0    0 -0.25401607564E+03  0.24405565320E+03 -0.21477592831E+03  0.41978578285E+03  0.77485970062E+02 0.  0.
        254    2    1    2    0    0  0.25401607564E+03 -0.24405565320E+03 -0.24449604154E+04  0.26307127250E+04  0.90483737767E+03 0.  0.
         23    2    4    4    0    0 -0.12251298014E+03  0.27023669612E+03 -0.10399044048E+04  0.10852039188E+04  0.90714232196E+02 0.  0.
         23    2    4    4    0    0  0.37652905578E+03 -0.51429234932E+03 -0.14050560106E+04  0.15455088062E+04  0.90245924187E+02 0.  0.
          2    1    3    3  502    0  0.53303510037E+01  0.35157480256E+01 -0.94920693191E+00  0.64555495352E+01  0.00000000000E+00 0. -1.
         -1    1    3    3    0  502 -0.25934642664E+03  0.24053990517E+03 -0.21382672138E+03  0.41333023331E+03  0.00000000000E+00 0.  1.
         13    1    5    5    0    0 -0.37349308020E+02  0.18147861824E+03 -0.68358309089E+03  0.70824805107E+03  0.00000000000E+00 0.  1.
        -13    1    5    5    0    0 -0.85163672117E+02  0.88758077874E+02 -0.35632131393E+03  0.37695586770E+03  0.00000000000E+00 0. -1.
          4    1    6    6  503    0  0.29577684339E+03 -0.33991372987E+03 -0.94468908476E+03  0.10466435648E+04  0.00000000000E+00 0. -1.
         -4    1    6    6    0  503  0.80752212389E+02 -0.17437861945E+03 -0.46036692583E+03  0.49886524145E+03  0.00000000000E+00 0.  1.
<mgrwt>
<rscale>  0 0.14937683E+04</rscale>
<asrwt>0</asrwt>
<pdfrwt beam="1">  1        2 0.43924879E+00 0.14937683E+04</pdfrwt>
<pdfrwt beam="2">  1       -1 0.30058631E-01 0.14937683E+04</pdfrwt>
<totfact> 0.24102904E+01</totfact>
</mgrwt>
</event>
<event>
12    7  0.1637954E-007  0.2619843E+04  0.7818608E-02  0.8361492E-01
         -1   -1    0    0    0  501 -0.00000000000E+00  0.00000000000E+00  0.14691459289E+04  0.14691459289E+04  0.00000000000E+00 0.  1.
          2   -1    0    0  501    0  0.00000000000E+00 -0.00000000000E+00 -0.11679540703E+04  0.11679540703E+04  0.00000000000E+00 0. -1.
         24    2    1    2    0    0 -0.23335860909E+03 -0.62501273238E+03  0.11022688625E+04  0.12909366982E+04  0.80148346806E+02 0.  0.
        254    2    1    2    0    0  0.23335860909E+03  0.62501273238E+03 -0.80107700389E+03  0.13461633009E+04  0.85166549213E+03 0.  0.
         23    2    4    4    0    0  0.41354006086E+03  0.47598424341E+03 -0.87699637901E+03  0.10839427276E+04  0.90734811945E+02 0.  0.
         23    2    4    4    0    0 -0.18018145176E+03  0.14902848897E+03  0.75919375124E+02  0.26222057327E+03  0.91219687803E+02 0.  0.
          2    1    3    3  502    0 -0.39555116708E+02 -0.15045695789E+03  0.31785634573E+03  0.35388495299E+03  0.00000000000E+00 0. -1.
         -1    1    3    3    0  502 -0.19380349238E+03 -0.47455577449E+03  0.78441251678E+03  0.93705174523E+03  0.00000000000E+00 0.  1.
         13    1    5    5    0    0  0.35532119222E+03  0.39032198875E+03 -0.67433043763E+03  0.85634452392E+03  0.00000000000E+00 0.  1.
        -13    1    5    5    0    0  0.58218868639E+02  0.85662254662E+02 -0.20266594138E+03  0.22759820372E+03  0.00000000000E+00 0. -1.
          1    1    6    6  503    0 -0.47587891289E+02  0.88493774925E+02  0.56221118111E+02  0.11513717783E+03  0.00000000000E+00 0. -1.
         -1    1    6    6    0  503 -0.13259356048E+03  0.60534714042E+02  0.19698257014E+02  0.14708339544E+03  0.00000000000E+00 0.  1.
<mgrwt>
<rscale>  0 0.26198435E+04</rscale>
<asrwt>0</asrwt>
<pdfrwt beam="1">  1        2 0.17968524E+00 0.26198435E+04</pdfrwt>
<pdfrwt beam="2">  1       -1 0.22602245E+00 0.26198435E+04</pdfrwt>
<totfact> 0.19989801E+00</totfact>
</mgrwt>
</event>
<event>
12    7  0.1637954E-007  0.2001719E+04  0.7818608E-02  0.8605817E-01
          2   -1    0    0  501    0  0.00000000000E+00  0.00000000000E+00  0.18128333470E+04  0.18128333470E+04  0.00000000000E+00 0. -1.
         -1   -1    0    0    0  501 -0.00000000000E+00 -0.00000000000E+00 -0.55257131876E+03  0.55257131876E+03  0.00000000000E+00 0.  1.
         24    2    1    2    0    0 -0.66526568852E+02  0.63582248890E+03  0.10674417886E+04  0.12467708808E+04  0.79433214521E+02 0.  0.
        254    2    1    2    0    0  0.66526568852E+02 -0.63582248890E+03  0.19282023967E+03  0.11186337849E+04  0.89747750846E+03 0.  0.
         23    2    4    4    0    0  0.12102529267E+03  0.12798773476E+03 -0.17504567907E+03  0.26442460747E+03  0.90837225629E+02 0.  0.
         23    2    4    4    0    0 -0.54498723817E+02 -0.76381022366E+03  0.36786591873E+03  0.85420917746E+03  0.89285026846E+02 0.  0.
          2    1    3    3  502    0 -0.37366938425E+02  0.51043875201E+03  0.79582661491E+03  0.94619448775E+03  0.00000000000E+00 0. -1.
         -1    1    3    3    0  502 -0.29159630427E+02  0.12538373689E+03  0.27161517366E+03  0.30057639310E+03  0.00000000000E+00 0.  1.
         13    1    5    5    0    0  0.90678403036E+01 -0.52906884873E+01 -0.47468416392E+02  0.48615508505E+02  0.00000000000E+00 0. -1.
        -13    1    5    5    0    0  0.11195745236E+03  0.13327842325E+03 -0.12757726267E+03  0.21580909896E+03  0.00000000000E+00 0.  1.
          3    1    6    6  503    0 -0.42113630920E+02 -0.17688374295E+03  0.11401876961E+03  0.21461988783E+03  0.00000000000E+00 0. -1.
         -3    1    6    6    0  503 -0.12385092897E+02 -0.58692648071E+03  0.25384714912E+03  0.63958928963E+03  0.00000000000E+00 0.  1.
<mgrwt>
<rscale>  0 0.20017190E+04</rscale>
<asrwt>0</asrwt>
<pdfrwt beam="1">  1        2 0.27889744E+00 0.20017190E+04</pdfrwt>
<pdfrwt beam="2">  1       -1 0.85010973E-01 0.20017190E+04</pdfrwt>
<totfact> 0.12289433E+01</totfact>
</mgrwt>
</event>
<event>
12    7  0.1637954E-007  0.1724151E+04  0.7818608E-02  0.8747709E-01
          2   -1    0    0  501    0  0.00000000000E+00  0.00000000000E+00  0.37631433099E+03  0.37631433099E+03  0.00000000000E+00 0. -1.
         -1   -1    0    0    0  501 -0.00000000000E+00 -0.00000000000E+00 -0.19748756809E+04  0.19748756809E+04  0.00000000000E+00 0.  1.
         24    2    1    2    0    0  0.38560662096E+03  0.47161381274E+03 -0.81816811608E+03  0.10234273638E+04  0.83020770924E+02 0.  0.
        254    2    1    2    0    0 -0.38560662096E+03 -0.47161381274E+03 -0.78039323381E+03  0.13277626480E+04  0.88477567531E+03 0.  0.
         23    2    4    4    0    0  0.27705897264E+03 -0.11183856194E+03 -0.18575387727E+03  0.36307948083E+03  0.89736660389E+02 0.  0.
         23    2    4    4    0    0 -0.66266559360E+03 -0.35977525080E+03 -0.59463935654E+03  0.96468316720E+03  0.91944160772E+02 0.  0.
          4    1    3    3  502    0  0.34586498750E+03  0.45548839324E+03 -0.75942573537E+03  0.95069433231E+03  0.00000000000E+00 0. -1.
         -3    1    3    3    0  502  0.39741633458E+02  0.16125419496E+02 -0.58742380718E+02  0.72733031535E+02  0.00000000000E+00 0.  1.
         13    1    5    5    0    0  0.41128898703E+02 -0.51886523100E+02 -0.22296825555E+02  0.69863767561E+02  0.00000000000E+00 0. -1.
        -13    1    5    5    0    0  0.23593007394E+03 -0.59952038835E+02 -0.16345705172E+03  0.29321571326E+03  0.00000000000E+00 0.  1.
          4    1    6    6  503    0 -0.44389113232E+03 -0.19259507310E+03 -0.39405692028E+03  0.62402969156E+03  0.00000000000E+00 0.  1.
         -4    1    6    6    0  503 -0.21877446128E+03 -0.16718017771E+03 -0.20058243625E+03  0.34065347563E+03  0.00000000000E+00 0. -1.
<mgrwt>
<rscale>  0 0.17241508E+04</rscale>
<asrwt>0</asrwt>
<pdfrwt beam="1">  1        2 0.57894513E-01 0.17241508E+04</pdfrwt>
<pdfrwt beam="2">  1       -1 0.30382702E+00 0.17241508E+04</pdfrwt>
<totfact> 0.28905140E+00</totfact>
</mgrwt>
</event>
<event>
12    7  0.1637954E-007  0.2075654E+04  0.7818608E-02  0.8572045E-01
         -1   -1    0    0    0  501 -0.00000000000E+00  0.00000000000E+00  0.53027419247E+03  0.53027419247E+03  0.00000000000E+00 0.  1.
          2   -1    0    0  501    0  0.00000000000E+00 -0.00000000000E+00 -0.20311843277E+04  0.20311843277E+04  0.00000000000E+00 0. -1.
         24    2    1    2    0    0 -0.47713546117E+03  0.56255601968E+03 -0.94413902607E+02  0.74846323577E+03  0.84591410372E+02 0.  0.
        254    2    1    2    0    0  0.47713546117E+03 -0.56255601968E+03 -0.14064962326E+04  0.18129952844E+04  0.87440992976E+03 0.  0.
         23    2    4    4    0    0  0.63483212639E+02 -0.86846029583E+02  0.10437063945E+03  0.17334178412E+03  0.87073489668E+02 0.  0.
         23    2    4    4    0    0  0.41365224853E+03 -0.47570999010E+03 -0.15108668721E+04  0.16396535003E+04  0.91305632066E+02 0.  0.
          2    1    3    3  502    0 -0.23901307268E+02  0.64545632479E+02 -0.14744369248E+02  0.70390394130E+02  0.00000000000E+00 0. -1.
         -1    1    3    3    0  502 -0.45323415390E+03  0.49801038720E+03 -0.79669533358E+02  0.67807284164E+03  0.00000000000E+00 0.  1.
         13    1    5    5    0    0  0.85511658236E+02 -0.69838480469E+02  0.86647115434E+02  0.14034735360E+03  0.00000000000E+00 0. -1.
        -13    1    5    5    0    0 -0.22028445597E+02 -0.17007549113E+02  0.17723524012E+02  0.32994430525E+02  0.00000000000E+00 0.  1.
          2    1    6    6  503    0  0.65467303765E+02 -0.13256652661E+03 -0.37150865332E+03  0.39984813533E+03  0.00000000000E+00 0. -1.
         -2    1    6    6    0  503  0.34818494477E+03 -0.34314346349E+03 -0.11393582187E+04  0.12398053649E+04  0.00000000000E+00 0.  1.
<mgrwt>
<rscale>  0 0.20756538E+04</rscale>
<asrwt>0</asrwt>
<pdfrwt beam="1">  1        2 0.31248989E+00 0.20756538E+04</pdfrwt>
<pdfrwt beam="2">  1       -1 0.81580646E-01 0.20756538E+04</pdfrwt>
<totfact> 0.10093983E+01</totfact>
</mgrwt>
</event>
<event>
12    7  0.1637954E-007  0.1354940E+04  0.7818608E-02  0.8987097E-01
          2   -1    0    0  501    0  0.00000000000E+00  0.00000000000E+00  0.11089497150E+04  0.11089497150E+04  0.00000000000E+00 0. -1.
         -1   -1    0    0    0  501 -0.00000000000E+00 -0.00000000000E+00 -0.41387407955E+03  0.41387407955E+03  0.00000000000E+00 0.  1.
         24    2    1    2    0    0 -0.80967644530E+02  0.28115007505E+03 -0.61297638057E+02  0.30963744184E+03  0.80726828245E+02 0.  0.
        254    2    1    2    0    0  0.80967644530E+02 -0.28115007505E+03  0.75637327350E+03  0.12131863527E+04  0.90228569386E+03 0.  0.
         23    2    4    4    0    0 -0.16583903884E+03 -0.53114647491E+03  0.58226402060E+03  0.81080707742E+03  0.93581849194E+02 0.  0.
         23    2    4    4    0    0  0.24680668337E+03  0.24999639986E+03  0.17410925291E+03  0.40237927528E+03  0.90461651125E+02 0.  0.
          4    1    3    3  502    0 -0.65405127429E+02  0.98221532099E+02 -0.41019612777E+02  0.12493161607E+03  0.00000000000E+00 0. -1.
         -3    1    3    3    0  502 -0.15562517101E+02  0.18292854295E+03 -0.20278025280E+02  0.18470582577E+03  0.00000000000E+00 0.  1.
         13    1    5    5    0    0 -0.16511748564E+03 -0.47125114311E+03  0.48204972930E+03  0.69405573657E+03  0.00000000000E+00 0. -1.
        -13    1    5    5    0    0 -0.72155320406E+00 -0.59895331802E+02  0.10021429129E+03  0.11675134085E+03  0.00000000000E+00 0.  1.
          4    1    6    6  503    0  0.23098242667E+03  0.23138370635E+03  0.18497433511E+03  0.37564185821E+03  0.00000000000E+00 0. -1.
         -4    1    6    6    0  503  0.15824256707E+02  0.18612693518E+02 -0.10865082201E+02  0.26737417070E+02  0.00000000000E+00 0.  1.
<mgrwt>
<rscale>  0 0.13549399E+04</rscale>
<asrwt>0</asrwt>
<pdfrwt beam="1">  1        2 0.17060765E+00 0.13549399E+04</pdfrwt>
<pdfrwt beam="2">  1       -1 0.63672936E-01 0.13549399E+04</pdfrwt>
<totfact> 0.59925343E+01</totfact>
</mgrwt>
</event>
<event>
12    7  0.1637954E-007  0.1860935E+04  0.7818608E-02  0.8674550E-01
         -1   -1    0    0    0  501 -0.00000000000E+00  0.00000000000E+00  0.39367145436E+03  0.39367145436E+03  0.00000000000E+00 0.  1.
          2   -1    0    0  501    0  0.00000000000E+00 -0.00000000000E+00 -0.21992188106E+04  0.21992188106E+04  0.00000000000E+00 0. -1.
         24    2    1    2    0    0  0.40488774225E+03  0.49966635591E+03 -0.25783788694E+03  0.69783704098E+03  0.83039802329E+02 0.  0.
        254    2    1    2    0    0 -0.40488774225E+03 -0.49966635591E+03 -0.15477094693E+04  0.18950532240E+04  0.88443290834E+03 0.  0.
         23    2    4    4    0    0 -0.17329930387E+03  0.24130064416E+03 -0.47726620129E+03  0.56953658349E+03  0.91270167318E+02 0.  0.
         23    2    4    4    0    0 -0.23158843838E+03 -0.74096700007E+03 -0.10704432680E+04  0.13255166405E+04  0.92088404480E+02 0.  0.
          4    1    3    3  502    0  0.26398599335E+03  0.28287709938E+03 -0.18707372970E+03  0.42977277529E+03  0.00000000000E+00 0. -1.
         -3    1    3    3    0  502  0.14090174890E+03  0.21678925653E+03 -0.70764157245E+02  0.26806426569E+03  0.00000000000E+00 0.  1.
         13    1    5    5    0    0 -0.85688109168E+02  0.11239215093E+03 -0.14475401017E+03  0.20230712075E+03  0.00000000000E+00 0. -1.
        -13    1    5    5    0    0 -0.87611194701E+02  0.12890849324E+03 -0.33251219112E+03  0.36722946274E+03  0.00000000000E+00 0.  1.
          4    1    6    6  503    0 -0.16657896236E+03 -0.56372969740E+03 -0.87191921284E+03  0.10515620933E+04  0.00000000000E+00 0.  1.
         -4    1    6    6    0  503 -0.65009476012E+02 -0.17723730268E+03 -0.19852405517E+03  0.27395454717E+03  0.00000000000E+00 0. -1.
<mgrwt>
<rscale>  0 0.18609349E+04</rscale>
<asrwt>0</asrwt>
<pdfrwt beam="1">  1        2 0.33834135E+00 0.18609349E+04</pdfrwt>
<pdfrwt beam="2">  1       -1 0.60564840E-01 0.18609349E+04</pdfrwt>
<totfact> 0.15290120E+01</totfact>
</mgrwt>
</event>
<event>
12    7  0.1637954E-007  0.1654278E+04  0.7818608E-02  0.8787880E-01
         -1   -1    0    0    0  501 -0.00000000000E+00  0.00000000000E+00  0.85560272267E+03  0.85560272267E+03  0.00000000000E+00 0.  1.
          2   -1    0    0  501    0  0.00000000000E+00 -0.00000000000E+00 -0.79962219396E+03  0.79962219396E+03  0.00000000000E+00 0. -1.
         24    2    1    2    0    0  0.27074464417E+03  0.50964273540E+03  0.22911089671E+02  0.58270331739E+03  0.77329541464E+02 0.  0.
        254    2    1    2    0    0 -0.27074464417E+03 -0.50964273540E+03  0.33069439039E+02  0.10725215992E+04  0.90342161417E+03 0.  0.
         23    2    4    4    0    0  0.22654361132E+03 -0.48008337812E+03  0.13596585829E+03  0.55529496417E+03  0.89798245221E+02 0.  0.
         23    2    4    4    0    0 -0.49728825548E+03 -0.29559357280E+02 -0.10289641925E+03  0.51722663507E+03  0.93628811175E+02 0.  0.
          2    1    3    3  502    0  0.58858675822E+01  0.50433534808E+02 -0.92535993601E+01  0.51612149457E+02  0.00000000000E+00 0. -1.
         -1    1    3    3    0  502  0.26485877658E+03  0.45920920059E+03  0.32164689031E+02  0.53109116793E+03  0.00000000000E+00 0.  1.
         13    1    5    5    0    0  0.57574740358E+02 -0.22181315913E+03  0.70875517659E+02  0.23987344016E+03  0.00000000000E+00 0. -1.
        -13    1    5    5    0    0  0.16896887096E+03 -0.25827021899E+03  0.65090340633E+02  0.31542152402E+03  0.00000000000E+00 0.  1.
          4    1    6    6  503    0 -0.45336088649E+03  0.10142865086E+01 -0.92837139580E+02  0.46276976636E+03  0.00000000000E+00 0. -1.
         -4    1    6    6    0  503 -0.43927368994E+02 -0.30573643788E+02 -0.10059279673E+02  0.54456868701E+02  0.00000000000E+00 0.  1.
<mgrwt>
<rscale>  0 0.16542780E+04</rscale>
<asrwt>0</asrwt>
<pdfrwt beam="1">  1        2 0.12301880E+00 0.16542780E+04</pdfrwt>
<pdfrwt beam="2">  1       -1 0.13163119E+00 0.16542780E+04</pdfrwt>
<totfact> 0.18466839E+01</totfact>
</mgrwt>
</event>
<event>
12    7  0.2870368E-007  0.1769155E+04  0.7818608E-02  0.8722877E-01
          2   -1    0    0  501    0  0.00000000000E+00  0.00000000000E+00  0.14606823285E+04  0.14606823285E+04  0.00000000000E+00 0. -1.
         -1   -1    0    0    0  501 -0.00000000000E+00 -0.00000000000E+00 -0.53569288078E+03  0.53569288078E+03  0.00000000000E+00 0.  1.
         24    2    1    2    0    0 -0.21558497466E+03 -0.26281794165E+03  0.97145057455E+03  0.10324827016E+04  0.82183687836E+02 0.  0.
        254    2    1    2    0    0  0.21558497466E+03  0.26281794165E+03 -0.46461126778E+02  0.96389250773E+03  0.90076632841E+03 0.  0.
         23    2    4    4    0    0 -0.18250620166E+03  0.25202259109E+03 -0.33289020890E+03  0.46468680531E+03  0.91071597033E+02 0.  0.
         23    2    4    4    0    0  0.39809117632E+03  0.10795350566E+02  0.28642908212E+03  0.49920570242E+03  0.92582881697E+02 0.  0.
          2    1    3    3  502    0 -0.21664293174E+03 -0.22951227216E+03  0.85647539625E+03  0.91277606637E+03  0.00000000000E+00 0. -1.
         -1    1    3    3    0  502  0.10579570769E+01 -0.33305669497E+02  0.11497517829E+03  0.11970663523E+03  0.00000000000E+00 0.  1.
         13    1    5    5    0    0  0.83481744836E+01  0.74748919563E+01 -0.24811767591E+01  0.11477032067E+02  0.00000000000E+00 0. -1.
        -13    1    5    5    0    0 -0.19085437614E+03  0.24454769913E+03 -0.33040903214E+03  0.45320977324E+03  0.00000000000E+00 0.  1.
          2    1    6    6  503    0  0.62336574078E+02  0.33659606585E+02  0.34347973512E+02  0.78731193740E+02  0.00000000000E+00 0. -1.
         -2    1    6    6    0  503  0.33575460224E+03 -0.22864256019E+02  0.25208110861E+03  0.42047450868E+03  0.00000000000E+00 0.  1.
<mgrwt>
<rscale>  0 0.17691547E+04</rscale>
<asrwt>0</asrwt>
<pdfrwt beam="1">  1        2 0.22472036E+00 0.17691547E+04</pdfrwt>
<pdfrwt beam="2">  1       -1 0.82414290E-01 0.17691547E+04</pdfrwt>
<totfact> 0.21092008E+01</totfact>
</mgrwt>
</event>
<event>
12    7  0.1637954E-007  0.2890590E+04  0.7818608E-02  0.8275683E-01
         -1   -1    0    0    0  501 -0.00000000000E+00  0.00000000000E+00  0.15612723758E+04  0.15612723758E+04  0.00000000000E+00 0.  1.
          2   -1    0    0  501    0  0.00000000000E+00 -0.00000000000E+00 -0.13379328751E+04  0.13379328751E+04  0.00000000000E+00 0. -1.
         24    2    1    2    0    0 -0.28041267892E+03  0.58987624535E+03 -0.10298191116E+04  0.12219264567E+04  0.77405475513E+02 0.  0.
        254    2    1    2    0    0  0.28041267892E+03 -0.58987624535E+03  0.12531586123E+04  0.16772787942E+04  0.90347794127E+03 0.  0.
         23    2    4    4    0    0  0.30992820052E+03 -0.53893409711E+03  0.26389517076E+03  0.68205012964E+03  0.95111869300E+02 0.  0.
         23    2    4    4    0    0 -0.29515521594E+02 -0.50942148246E+02  0.98926344158E+03  0.99522866454E+03  0.91496827184E+02 0.  0.
          4    1    3    3  502    0 -0.23864049556E+03  0.46764576644E+03 -0.87355494686E+03  0.10191859959E+04  0.00000000000E+00 0. -1.
         -3    1    3    3    0  502 -0.41772183363E+02  0.12223047891E+03 -0.15626416478E+03  0.20274046086E+03  0.00000000000E+00 0.  1.
         13    1    5    5    0    0  0.14575664922E+03 -0.34605120692E+03  0.16472657433E+03  0.41003814809E+03  0.00000000000E+00 0. -1.
        -13    1    5    5    0    0  0.16417155130E+03 -0.19288289019E+03  0.99168596437E+02  0.27201198154E+03  0.00000000000E+00 0.  1.
          1    1    6    6  503    0  0.32232296270E+02 -0.75455078941E+01  0.33196576901E+03  0.33361224109E+03  0.00000000000E+00 0. -1.
         -1    1    6    6    0  503 -0.61747817863E+02 -0.43396640352E+02  0.65729767258E+03  0.66161642345E+03  0.00000000000E+00 0.  1.
<mgrwt>
<rscale>  0 0.28905900E+04</rscale>
<asrwt>0</asrwt>
<pdfrwt beam="1">  1        2 0.20583583E+00 0.28905900E+04</pdfrwt>
<pdfrwt beam="2">  1       -1 0.24019575E+00 0.28905900E+04</pdfrwt>
<totfact> 0.12495660E+00</totfact>
</mgrwt>
</event>
<event>
12    7  0.1637954E-007  0.1789867E+04  0.7818608E-02  0.8711706E-01
          2   -1    0    0  501    0  0.00000000000E+00  0.00000000000E+00  0.20964349581E+04  0.20964349581E+04  0.00000000000E+00 0. -1.
         -1   -1    0    0    0  501 -0.00000000000E+00 -0.00000000000E+00 -0.38203253701E+03  0.38203253701E+03  0.00000000000E+00 0.  1.
         24    2    1    2    0    0  0.39886484435E+03  0.34484056890E+03  0.66379776127E+02  0.53760611937E+03  0.81276582633E+02 0.  0.
        254    2    1    2    0    0 -0.39886484435E+03 -0.34484056890E+03  0.16480226449E+04  0.19408613757E+04  0.87917919646E+03 0.  0.
         23    2    4    4    0    0 -0.16114200225E+03 -0.34232292396E+03  0.14326005973E+03  0.41465458313E+03  0.90902417099E+02 0.  0.
         23    2    4    4    0    0 -0.23772284211E+03 -0.25176449323E+01  0.15047625852E+04  0.15262067926E+04  0.92077400594E+02 0.  0.
          2    1    3    3  502    0  0.33176575401E+03  0.27187601222E+03  0.23428859756E+02  0.42957419968E+03  0.00000000000E+00 0. -1.
         -1    1    3    3    0  502  0.67099090343E+02  0.72964556673E+02  0.42950916371E+02  0.10803191969E+03  0.00000000000E+00 0.  1.
         13    1    5    5    0    0 -0.57472381606E+02 -0.14943788233E+03  0.10730964318E+03  0.19274365058E+03  0.00000000000E+00 0. -1.
        -13    1    5    5    0    0 -0.10366962064E+03 -0.19288504164E+03  0.35950416550E+02  0.22191093254E+03  0.00000000000E+00 0.  1.
          1    1    6    6  503    0 -0.27742185133E+02  0.10802162080E+02  0.69554271575E+02  0.75657863014E+02  0.00000000000E+00 0. -1.
         -1    1    6    6    0  503 -0.20998065697E+03 -0.13319807012E+02  0.14352083136E+04  0.14505489296E+04  0.00000000000E+00 0.  1.
<mgrwt>
<rscale>  0 0.17898674E+04</rscale>
<asrwt>0</asrwt>
<pdfrwt beam="1">  1        2 0.32252845E+00 0.17898674E+04</pdfrwt>
<pdfrwt beam="2">  1       -1 0.58774238E-01 0.17898674E+04</pdfrwt>
<totfact> 0.18636672E+01</totfact>
</mgrwt>
</event>
<event>
12    7  0.1637954E-007  0.2980030E+04  0.7818608E-02  0.8249456E-01
          2   -1    0    0  501    0  0.00000000000E+00  0.00000000000E+00  0.15907116595E+04  0.15907116595E+04  0.00000000000E+00 0. -1.
         -1   -1    0    0    0  501 -0.00000000000E+00 -0.00000000000E+00 -0.13956931663E+04  0.13956931663E+04  0.00000000000E+00 0.  1.
         24    2    1    2    0    0 -0.10984125709E+04  0.94374914621E+01 -0.69331853511E+03  0.13014964205E+04  0.81259456043E+02 0.  0.
        254    2    1    2    0    0  0.10984125709E+04 -0.94374914621E+01  0.88833702832E+03  0.16849084053E+04  0.91824529186E+03 0.  0.
         23    2    4    4    0    0  0.11445738642E+04  0.23005348912E+03  0.71648989039E+03  0.13731497278E+04  0.95960791575E+02 0.  0.
         23    2    4    4    0    0 -0.46161293254E+02 -0.23949098058E+03  0.17184713793E+03  0.31175867746E+03  0.90417030383E+02 0.  0.
          2    1    3    3  502    0 -0.42090875107E+03 -0.21946078906E-01 -0.21961020219E+03  0.47475553511E+03  0.00000000000E+00 0. -1.
         -1    1    3    3    0  502 -0.67750381984E+03  0.94594375410E+01 -0.47370833292E+03  0.82674088536E+03  0.00000000000E+00 0.  1.
         13    1    5    5    0    0  0.81711510259E+03  0.15033820803E+03  0.55723954800E+03  0.10003972119E+04  0.00000000000E+00 0. -1.
        -13    1    5    5    0    0  0.32745876157E+03  0.79715281088E+02  0.15925034240E+03  0.37275251592E+03  0.00000000000E+00 0.  1.
          3    1    6    6  503    0 -0.66015468479E+02 -0.18492808728E+03  0.10312183193E+03  0.22178943114E+03  0.00000000000E+00 0. -1.
         -3    1    6    6    0  503  0.19854175225E+02 -0.54562893299E+02  0.68725306002E+02  0.89969246324E+02  0.00000000000E+00 0.  1.
<mgrwt>
<rscale>  0 0.29800305E+04</rscale>
<asrwt>0</asrwt>
<pdfrwt beam="1">  1        2 0.24472487E+00 0.29800305E+04</pdfrwt>
<pdfrwt beam="2">  1       -1 0.21472202E+00 0.29800305E+04</pdfrwt>
<totfact> 0.13157812E+00</totfact>
</mgrwt>
</event>
<event>
12    7  0.1637954E-007  0.1710547E+04  0.7818608E-02  0.8755372E-01
         -3   -1    0    0    0  501 -0.00000000000E+00  0.00000000000E+00  0.20367471462E+03  0.20367471462E+03  0.00000000000E+00 0.  1.
          2   -1    0    0  501    0  0.00000000000E+00 -0.00000000000E+00 -0.35914747606E+04  0.35914747606E+04  0.00000000000E+00 0. -1.
         24    2    1    2    0    0  0.35783545346E+03  0.57453689565E+02 -0.23266833670E+04  0.23561206174E+04  0.80633338881E+02 0.  0.
        254    2    1    2    0    0 -0.35783545346E+03 -0.57453689565E+02 -0.10611166790E+04  0.14390288578E+04  0.90193586745E+03 0.  0.
         23    2    4    4    0    0  0.17692707104E+03 -0.10967282472E+03  0.19749201160E+02  0.22847157468E+03  0.92075580568E+02 0.  0.
         23    2    4    4    0    0 -0.53476252450E+03  0.52219135159E+02 -0.10808658802E+04  0.12105572832E+04  0.92087399725E+02 0.  0.
          4    1    3    3  502    0  0.31307127904E+03  0.64687745455E+02 -0.21535091524E+04  0.21771081277E+04  0.00000000000E+00 0. -1.
         -3    1    3    3    0  502  0.44764174418E+02 -0.72340558898E+01 -0.17317421455E+03  0.17901248968E+03  0.00000000000E+00 0.  1.
         13    1    5    5    0    0  0.18479152322E+03 -0.98480273099E+02  0.29789047243E+02  0.21150332995E+03  0.00000000000E+00 0. -1.
        -13    1    5    5    0    0 -0.78644521722E+01 -0.11192551626E+02 -0.10039846083E+02  0.16968244730E+02  0.00000000000E+00 0.  1.
          2    1    6    6  503    0 -0.49183646156E+03  0.22888662739E+02 -0.99548363411E+03  0.11105920320E+04  0.00000000000E+00 0. -1.
         -2    1    6    6    0  503 -0.42926062942E+02  0.29330472421E+02 -0.85382246081E+02  0.99965251152E+02  0.00000000000E+00 0.  1.
<mgrwt>
<rscale>  0 0.17105468E+04</rscale>
<asrwt>0</asrwt>
<pdfrwt beam="1">  1        2 0.55253454E+00 0.17105468E+04</pdfrwt>
<pdfrwt beam="2">  1       -3 0.31334574E-01 0.17105468E+04</pdfrwt>
<totfact> 0.43725816E+00</totfact>
</mgrwt>
</event>
<event>
12    7  0.1637954E-007  0.1471767E+04  0.7818608E-02  0.8903447E-01
          2   -1    0    0  501    0  0.00000000000E+00  0.00000000000E+00  0.30965282078E+04  0.30965282078E+04  0.00000000000E+00 0. -1.
         -1   -1    0    0    0  501 -0.00000000000E+00 -0.00000000000E+00 -0.17488128999E+03  0.17488128999E+03  0.00000000000E+00 0.  1.
         24    2    1    2    0    0  0.17405716581E+03  0.39219578925E+03  0.55927167246E+03  0.70872982900E+03  0.73482874388E+02 0.  0.
        254    2    1    2    0    0 -0.17405716581E+03 -0.39219578925E+03  0.23623752453E+04  0.25626796687E+04  0.89576606927E+03 0.  0.
         23    2    4    4    0    0 -0.29589614992E+02  0.20550167544E+03  0.13922695251E+04  0.14106560141E+04  0.91812175654E+02 0.  0.
         23    2    4    4    0    0 -0.14446755082E+03 -0.59769746469E+03  0.97010572021E+03  0.11520236547E+04  0.89108136528E+02 0.  0.
          2    1    3    3  502    0  0.16834005511E+02  0.14750912007E+02  0.55927177059E+02  0.60239706841E+02  0.00000000000E+00 0. -1.
         -1    1    3    3    0  502  0.15722316030E+03  0.37744487724E+03  0.50334449540E+03  0.64849012216E+03  0.00000000000E+00 0.  1.
         13    1    5    5    0    0  0.12195407195E+01  0.11668766656E+03  0.10219524539E+04  0.10285933681E+04  0.00000000000E+00 0. -1.
        -13    1    5    5    0    0 -0.30809155711E+02  0.88814008878E+02  0.37031707118E+03  0.38206264599E+03  0.00000000000E+00 0.  1.
          4    1    6    6  503    0 -0.14733590011E+03 -0.47454476637E+03  0.74696976104E+03  0.89714236699E+03  0.00000000000E+00 0. -1.
         -4    1    6    6    0  503  0.28683492899E+01 -0.12315269831E+03  0.22313595917E+03  0.25488128767E+03  0.00000000000E+00 0.  1.
<mgrwt>
<rscale>  0 0.14717674E+04</rscale>
<asrwt>0</asrwt>
<pdfrwt beam="1">  1        2 0.47638891E+00 0.14717674E+04</pdfrwt>
<pdfrwt beam="2">  1       -1 0.26904816E-01 0.14717674E+04</pdfrwt>
<totfact> 0.20766491E+01</totfact>
</mgrwt>
</event>
<event>
12    7  0.1637954E-007  0.2616954E+04  0.7818608E-02  0.8362465E-01
         -1   -1    0    0    0  501 -0.00000000000E+00  0.00000000000E+00  0.24556285389E+04  0.24556285389E+04  0.00000000000E+00 0.  1.
          2   -1    0    0  501    0  0.00000000000E+00 -0.00000000000E+00 -0.69721964676E+03  0.69721964676E+03  0.00000000000E+00 0. -1.
         24    2    1    2    0    0  0.31661166151E+03  0.60151833949E+03  0.18965546469E+04  0.20163040068E+04  0.80591950440E+02 0.  0.
        254    2    1    2    0    0 -0.31661166151E+03 -0.60151833949E+03 -0.13814575474E+03  0.11365441788E+04  0.90032281094E+03 0.  0.
         23    2    4    4    0    0 -0.46297711629E+03 -0.50855196507E+03 -0.40701535819E+03  0.80394487490E+03  0.87709456112E+02 0.  0.
         23    2    4    4    0    0  0.14636545478E+03 -0.92966374422E+02  0.26886960345E+03  0.33259930392E+03  0.90916666118E+02 0.  0.
          2    1    3    3  502    0  0.14072952342E+03  0.21877205093E+03  0.82026397700E+03  0.86052251626E+03  0.00000000000E+00 0. -1.
         -1    1    3    3    0  502  0.17588213809E+03  0.38274628857E+03  0.10762906699E+04  0.11557814906E+04  0.00000000000E+00 0.  1.
         13    1    5    5    0    0 -0.25236218297E+03 -0.31893767229E+03 -0.20155763788E+03  0.45390901245E+03  0.00000000000E+00 0.  1.
        -13    1    5    5    0    0 -0.21061493332E+03 -0.18961429278E+03 -0.20545772031E+03  0.35003586245E+03  0.00000000000E+00 0. -1.
          4    1    6    6  503    0  0.80970540025E+01 -0.15615755898E+02 -0.30866926159E+01  0.17858941377E+02  0.00000000000E+00 0. -1.
         -4    1    6    6    0  503  0.13826840078E+03 -0.77350618524E+02  0.27195629607E+03  0.31474036254E+03  0.00000000000E+00 0.  1.
<mgrwt>
<rscale>  0 0.26169543E+04</rscale>
<asrwt>0</asrwt>
<pdfrwt beam="1">  1        2 0.10726456E+00 0.26169543E+04</pdfrwt>
<pdfrwt beam="2">  1       -1 0.37778900E+00 0.26169543E+04</pdfrwt>
<totfact> 0.42015004E-01</totfact>
</mgrwt>
</event>
<event>
12    7  0.1637954E-007  0.2171592E+04  0.7818608E-02  0.8530346E-01
          2   -1    0    0  501    0  0.00000000000E+00  0.00000000000E+00  0.37447469138E+04  0.37447469138E+04  0.00000000000E+00 0. -1.
         -1   -1    0    0    0  501 -0.00000000000E+00 -0.00000000000E+00 -0.31482837950E+03  0.31482837950E+03  0.00000000000E+00 0.  1.
         24    2    1    2    0    0 -0.36077400544E+01 -0.50078806452E+03  0.32308403740E+02  0.50805906536E+03  0.79236857556E+02 0.  0.
        254    2    1    2    0    0  0.36077400544E+01  0.50078806452E+03  0.33976101306E+04  0.35515162280E+04  0.90482662243E+03 0.  0.
         23    2    4    4    0    0 -0.24298570847E+02 -0.11627547376E+03  0.69416544903E+02  0.16525299332E+03  0.91539547466E+02 0.  0.
         23    2    4    4    0    0  0.27906310901E+02  0.61706353828E+03  0.33281935857E+04  0.33862632346E+04  0.91432915576E+02 0.  0.
          2    1    3    3  502    0  0.11034044225E+02 -0.35205305837E+02 -0.15048684404E+02  0.39845032229E+02  0.00000000000E+00 0. -1.
         -1    1    3    3    0  502 -0.14641784279E+02 -0.46558275868E+03  0.47357088144E+02  0.46821403314E+03  0.00000000000E+00 0.  1.
         13    1    5    5    0    0 -0.37588412157E+02 -0.44257141976E+02 -0.80832130616E+01  0.58625264841E+02  0.00000000000E+00 0. -1.
        -13    1    5    5    0    0  0.13289841310E+02 -0.72018331788E+02  0.77499757965E+02  0.10662772848E+03  0.00000000000E+00 0.  1.
          1    1    6    6  503    0  0.65513020284E+01  0.30217223624E+03  0.18736861002E+04  0.18979068949E+04  0.00000000000E+00 0. -1.
         -1    1    6    6    0  503  0.21355008873E+02  0.31489130204E+03  0.14545074855E+04  0.14883563397E+04  0.00000000000E+00 0.  1.
<mgrwt>
<rscale>  0 0.21715917E+04</rscale>
<asrwt>0</asrwt>
<pdfrwt beam="1">  1        2 0.57611488E+00 0.21715917E+04</pdfrwt>
<pdfrwt beam="2">  1       -1 0.48435138E-01 0.21715917E+04</pdfrwt>
<totfact> 0.24164932E+00</totfact>
</mgrwt>
</event>
<event>
12    7  0.1637954E-007  0.1308311E+04  0.7818608E-02  0.9023000E-01
         -1   -1    0    0    0  501 -0.00000000000E+00  0.00000000000E+00  0.73002757949E+03  0.73002757949E+03  0.00000000000E+00 0.  1.
          2   -1    0    0  501    0  0.00000000000E+00 -0.00000000000E+00 -0.58616863289E+03  0.58616863289E+03  0.00000000000E+00 0. -1.
         24    2    1    2    0    0 -0.30821233976E+03 -0.20599880256E+02 -0.94360561071E+02  0.33298859089E+03  0.80983237321E+02 0.  0.
        254    2    1    2    0    0  0.30821233976E+03  0.20599880256E+02  0.23821950767E+03  0.98320762149E+03  0.90251287618E+03 0.  0.
         23    2    4    4    0    0  0.62022048997E+03  0.29587840341E+02  0.16337862419E+03  0.64855510190E+03  0.91554622422E+02 0.  0.
         23    2    4    4    0    0 -0.31200815020E+03 -0.89879600844E+01  0.74840883486E+02  0.33465251959E+03  0.94664047062E+02 0.  0.
          4    1    3    3  502    0 -0.15994743345E+03 -0.16342572423E+02 -0.90739665731E+02  0.18461838499E+03  0.00000000000E+00 0. -1.
         -3    1    3    3    0  502 -0.14826490631E+03 -0.42573078336E+01 -0.36208953397E+01  0.14837020589E+03  0.00000000000E+00 0.  1.
         13    1    5    5    0    0  0.22071406606E+03  0.37808152435E+02  0.94586219808E+02  0.24308580445E+03  0.00000000000E+00 0.  1.
        -13    1    5    5    0    0  0.39950642390E+03 -0.82203120943E+01  0.68792404377E+02  0.40546929745E+03  0.00000000000E+00 0. -1.
          3    1    6    6  503    0 -0.29199496999E+03 -0.21987464377E+02  0.90048004593E+02  0.30635462167E+03  0.00000000000E+00 0. -1.
         -3    1    6    6    0  503 -0.20013180212E+02  0.12999504293E+02 -0.15207121106E+02  0.28297897915E+02  0.00000000000E+00 0.  1.
<mgrwt>
<rscale>  0 0.13083108E+04</rscale>
<asrwt>0</asrwt>
<pdfrwt beam="1">  1        2 0.90179789E-01 0.13083108E+04</pdfrwt>
<pdfrwt beam="2">  1       -1 0.11231194E+00 0.13083108E+04</pdfrwt>
<totfact> 0.41506925E+01</totfact>
</mgrwt>
</event>
<event>
12    7  0.1637954E-007  0.2556927E+04  0.7818608E-02  0.8382981E-01
          2   -1    0    0  501    0  0.00000000000E+00  0.00000000000E+00  0.17079885017E+04  0.17079885017E+04  0.00000000000E+00 0. -1.
         -1   -1    0    0    0  501 -0.00000000000E+00 -0.00000000000E+00 -0.95695561987E+03  0.95695561987E+03  0.00000000000E+00 0.  1.
         24    2    1    2    0    0  0.47273824998E+03  0.31625924341E+03  0.13379525149E+04  0.14558935790E+04  0.77510124061E+02 0.  0.
        254    2    1    2    0    0 -0.47273824998E+03 -0.31625924341E+03 -0.58691963309E+03  0.12090505425E+04  0.89096980677E+03 0.  0.
         23    2    4    4    0    0  0.19755965655E+03 -0.31095776275E+03 -0.22232850764E+03  0.44049720994E+03  0.94251146164E+02 0.  0.
         23    2    4    4    0    0 -0.67029790653E+03 -0.53014806696E+01 -0.36459112545E+03  0.76855333256E+03  0.91761359166E+02 0.  0.
          4    1    3    3  502    0  0.25904777589E+03  0.12695302149E+03  0.66174128156E+03  0.72188942614E+03  0.00000000000E+00 0. -1.
         -3    1    3    3    0  502  0.21369047409E+03  0.18930622193E+03  0.67621123331E+03  0.73400415287E+03  0.00000000000E+00 0.  1.
         13    1    5    5    0    0  0.72336583281E+02 -0.64215735226E+02 -0.96151908490E+02  0.13638706477E+03  0.00000000000E+00 0. -1.
        -13    1    5    5    0    0  0.12522307327E+03 -0.24674202752E+03 -0.12617659915E+03  0.30411014517E+03  0.00000000000E+00 0.  1.
          1    1    6    6  503    0 -0.12187808878E+03 -0.17564678925E+02 -0.32686350552E+02  0.12740166397E+03  0.00000000000E+00 0. -1.
         -1    1    6    6    0  503 -0.54841981775E+03  0.12263198255E+02 -0.33190477490E+03  0.64115166858E+03  0.00000000000E+00 0.  1.
<mgrwt>
<rscale>  0 0.25569272E+04</rscale>
<asrwt>0</asrwt>
<pdfrwt beam="1">  1        2 0.26276746E+00 0.25569272E+04</pdfrwt>
<pdfrwt beam="2">  1       -1 0.14722394E+00 0.25569272E+04</pdfrwt>
<totfact> 0.35991159E+00</totfact>
</mgrwt>
</event>
<event>
12    7  0.1637954E-007  0.1200737E+04  0.7818608E-02  0.9112212E-01
         -1   -1    0    0    0  501 -0.00000000000E+00  0.00000000000E+00  0.21165570621E+03  0.21165570621E+03  0.00000000000E+00 0.  1.
          2   -1    0    0  501    0  0.00000000000E+00 -0.00000000000E+00 -0.17029658110E+04  0.17029658110E+04  0.00000000000E+00 0. -1.
         24    2    1    2    0    0 -0.17954004596E+03 -0.16946099529E+03 -0.35786007833E+03  0.44213871467E+03  0.80443460415E+02 0.  0.
        254    2    1    2    0    0  0.17954004596E+03  0.16946099529E+03 -0.11334500265E+04  0.14724828025E+04  0.90694265765E+03 0.  0.
         23    2    4    4    0    0  0.30806803689E+03 -0.27351148987E+03 -0.77023517412E+03  0.87837173787E+03  0.92521543380E+02 0.  0.
         23    2    4    4    0    0 -0.12852799093E+03  0.44297248515E+03 -0.36321485234E+03  0.59411106467E+03  0.91098085312E+02 0.  0.
          4    1    3    3  502    0 -0.12270215992E+03 -0.77985778793E+02 -0.25315990287E+03  0.29193755868E+03  0.00000000000E+00 0. -1.
         -3    1    3    3    0  502 -0.56837886033E+02 -0.91475216494E+02 -0.10470017546E+03  0.15020115599E+03  0.00000000000E+00 0.  1.
         13    1    5    5    0    0  0.28131068645E+03 -0.25765956848E+03 -0.64530265270E+03  0.74962635300E+03  0.00000000000E+00 0.  1.
        -13    1    5    5    0    0  0.26757350437E+02 -0.15851921388E+02 -0.12493252143E+03  0.12874538487E+03  0.00000000000E+00 0. -1.
          4    1    6    6  503    0 -0.12465005629E+03  0.27290034582E+03 -0.23408676503E+03  0.38053757876E+03  0.00000000000E+00 0.  1.
         -4    1    6    6    0  503 -0.38779346448E+01  0.17007213933E+03 -0.12912808731E+03  0.21357348591E+03  0.00000000000E+00 0. -1.
<mgrwt>
<rscale>  0 0.12007372E+04</rscale>
<asrwt>0</asrwt>
<pdfrwt beam="1">  1        2 0.26199474E+00 0.12007372E+04</pdfrwt>
<pdfrwt beam="2">  1       -1 0.32562417E-01 0.12007372E+04</pdfrwt>
<totfact> 0.96938759E+01</totfact>
</mgrwt>
</event>
<event>
12    7  0.1637954E-007  0.1456721E+04  0.7818608E-02  0.8913754E-01
         -1   -1    0    0    0  501 -0.00000000000E+00  0.00000000000E+00  0.15284221850E+03  0.15284221850E+03  0.00000000000E+00 0.  1.
          2   -1    0    0  501    0  0.00000000000E+00 -0.00000000000E+00 -0.34709593993E+04  0.34709593993E+04  0.00000000000E+00 0. -1.
         24    2    1    2    0    0 -0.83458044515E+02 -0.12701709825E+03 -0.20704925541E+04  0.20776016799E+04  0.79942075572E+02 0.  0.
        254    2    1    2    0    0  0.83458044515E+02  0.12701709825E+03 -0.12476246268E+04  0.15461999379E+04  0.90059338788E+03 0.  0.
         23    2    4    4    0    0  0.39509328022E+03  0.33377475337E+03 -0.76419004042E+03  0.92839802118E+03  0.10213805266E+03 0.  0.
         23    2    4    4    0    0 -0.31163523570E+03 -0.20675765512E+03 -0.48343458633E+03  0.61780191673E+03  0.90027556729E+02 0.  0.
          4    1    3    3  502    0 -0.42395107397E+02 -0.29564277054E+02 -0.11301880812E+04  0.11313692989E+04  0.00000000000E+00 0. -1.
         -3    1    3    3    0  502 -0.41062937118E+02 -0.97452821194E+02 -0.94030447291E+03  0.94623238104E+03  0.00000000000E+00 0.  1.
         13    1    5    5    0    0 -0.56068927157E+01  0.12107443631E+02 -0.18256709281E+02  0.22612714808E+02  0.00000000000E+00 0. -1.
        -13    1    5    5    0    0  0.40070017294E+03  0.32166730974E+03 -0.74593333114E+03  0.90578530638E+03  0.00000000000E+00 0.  1.
          1    1    6    6  503    0 -0.21747105834E+03 -0.14076359000E+03 -0.39660885998E+03  0.47371577692E+03  0.00000000000E+00 0. -1.
         -1    1    6    6    0  503 -0.94164177367E+02 -0.65994065118E+02 -0.86825726351E+02  0.14408613981E+03  0.00000000000E+00 0.  1.
<mgrwt>
<rscale>  0 0.14567212E+04</rscale>
<asrwt>0</asrwt>
<pdfrwt beam="1">  1        2 0.53399374E+00 0.14567212E+04</pdfrwt>
<pdfrwt beam="2">  1       -1 0.23514188E-01 0.14567212E+04</pdfrwt>
<totfact> 0.14847169E+01</totfact>
</mgrwt>
</event>
<event>
12    7  0.1637954E-007  0.2473858E+04  0.7818608E-02  0.8412359E-01
          2   -1    0    0  501    0  0.00000000000E+00  0.00000000000E+00  0.11627127554E+04  0.11627127554E+04  0.00000000000E+00 0. -1.
         -1   -1    0    0    0  501 -0.00000000000E+00 -0.00000000000E+00 -0.13158820146E+04  0.13158820146E+04  0.00000000000E+00 0.  1.
         24    2    1    2    0    0 -0.18354464230E+03  0.67594023455E+03  0.74655681076E+03  0.10266880130E+04  0.78468897967E+02 0.  0.
        254    2    1    2    0    0  0.18354464230E+03 -0.67594023455E+03 -0.89972607000E+03  0.14519067570E+04  0.89885615838E+03 0.  0.
         23    2    4    4    0    0  0.43638832237E+03 -0.69845607360E+03 -0.82224882357E+03  0.11671650422E+04  0.88912615797E+02 0.  0.
         23    2    4    4    0    0 -0.25284368006E+03  0.22515839047E+02 -0.77477246421E+02  0.28474171474E+03  0.10314179969E+03 0.  0.
          4    1    3    3  502    0 -0.18037889220E+03  0.57395599858E+03  0.61693446016E+03  0.86172510767E+03  0.00000000000E+00 0. -1.
         -3    1    3    3    0  502 -0.31657501000E+01  0.10198423597E+03  0.12962235060E+03  0.16496290533E+03  0.00000000000E+00 0.  1.
         13    1    5    5    0    0  0.10931574544E+03 -0.14028786315E+03 -0.13468912899E+03  0.22309589467E+03  0.00000000000E+00 0.  1.
        -13    1    5    5    0    0  0.32707257692E+03 -0.55816821045E+03 -0.68755969458E+03  0.94406914755E+03  0.00000000000E+00 0. -1.
          1    1    6    6  503    0 -0.17161746107E+03 -0.19663566495E+02 -0.13893671417E+02  0.17329813298E+03  0.00000000000E+00 0. -1.
         -1    1    6    6    0  503 -0.81226218999E+02  0.42179405543E+02 -0.63583575004E+02  0.11144358176E+03  0.00000000000E+00 0.  1.
<mgrwt>
<rscale>  0 0.24738576E+04</rscale>
<asrwt>0</asrwt>
<pdfrwt beam="1">  1        2 0.17887889E+00 0.24738576E+04</pdfrwt>
<pdfrwt beam="2">  1       -1 0.20244339E+00 0.24738576E+04</pdfrwt>
<totfact> 0.29418402E+00</totfact>
</mgrwt>
</event>
<event>
12    7  0.1637954E-007  0.1819055E+04  0.7818608E-02  0.8696231E-01
          2   -1    0    0  501    0  0.00000000000E+00  0.00000000000E+00  0.83345209465E+03  0.83345209465E+03  0.00000000000E+00 0. -1.
         -1   -1    0    0    0  501 -0.00000000000E+00 -0.00000000000E+00 -0.99254733824E+03  0.99254733824E+03  0.00000000000E+00 0.  1.
         24    2    1    2    0    0 -0.47666099661E+03  0.34865933724E+03  0.29428661778E+03  0.66464550330E+03  0.79874855413E+02 0.  0.
        254    2    1    2    0    0  0.47666099661E+03 -0.34865933724E+03 -0.45338186136E+03  0.11613539296E+04  0.89130174375E+03 0.  0.
         23    2    4    4    0    0 -0.43870345625E+02 -0.47332638590E+03 -0.57016098758E+02  0.48740958294E+03  0.91404546983E+02 0.  0.
         23    2    4    4    0    0  0.52053134224E+03  0.12466704866E+03 -0.39636576261E+03  0.67394434665E+03  0.10295830875E+03 0.  0.
          4    1    3    3  502    0 -0.42276564619E+03  0.32163524960E+03  0.23771563796E+03  0.58196971563E+03  0.00000000000E+00 0. -1.
         -3    1    3    3    0  502 -0.53895350425E+02  0.27024087636E+02  0.56570979816E+02  0.82675787672E+02  0.00000000000E+00 0.  1.
         13    1    5    5    0    0 -0.32344377880E+01  0.31508557416E+01  0.30442288336E+01  0.54458065427E+01  0.00000000000E+00 0.  1.
        -13    1    5    5    0    0 -0.40635907837E+02 -0.47647724164E+03 -0.60060327591E+02  0.48196377640E+03  0.00000000000E+00 0. -1.
          3    1    6    6  503    0  0.45196448104E+03  0.78078538945E+02 -0.36157971448E+03  0.58404455335E+03  0.00000000000E+00 0. -1.
         -3    1    6    6    0  503  0.68566861192E+02  0.46588509716E+02 -0.34786048121E+02  0.89899793299E+02  0.00000000000E+00 0.  1.
<mgrwt>
<rscale>  0 0.18190554E+04</rscale>
<asrwt>0</asrwt>
<pdfrwt beam="1">  1        2 0.12822340E+00 0.18190554E+04</pdfrwt>
<pdfrwt beam="2">  1       -1 0.15269959E+00 0.18190554E+04</pdfrwt>
<totfact> 0.11660294E+01</totfact>
</mgrwt>
</event>
<event>
12    7  0.1637954E-007  0.1752698E+04  0.7818608E-02  0.8731867E-01
         -1   -1    0    0    0  501 -0.00000000000E+00  0.00000000000E+00  0.10765747102E+04  0.10765747102E+04  0.00000000000E+00 0.  1.
          2   -1    0    0  501    0  0.00000000000E+00 -0.00000000000E+00 -0.71336191186E+03  0.71336191186E+03  0.00000000000E+00 0. -1.
         24    2    1    2    0    0  0.44911216011E+02  0.58113658380E+03  0.41864711507E+03  0.72202241453E+03  0.79462027265E+02 0.  0.
        254    2    1    2    0    0 -0.44911216011E+02 -0.58113658380E+03 -0.55434316727E+02  0.10679142075E+04  0.89310192297E+03 0.  0.
         23    2    4    4    0    0 -0.12287648415E+03 -0.79182300132E+03 -0.12716964638E+03  0.81635548435E+03  0.90453646145E+02 0.  0.
         23    2    4    4    0    0  0.77965268135E+02  0.21068641751E+03  0.71735329654E+02  0.25155872317E+03  0.87569881378E+02 0.  0.
          4    1    3    3  502    0 -0.34136640052E+01  0.23801702881E+03  0.13116571859E+03  0.27178705790E+03  0.00000000000E+00 0. -1.
         -3    1    3    3    0  502  0.48324880017E+02  0.34311955499E+03  0.28748139648E+03  0.45023535664E+03  0.00000000000E+00 0.  1.
         13    1    5    5    0    0 -0.25829827896E+02 -0.43804028498E+03 -0.86625608217E+02  0.44727001607E+03  0.00000000000E+00 0. -1.
        -13    1    5    5    0    0 -0.97046656251E+02 -0.35378271634E+03 -0.40544038164E+02  0.36908546828E+03  0.00000000000E+00 0.  1.
          2    1    6    6  503    0  0.85762654702E+02  0.10828060330E+03  0.35122543903E+02  0.14252548924E+03  0.00000000000E+00 0.  1.
         -2    1    6    6    0  503 -0.77973865667E+01  0.10240581421E+03  0.36612785751E+02  0.10903323394E+03  0.00000000000E+00 0. -1.
<mgrwt>
<rscale>  0 0.17526978E+04</rscale>
<asrwt>0</asrwt>
<pdfrwt beam="1">  1        2 0.10974799E+00 0.17526978E+04</pdfrwt>
<pdfrwt beam="2">  1       -1 0.16562688E+00 0.17526978E+04</pdfrwt>
<totfact> 0.11474064E+01</totfact>
</mgrwt>
</event>
<event>
12    7  0.1637954E-007  0.1752525E+04  0.7818608E-02  0.8731962E-01
          2   -1    0    0  501    0  0.00000000000E+00  0.00000000000E+00  0.10595218902E+04  0.10595218902E+04  0.00000000000E+00 0. -1.
         -1   -1    0    0    0  501 -0.00000000000E+00 -0.00000000000E+00 -0.72470050427E+03  0.72470050427E+03  0.00000000000E+00 0.  1.
         24    2    1    2    0    0  0.37688152735E+03  0.42615260686E+03 -0.18309089791E+03  0.60299213425E+03  0.80196677440E+02 0.  0.
        254    2    1    2    0    0 -0.37688152735E+03 -0.42615260686E+03  0.51791228381E+03  0.11812302602E+04  0.89634037277E+03 0.  0.
         23    2    4    4    0    0 -0.65339690446E+03 -0.19060402570E+03  0.34553989746E+03  0.76884286689E+03  0.92000673187E+02 0.  0.
         23    2    4    4    0    0  0.27651537711E+03 -0.23554858117E+03  0.17237238636E+03  0.41238739329E+03  0.91690973935E+02 0.  0.
          2    1    3    3  502    0  0.41911175231E+02  0.17559652599E+02 -0.64490951009E+01  0.45896392410E+02  0.00000000000E+00 0. -1.
         -1    1    3    3    0  502  0.33497035212E+03  0.40859295426E+03 -0.17664180281E+03  0.55709574184E+03  0.00000000000E+00 0.  1.
         13    1    5    5    0    0 -0.56016387673E+02 -0.36347831258E+02  0.56712774984E+02  0.87609014213E+02  0.00000000000E+00 0. -1.
        -13    1    5    5    0    0 -0.59738051679E+03 -0.15425619444E+03  0.28882712247E+03  0.68123385268E+03  0.00000000000E+00 0.  1.
          4    1    6    6  503    0  0.36818176631E+02 -0.46260763195E+01 -0.96406798955E+00  0.37120185070E+02  0.00000000000E+00 0. -1.
         -4    1    6    6    0  503  0.23969720048E+03 -0.23092250485E+03  0.17333645434E+03  0.37526720822E+03  0.00000000000E+00 0.  1.
<mgrwt>
<rscale>  0 0.17525251E+04</rscale>
<asrwt>0</asrwt>
<pdfrwt beam="1">  1        2 0.16300337E+00 0.17525251E+04</pdfrwt>
<pdfrwt beam="2">  1       -1 0.11149239E+00 0.17525251E+04</pdfrwt>
<totfact> 0.18450099E+01</totfact>
</mgrwt>
</event>
<event>
12    7  0.1637954E-007  0.1867577E+04  0.7818608E-02  0.8671166E-01
          2   -1    0    0  501    0  0.00000000000E+00  0.00000000000E+00  0.20433009124E+04  0.20433009124E+04  0.00000000000E+00 0. -1.
         -1   -1    0    0    0  501 -0.00000000000E+00 -0.00000000000E+00 -0.42674114003E+03  0.42674114003E+03  0.00000000000E+00 0.  1.
         24    2    1    2    0    0 -0.66346433282E+03  0.33618282536E+02  0.29947026341E+03  0.73354811018E+03  0.84233493540E+02 0.  0.
        254    2    1    2    0    0  0.66346433282E+03 -0.33618282536E+02  0.13170895090E+04  0.17364939422E+04  0.91617210555E+03 0.  0.
         23    2    4    4    0    0 -0.19669255497E+02 -0.25063327700E+03  0.81316926228E+03  0.85550348174E+03  0.86244066391E+02 0.  0.
         23    2    4    4    0    0  0.68313358832E+03  0.21701499447E+03  0.50392024668E+03  0.88099046051E+03  0.91878012479E+02 0.  0.
          4    1    3    3  502    0 -0.57173316042E+02  0.53556772885E-01  0.53826010347E+02  0.78524074814E+02  0.00000000000E+00 0. -1.
         -3    1    3    3    0  502 -0.60629101678E+03  0.33564725763E+02  0.24564425306E+03  0.65502403537E+03  0.00000000000E+00 0.  1.
         13    1    5    5    0    0 -0.26008158996E+02 -0.47471542691E+02  0.97367454539E+02  0.11140194300E+03  0.00000000000E+00 0. -1.
        -13    1    5    5    0    0  0.63389034988E+01 -0.20316173431E+03  0.71580180775E+03  0.74410153874E+03  0.00000000000E+00 0.  1.
          3    1    6    6  503    0  0.20647662094E+03  0.90103611402E+02  0.20255109456E+03  0.30294917344E+03  0.00000000000E+00 0. -1.
         -3    1    6    6    0  503  0.47665696738E+03  0.12691138307E+03  0.30136915213E+03  0.57804128707E+03  0.00000000000E+00 0.  1.
<mgrwt>
<rscale>  0 0.18675766E+04</rscale>
<asrwt>0</asrwt>
<pdfrwt beam="1">  1        2 0.31435398E+00 0.18675766E+04</pdfrwt>
<pdfrwt beam="2">  1       -1 0.65652484E-01 0.18675766E+04</pdfrwt>
<totfact> 0.15892610E+01</totfact>
</mgrwt>
</event>
<event>
12    7  0.1637954E-007  0.2508338E+04  0.7818608E-02  0.8400021E-01
          2   -1    0    0  501    0  0.00000000000E+00  0.00000000000E+00  0.24847789983E+04  0.24847789983E+04  0.00000000000E+00 0. -1.
         -1   -1    0    0    0  501 -0.00000000000E+00 -0.00000000000E+00 -0.63303001686E+03  0.63303001686E+03  0.00000000000E+00 0.  1.
         24    2    1    2    0    0  0.53579764497E+03  0.74761792722E+03  0.78501398770E+02  0.92645682856E+03  0.78409847131E+02 0.  0.
        254    2    1    2    0    0 -0.53579764497E+03 -0.74761792722E+03  0.17732475826E+04  0.21913521866E+04  0.90089163322E+03 0.  0.
         23    2    4    4    0    0 -0.11407569997E+03  0.90233166730E+02  0.86918565817E+03  0.88560916677E+03  0.87547690992E+02 0.  0.
         23    2    4    4    0    0 -0.42172194500E+03 -0.83785109395E+03  0.90406192447E+03  0.13057430198E+04  0.88278060507E+02 0.  0.
          4    1    3    3  502    0  0.25468713530E+03  0.35056042437E+03 -0.21826750816E+01  0.43331618028E+03  0.00000000000E+00 0. -1.
         -3    1    3    3    0  502  0.28111050967E+03  0.39705750285E+03  0.80684073851E+02  0.49314064828E+03  0.00000000000E+00 0.  1.
         13    1    5    5    0    0 -0.37463175847E+01  0.38284396423E+02  0.10646611932E+03  0.11320231653E+03  0.00000000000E+00 0. -1.
        -13    1    5    5    0    0 -0.11032938239E+03  0.51948770307E+02  0.76271953885E+03  0.77240685024E+03  0.00000000000E+00 0.  1.
          1    1    6    6  503    0 -0.15046511996E+03 -0.32030798690E+03  0.39973382234E+03  0.53387647215E+03  0.00000000000E+00 0. -1.
         -1    1    6    6    0  503 -0.27125682505E+03 -0.51754310705E+03  0.50432810213E+03  0.77186654765E+03  0.00000000000E+00 0.  1.
<mgrwt>
<rscale>  0 0.25083378E+04</rscale>
<asrwt>0</asrwt>
<pdfrwt beam="1">  1        2 0.38227369E+00 0.25083378E+04</pdfrwt>
<pdfrwt beam="2">  1       -1 0.97389234E-01 0.25083378E+04</pdfrwt>
<totfact> 0.36449934E+00</totfact>
</mgrwt>
</event>
<event>
12    7  0.1637954E-007  0.1432487E+04  0.7818608E-02  0.8930633E-01
         -1   -1    0    0    0  501 -0.00000000000E+00  0.00000000000E+00  0.57845370702E+03  0.57845370702E+03  0.00000000000E+00 0.  1.
          2   -1    0    0  501    0  0.00000000000E+00 -0.00000000000E+00 -0.88685517950E+03  0.88685517950E+03  0.00000000000E+00 0. -1.
         24    2    1    2    0    0 -0.44960376292E+00 -0.22127693547E+01 -0.52232448728E+03  0.52834468248E+03  0.79499276766E+02 0.  0.
        254    2    1    2    0    0  0.44960376292E+00  0.22127693547E+01  0.21392301480E+03  0.93696420404E+03  0.91221366186E+03 0.  0.
         23    2    4    4    0    0 -0.32392337869E+03 -0.14082734251E+02 -0.20878725083E+03  0.39642264608E+03  0.91837462680E+02 0.  0.
         23    2    4    4    0    0  0.32437298245E+03  0.16295503605E+02  0.42271026563E+03  0.54054155795E+03  0.89542347646E+02 0.  0.
          4    1    3    3  502    0 -0.19932918991E+02 -0.27905085684E+02 -0.41145272445E+03  0.41287935226E+03  0.00000000000E+00 0. -1.
         -3    1    3    3    0  502  0.19483315228E+02  0.25692316330E+02 -0.11087176283E+03  0.11546533022E+03  0.00000000000E+00 0.  1.
         13    1    5    5    0    0  0.93133710048E-01 -0.54657891752E+01 -0.21263340283E+02  0.21954798227E+02  0.00000000000E+00 0. -1.
        -13    1    5    5    0    0 -0.32401651240E+03 -0.86169450753E+01 -0.18752391055E+03  0.37446784786E+03  0.00000000000E+00 0.  1.
          4    1    6    6  503    0  0.11836111585E+03 -0.29104622869E+01  0.22557385236E+03  0.25475750706E+03  0.00000000000E+00 0. -1.
         -4    1    6    6    0  503  0.20601186660E+03  0.19205965892E+02  0.19713641327E+03  0.28578405089E+03  0.00000000000E+00 0.  1.
<mgrwt>
<rscale>  0 0.14324869E+04</rscale>
<asrwt>0</asrwt>
<pdfrwt beam="1">  1        2 0.13643926E+00 0.14324869E+04</pdfrwt>
<pdfrwt beam="2">  1       -1 0.88992878E-01 0.14324869E+04</pdfrwt>
<totfact> 0.41091832E+01</totfact>
</mgrwt>
</event>
<event>
12    7  0.1637954E-007  0.1574012E+04  0.7818608E-02  0.8836675E-01
          2   -1    0    0  501    0  0.00000000000E+00  0.00000000000E+00  0.59559830787E+03  0.59559830787E+03  0.00000000000E+00 0. -1.
         -1   -1    0    0    0  501 -0.00000000000E+00 -0.00000000000E+00 -0.10399260013E+04  0.10399260013E+04  0.00000000000E+00 0.  1.
         24    2    1    2    0    0  0.95732827988E+02 -0.25189394290E+03 -0.61704880899E+03  0.67799869340E+03  0.79483726261E+02 0.  0.
        254    2    1    2    0    0 -0.95732827988E+02  0.25189394290E+03  0.17272111560E+03  0.95752561573E+03  0.90244522725E+03 0.  0.
         23    2    4    4    0    0 -0.34853907725E+03 -0.66696196752E+01  0.38605818031E+03  0.52787201905E+03  0.89910943292E+02 0.  0.
         23    2    4    4    0    0  0.25280624926E+03  0.25856356258E+03 -0.21333706470E+03  0.42965359668E+03  0.91232638940E+02 0.  0.
          4    1    3    3  502    0  0.10689065094E+02 -0.62222694201E+02 -0.78571536155E+02  0.10079387918E+03  0.00000000000E+00 0. -1.
         -3    1    3    3    0  502  0.85043762893E+02 -0.18967124870E+03 -0.53847727284E+03  0.57720481422E+03  0.00000000000E+00 0.  1.
         13    1    5    5    0    0 -0.10186016961E+03 -0.42082008491E+02  0.13258871940E+03  0.17241275505E+03  0.00000000000E+00 0. -1.
        -13    1    5    5    0    0 -0.24667890763E+03  0.35412388816E+02  0.25346946091E+03  0.35545926400E+03  0.00000000000E+00 0.  1.
          1    1    6    6  503    0  0.86296101448E+02  0.13995384619E+03 -0.12689828482E+03  0.20769513928E+03  0.00000000000E+00 0. -1.
         -1    1    6    6    0  503  0.16651014781E+03  0.11860971638E+03 -0.86438779878E+02  0.22195845740E+03  0.00000000000E+00 0.  1.
<mgrwt>
<rscale>  0 0.15740116E+04</rscale>
<asrwt>0</asrwt>
<pdfrwt beam="1">  1        2 0.91630509E-01 0.15740116E+04</pdfrwt>
<pdfrwt beam="2">  1       -1 0.15998862E+00 0.15740116E+04</pdfrwt>
<totfact> 0.16057895E+01</totfact>
</mgrwt>
</event>
<event>
12    7  0.1637954E-007  0.3289003E+04  0.7818608E-02  0.8165699E-01
         -1   -1    0    0    0  501 -0.00000000000E+00  0.00000000000E+00  0.13573795986E+04  0.13573795986E+04  0.00000000000E+00 0.  1.
          2   -1    0    0  501    0  0.00000000000E+00 -0.00000000000E+00 -0.19923578160E+04  0.19923578160E+04  0.00000000000E+00 0. -1.
         24    2    1    2    0    0 -0.19516606235E+03  0.12392515778E+04 -0.11816781308E+04  0.17252407784E+04  0.79109251114E+02 0.  0.
        254    2    1    2    0    0  0.19516606235E+03 -0.12392515778E+04  0.54669991337E+03  0.16244966362E+04  0.87537092744E+03 0.  0.
         23    2    4    4    0    0 -0.50741828064E+02 -0.41834008369E+03 -0.20821697289E+03  0.47884063416E+03  0.91383184352E+02 0.  0.
         23    2    4    4    0    0  0.24590789042E+03 -0.82091149412E+03  0.75491688627E+03  0.11456560020E+04  0.90894433248E+02 0.  0.
          4    1    3    3  502    0 -0.15472687463E+03  0.10357384563E+04 -0.10235818517E+04  0.14643819046E+04  0.00000000000E+00 0. -1.
         -3    1    3    3    0  502 -0.40439187727E+02  0.20351312155E+03 -0.15809627905E+03  0.26085887372E+03  0.00000000000E+00 0.  1.
         13    1    5    5    0    0 -0.41594528300E+02 -0.37440359537E+03 -0.21454541757E+03  0.43351804254E+03  0.00000000000E+00 0. -1.
        -13    1    5    5    0    0 -0.91472997644E+01 -0.43936488320E+02  0.63284446713E+01  0.45322591616E+02  0.00000000000E+00 0.  1.
          3    1    6    6  503    0  0.20261851361E+03 -0.52785121268E+03  0.50422667442E+03  0.75757884341E+03  0.00000000000E+00 0. -1.
         -3    1    6    6    0  503  0.43289376806E+02 -0.29306028144E+03  0.25069021185E+03  0.38807715859E+03  0.00000000000E+00 0.  1.
<mgrwt>
<rscale>  0 0.32890034E+04</rscale>
<asrwt>0</asrwt>
<pdfrwt beam="1">  1        2 0.30651659E+00 0.32890034E+04</pdfrwt>
<pdfrwt beam="2">  1       -1 0.20882763E+00 0.32890034E+04</pdfrwt>
<totfact> 0.84006338E-01</totfact>
</mgrwt>
</event>
<event>
12    7  0.1637954E-007  0.1489352E+04  0.7818608E-02  0.8891565E-01
          2   -1    0    0  501    0  0.00000000000E+00  0.00000000000E+00  0.12449625489E+04  0.12449625489E+04  0.00000000000E+00 0. -1.
         -1   -1    0    0    0  501 -0.00000000000E+00 -0.00000000000E+00 -0.44542869433E+03  0.44542869433E+03  0.00000000000E+00 0.  1.
         24    2    1    2    0    0  0.15233445413E+03 -0.75132735478E+02  0.75047908210E+03  0.77340579593E+03  0.78018963491E+02 0.  0.
        254    2    1    2    0    0 -0.15233445413E+03  0.75132735478E+02  0.49054772425E+02  0.91698544725E+03  0.89978065434E+03 0.  0.
         23    2    4    4    0    0 -0.33039584123E+03  0.40003418921E+03 -0.26137592863E+02  0.52827846038E+03  0.95948910911E+02 0.  0.
         23    2    4    4    0    0  0.17806138711E+03 -0.32490145373E+03  0.75192365289E+02  0.38870698687E+03  0.90401424923E+02 0.  0.
          2    1    3    3  502    0  0.15971650248E+03 -0.79094598314E+02  0.72494591603E+03  0.74653325299E+03  0.00000000000E+00 0. -1.
         -1    1    3    3    0  502 -0.73820483524E+01  0.39618628366E+01  0.25533166063E+02  0.26872542943E+02  0.00000000000E+00 0.  1.
         13    1    5    5    0    0 -0.11776014100E+03  0.21281269874E+03  0.49024382256E+01  0.24327089726E+03  0.00000000000E+00 0.  1.
        -13    1    5    5    0    0 -0.21263570024E+03  0.18722149047E+03 -0.31040031089E+02  0.28500756312E+03  0.00000000000E+00 0. -1.
          3    1    6    6  503    0  0.18286774402E+02 -0.46024799509E+01  0.18298515057E+02  0.26275931820E+02  0.00000000000E+00 0. -1.
         -3    1    6    6    0  503  0.15977461270E+03 -0.32029897378E+03  0.56893850232E+02  0.36243105505E+03  0.00000000000E+00 0.  1.
<mgrwt>
<rscale>  0 0.14893516E+04</rscale>
<asrwt>0</asrwt>
<pdfrwt beam="1">  1        2 0.19153270E+00 0.14893516E+04</pdfrwt>
<pdfrwt beam="2">  1       -1 0.68527492E-01 0.14893516E+04</pdfrwt>
<totfact> 0.42317433E+01</totfact>
</mgrwt>
</event>
<event>
12    7  0.1637954E-007  0.1916731E+04  0.7818608E-02  0.8646573E-01
         -1   -1    0    0    0  501 -0.00000000000E+00  0.00000000000E+00  0.46673576713E+03  0.46673576713E+03  0.00000000000E+00 0.  1.
          2   -1    0    0  501    0  0.00000000000E+00 -0.00000000000E+00 -0.19678457107E+04  0.19678457107E+04  0.00000000000E+00 0. -1.
         24    2    1    2    0    0 -0.47277184056E+03 -0.46687238225E+03 -0.15383370611E+03  0.68668975644E+03  0.79968605935E+02 0.  0.
        254    2    1    2    0    0  0.47277184056E+03  0.46687238225E+03 -0.13472762375E+04  0.17478917214E+04  0.89358221511E+03 0.  0.
         23    2    4    4    0    0  0.43671925866E+03 -0.15964952455E+03 -0.63916342599E+03  0.79671500505E+03  0.10006614099E+03 0.  0.
         23    2    4    4    0    0  0.36052581896E+02  0.62652190679E+03 -0.70811281152E+03  0.95117671638E+03  0.97385335616E+02 0.  0.
          4    1    3    3  502    0 -0.41788509690E+03 -0.43135439850E+03 -0.15851662696E+03  0.62114578992E+03  0.00000000000E+00 0. -1.
         -3    1    3    3    0  502 -0.54886743661E+02 -0.35517983743E+02  0.46829208547E+01  0.65543966516E+02  0.00000000000E+00 0.  1.
         13    1    5    5    0    0  0.22449299847E+02  0.13544014229E+02 -0.28288860716E+02  0.38570338677E+02  0.00000000000E+00 0. -1.
        -13    1    5    5    0    0  0.41426995882E+03 -0.17319353878E+03 -0.61087456527E+03  0.75814466637E+03  0.00000000000E+00 0.  1.
          3    1    6    6  503    0 -0.12475142417E+02  0.10750452287E+02 -0.11114391868E+02  0.19867841083E+02  0.00000000000E+00 0. -1.
         -3    1    6    6    0  503  0.48527724313E+02  0.61577145450E+03 -0.69699841965E+03  0.93130887529E+03  0.00000000000E+00 0.  1.
<mgrwt>
<rscale>  0 0.19167305E+04</rscale>
<asrwt>0</asrwt>
<pdfrwt beam="1">  1        2 0.30274550E+00 0.19167305E+04</pdfrwt>
<pdfrwt beam="2">  1       -1 0.71805502E-01 0.19167305E+04</pdfrwt>
<totfact> 0.14514751E+01</totfact>
</mgrwt>
</event>
<event>
12    7  0.1637954E-007  0.1765636E+04  0.7818608E-02  0.8724790E-01
          2   -1    0    0  501    0  0.00000000000E+00  0.00000000000E+00  0.13295244909E+04  0.13295244909E+04  0.00000000000E+00 0. -1.
         -1   -1    0    0    0  501 -0.00000000000E+00 -0.00000000000E+00 -0.58620017788E+03  0.58620017788E+03  0.00000000000E+00 0.  1.
         24    2    1    2    0    0 -0.31225334173E+03 -0.44768857318E+03 -0.10046386507E+03  0.56052939887E+03  0.78568510479E+02 0.  0.
        254    2    1    2    0    0  0.31225334173E+03  0.44768857318E+03  0.84378817808E+03  0.13551952699E+04  0.90920213492E+03 0.  0.
         23    2    4    4    0    0  0.37340231568E+03 -0.37497244025E+02  0.12107618602E+02  0.38613313601E+03  0.90093682512E+02 0.  0.
         23    2    4    4    0    0 -0.61148973956E+02  0.48518581721E+03  0.83168055948E+03  0.96906213390E+03  0.90798634986E+02 0.  0.
          2    1    3    3  502    0 -0.98562556084E+02 -0.20895172634E+03 -0.44273599294E+02  0.23523510154E+03  0.00000000000E+00 0. -1.
         -1    1    3    3    0  502 -0.21369078564E+03 -0.23873684684E+03 -0.56190265771E+02  0.32529429733E+03  0.00000000000E+00 0.  1.
         13    1    5    5    0    0  0.33139045615E+03 -0.11251779055E+02 -0.10352713489E+02  0.33174299637E+03  0.00000000000E+00 0.  1.
        -13    1    5    5    0    0  0.42011859528E+02 -0.26245464970E+02  0.22460332091E+02  0.54390139641E+02  0.00000000000E+00 0. -1.
          2    1    6    6  503    0 -0.92198683449E+01  0.16724899150E+02  0.94219845175E+01  0.21295586776E+02  0.00000000000E+00 0. -1.
         -2    1    6    6    0  503 -0.51929105611E+02  0.46846091806E+03  0.82225857496E+03  0.94776654713E+03  0.00000000000E+00 0.  1.
<mgrwt>
<rscale>  0 0.17656359E+04</rscale>
<asrwt>0</asrwt>
<pdfrwt beam="1">  1        2 0.20454223E+00 0.17656359E+04</pdfrwt>
<pdfrwt beam="2">  1       -1 0.90184643E-01 0.17656359E+04</pdfrwt>
<totfact> 0.20619745E+01</totfact>
</mgrwt>
</event>
<event>
12    7  0.1637954E-007  0.3395581E+04  0.7818608E-02  0.8138992E-01
          2   -1    0    0  501    0  0.00000000000E+00  0.00000000000E+00  0.18531412109E+04  0.18531412109E+04  0.00000000000E+00 0. -1.
         -1   -1    0    0    0  501 -0.00000000000E+00 -0.00000000000E+00 -0.15554634460E+04  0.15554634460E+04  0.00000000000E+00 0.  1.
         24    2    1    2    0    0 -0.37251942633E+03  0.14232945163E+04  0.72902802221E+03  0.16438927783E+04  0.79772214760E+02 0.  0.
        254    2    1    2    0    0  0.37251942633E+03 -0.14232945163E+04 -0.43135025734E+03  0.17647118786E+04  0.87384607735E+03 0.  0.
         23    2    4    4    0    0  0.45678588452E+03 -0.90472120909E+03 -0.62959956514E+03  0.11964560532E+04  0.89093570697E+02 0.  0.
         23    2    4    4    0    0 -0.84266458191E+02 -0.51857330722E+03  0.19824930779E+03  0.56825582543E+03  0.87136583344E+02 0.  0.
          2    1    3    3  502    0 -0.25754457816E+02  0.20789507123E+03  0.10618715172E+03  0.23486030727E+03  0.00000000000E+00 0. -1.
         -1    1    3    3    0  502 -0.34676496852E+03  0.12153994451E+04  0.62284087049E+03  0.14090324710E+04  0.00000000000E+00 0.  1.
         13    1    5    5    0    0  0.41160564578E+03 -0.74293472222E+03 -0.53157716864E+03  0.10019708056E+04  0.00000000000E+00 0. -1.
        -13    1    5    5    0    0  0.45180238741E+02 -0.16178648686E+03 -0.98022396496E+02  0.19448524756E+03  0.00000000000E+00 0.  1.
          3    1    6    6  503    0 -0.88820031100E+02 -0.51260336107E+03  0.18341025582E+03  0.55162534899E+03  0.00000000000E+00 0. -1.
         -3    1    6    6    0  503  0.45535729090E+01 -0.59699461483E+01  0.14839051970E+02  0.16630476440E+02  0.00000000000E+00 0.  1.
<mgrwt>
<rscale>  0 0.33955815E+04</rscale>
<asrwt>0</asrwt>
<pdfrwt beam="1">  1        2 0.28509865E+00 0.33955815E+04</pdfrwt>
<pdfrwt beam="2">  1       -1 0.23930207E+00 0.33955815E+04</pdfrwt>
<totfact> 0.62288107E-01</totfact>
</mgrwt>
</event>
<event>
12    7  0.1637954E-007  0.1484029E+04  0.7818608E-02  0.8895143E-01
         -1   -1    0    0    0  501 -0.00000000000E+00  0.00000000000E+00  0.10834613085E+04  0.10834613085E+04  0.00000000000E+00 0.  1.
          2   -1    0    0  501    0  0.00000000000E+00 -0.00000000000E+00 -0.50817273324E+03  0.50817273324E+03  0.00000000000E+00 0. -1.
         24    2    1    2    0    0 -0.20480373221E+03  0.43971371186E+02  0.62542177433E+03  0.66441281013E+03  0.80087054159E+02 0.  0.
        254    2    1    2    0    0  0.20480373221E+03 -0.43971371186E+02 -0.50133199102E+02  0.92722123159E+03  0.90185798463E+03 0.  0.
         23    2    4    4    0    0  0.76936612626E+01 -0.24263664289E+02 -0.45629545536E+03  0.46632176376E+03  0.92749808346E+02 0.  0.
         23    2    4    4    0    0  0.19711007095E+03 -0.19707706897E+02  0.40616225625E+03  0.46089946783E+03  0.90662932119E+02 0.  0.
          2    1    3    3  502    0 -0.27657958843E+02 -0.59521870926E+01  0.18395856443E+03  0.18612131701E+03  0.00000000000E+00 0. -1.
         -1    1    3    3    0  502 -0.17714577337E+03  0.49923558278E+02  0.44146320991E+03  0.47829149312E+03  0.00000000000E+00 0.  1.
         13    1    5    5    0    0  0.45600394082E+02  0.50037956769E+01 -0.27538992174E+03  0.27918460364E+03  0.00000000000E+00 0.  1.
        -13    1    5    5    0    0 -0.37906732819E+02 -0.29267459966E+02 -0.18090553361E+03  0.18713716012E+03  0.00000000000E+00 0. -1.
          2    1    6    6  503    0  0.67665765298E+02 -0.64101736917E+01  0.58479664662E+02  0.89663913026E+02  0.00000000000E+00 0. -1.
         -2    1    6    6    0  503  0.12944430565E+03 -0.13297533205E+02  0.34768259159E+03  0.37123555480E+03  0.00000000000E+00 0.  1.
<mgrwt>
<rscale>  0 0.14840290E+04</rscale>
<asrwt>0</asrwt>
<pdfrwt beam="1">  1        2 0.78180421E-01 0.14840290E+04</pdfrwt>
<pdfrwt beam="2">  1       -1 0.16668635E+00 0.14840290E+04</pdfrwt>
<totfact> 0.17396765E+01</totfact>
</mgrwt>
</event>
<event>
12    7  0.1637954E-007  0.1911012E+04  0.7818608E-02  0.8649394E-01
          2   -1    0    0  501    0  0.00000000000E+00  0.00000000000E+00  0.10226065832E+04  0.10226065832E+04  0.00000000000E+00 0. -1.
         -1   -1    0    0    0  501 -0.00000000000E+00 -0.00000000000E+00 -0.89280851483E+03  0.89280851483E+03  0.00000000000E+00 0.  1.
         24    2    1    2    0    0 -0.54145231090E+03 -0.38608010219E+03  0.38858652277E+03  0.77456053676E+03  0.81951748876E+02 0.  0.
        254    2    1    2    0    0  0.54145231090E+03  0.38608010219E+03 -0.25878845445E+03  0.11408545612E+04  0.89013999764E+03 0.  0.
         23    2    4    4    0    0  0.21274619418E+03  0.22414938295E+03 -0.56748094113E+03  0.65276902211E+03  0.92568291893E+02 0.  0.
         23    2    4    4    0    0  0.32870611672E+03  0.16193071924E+03  0.30869248669E+03  0.48808553910E+03  0.93097653782E+02 0.  0.
          2    1    3    3  502    0 -0.43068394590E+03 -0.34310368918E+03  0.30713079790E+03  0.63050624882E+03  0.00000000000E+00 0. -1.
         -1    1    3    3    0  502 -0.11076836500E+03 -0.42976413015E+02  0.81455724870E+02  0.14405428794E+03  0.00000000000E+00 0.  1.
         13    1    5    5    0    0  0.79479765054E+02  0.15085314648E+03 -0.29993513172E+03  0.34501418536E+03  0.00000000000E+00 0.  1.
        -13    1    5    5    0    0  0.13326642913E+03  0.73296236473E+02 -0.26754580941E+03  0.30775483676E+03  0.00000000000E+00 0. -1.
          3    1    6    6  503    0  0.21534966221E+03  0.15227754043E+03  0.22759778280E+03  0.34837433468E+03  0.00000000000E+00 0. -1.
         -3    1    6    6    0  503  0.11335645451E+03  0.96531788109E+01  0.81094703892E+02  0.13971120442E+03  0.00000000000E+00 0.  1.
<mgrwt>
<rscale>  0 0.19110122E+04</rscale>
<asrwt>0</asrwt>
<pdfrwt beam="1">  1        2 0.15732409E+00 0.19110122E+04</pdfrwt>
<pdfrwt beam="2">  1       -1 0.13735516E+00 0.19110122E+04</pdfrwt>
<totfact> 0.11457304E+01</totfact>
</mgrwt>
</event>
<event>
12    7  0.1637954E-007  0.1669337E+04  0.7818608E-02  0.8779048E-01
         -1   -1    0    0    0  501 -0.00000000000E+00  0.00000000000E+00  0.63423107989E+03  0.63423107989E+03  0.00000000000E+00 0.  1.
          2   -1    0    0  501    0  0.00000000000E+00 -0.00000000000E+00 -0.10984509667E+04  0.10984509667E+04  0.00000000000E+00 0. -1.
         24    2    1    2    0    0 -0.13842343397E+02 -0.20638590671E+03  0.41000778212E+03  0.46591721266E+03  0.78649314690E+02 0.  0.
        254    2    1    2    0    0  0.13842343397E+02  0.20638590671E+03 -0.87422766889E+03  0.12667648339E+04  0.89310266733E+03 0.  0.
         23    2    4    4    0    0  0.29756589361E+03  0.13623578833E+02  0.12441929481E+02  0.31169324693E+03  0.90922030507E+02 0.  0.
         23    2    4    4    0    0 -0.28372355021E+03  0.19276232787E+03 -0.88666959837E+03  0.95507158697E+03  0.91227142754E+02 0.  0.
          4    1    3    3  502    0  0.21259723845E+02 -0.20346605448E+02  0.34217378350E+02  0.45130800928E+02  0.00000000000E+00 0. -1.
         -3    1    3    3    0  502 -0.35102067243E+02 -0.18603930126E+03  0.37579040377E+03  0.42078641173E+03  0.00000000000E+00 0.  1.
         13    1    5    5    0    0  0.19179847479E+03  0.52343357657E+02  0.80845310005E+01  0.19897698778E+03  0.00000000000E+00 0.  1.
        -13    1    5    5    0    0  0.10576741882E+03 -0.38719778823E+02  0.43573984803E+01  0.11271625915E+03  0.00000000000E+00 0. -1.
          4    1    6    6  503    0 -0.10315351062E+03  0.83613877354E+02 -0.23285844853E+03  0.26805780028E+03  0.00000000000E+00 0. -1.
         -4    1    6    6    0  503 -0.18057003959E+03  0.10914845052E+03 -0.65381114984E+03  0.68701378669E+03  0.00000000000E+00 0.  1.
<mgrwt>
<rscale>  0 0.16693373E+04</rscale>
<asrwt>0</asrwt>
<pdfrwt beam="1">  1        2 0.16899246E+00 0.16693373E+04</pdfrwt>
<pdfrwt beam="2">  1       -1 0.97574012E-01 0.16693373E+04</pdfrwt>
<totfact> 0.23948022E+01</totfact>
</mgrwt>
</event>
<event>
12    7  0.1637954E-007  0.1368659E+04  0.7818608E-02  0.8976822E-01
          2   -1    0    0  501    0  0.00000000000E+00  0.00000000000E+00  0.72839834174E+03  0.72839834174E+03  0.00000000000E+00 0. -1.
         -1   -1    0    0    0  501 -0.00000000000E+00 -0.00000000000E+00 -0.64292723099E+03  0.64292723099E+03  0.00000000000E+00 0.  1.
         24    2    1    2    0    0 -0.25836368095E+03  0.25894310703E+03 -0.10240682672E+03  0.38835187662E+03  0.80787979314E+02 0.  0.
        254    2    1    2    0    0  0.25836368095E+03 -0.25894310703E+03  0.18787793747E+03  0.98297369611E+03  0.89282464323E+03 0.  0.
         23    2    4    4    0    0  0.78289401942E+02 -0.41855647563E+03 -0.22951041486E+03  0.49273164349E+03  0.93758670110E+02 0.  0.
         23    2    4    4    0    0  0.18007427901E+03  0.15961336860E+03  0.41738835233E+03  0.49024205262E+03  0.90670061824E+02 0.  0.
          2    1    3    3  502    0 -0.21331516625E+03  0.23625473723E+03 -0.63329760141E+02  0.32454632879E+03  0.00000000000E+00 0. -1.
         -1    1    3    3    0  502 -0.45048514699E+02  0.22688369806E+02 -0.39077066574E+02  0.63805547824E+02  0.00000000000E+00 0.  1.
         13    1    5    5    0    0  0.73381301958E+02 -0.40197666558E+03 -0.23861681971E+03  0.47318922409E+03  0.00000000000E+00 0. -1.
        -13    1    5    5    0    0  0.49080999842E+01 -0.16579810051E+02  0.91064048497E+01  0.19542419402E+02  0.00000000000E+00 0.  1.
          3    1    6    6  503    0  0.11587798494E+03  0.97977092867E+02  0.17283148014E+03  0.22999551875E+03  0.00000000000E+00 0. -1.
         -3    1    6    6    0  503  0.64196294066E+02  0.61636275728E+02  0.24455687219E+03  0.26024653387E+03  0.00000000000E+00 0.  1.
<mgrwt>
<rscale>  0 0.13686594E+04</rscale>
<asrwt>0</asrwt>
<pdfrwt beam="1">  1        2 0.11206128E+00 0.13686594E+04</pdfrwt>
<pdfrwt beam="2">  1       -1 0.98911882E-01 0.13686594E+04</pdfrwt>
<totfact> 0.42418863E+01</totfact>
</mgrwt>
</event>
<event>
12    7  0.1637954E-007  0.1736357E+04  0.7818608E-02  0.8740896E-01
          2   -1    0    0  501    0  0.00000000000E+00  0.00000000000E+00  0.10636928889E+04  0.10636928889E+04  0.00000000000E+00 0. -1.
         -1   -1    0    0    0  501 -0.00000000000E+00 -0.00000000000E+00 -0.70860113551E+03  0.70860113551E+03  0.00000000000E+00 0.  1.
         24    2    1    2    0    0  0.98071235007E+02  0.61801907465E+03  0.20624451854E+03  0.66376117413E+03  0.80477022106E+02 0.  0.
        254    2    1    2    0    0 -0.98071235007E+02 -0.61801907465E+03  0.14884723488E+03  0.11085328503E+04  0.90284219944E+03 0.  0.
         23    2    4    4    0    0 -0.11982781387E+03  0.15759456936E+03 -0.15735042838E+03  0.26891110048E+03  0.91429040128E+02 0.  0.
         23    2    4    4    0    0  0.21756578866E+02 -0.77561364401E+03  0.30619766325E+03  0.83962174982E+03  0.95696396469E+02 0.  0.
          2    1    3    3  502    0  0.79217396101E+02  0.54253388571E+03  0.20670191447E+03  0.58595571030E+03  0.00000000000E+00 0. -1.
         -1    1    3    3    0  502  0.18853838907E+02  0.75485188933E+02 -0.45739592657E+00  0.77805463824E+02  0.00000000000E+00 0.  1.
         13    1    5    5    0    0  0.44213120911E+01  0.51988197468E+01 -0.38617805906E+02  0.39216204054E+02  0.00000000000E+00 0.  1.
        -13    1    5    5    0    0 -0.12424912596E+03  0.15239574961E+03 -0.11873262247E+03  0.22969489642E+03  0.00000000000E+00 0. -1.
          1    1    6    6  503    0  0.33707159128E+02 -0.59050235141E+03  0.27195674118E+03  0.65099129693E+03  0.00000000000E+00 0. -1.
         -1    1    6    6    0  503 -0.11950580262E+02 -0.18511129260E+03  0.34240922069E+02  0.18863045289E+03  0.00000000000E+00 0.  1.
<mgrwt>
<rscale>  0 0.17363571E+04</rscale>
<asrwt>0</asrwt>
<pdfrwt beam="1">  1        2 0.16364506E+00 0.17363571E+04</pdfrwt>
<pdfrwt beam="2">  1       -1 0.10901556E+00 0.17363571E+04</pdfrwt>
<totfact> 0.19366795E+01</totfact>
</mgrwt>
</event>
<event>
12    7  0.1637954E-007  0.1245131E+04  0.7818608E-02  0.9074246E-01
         -1   -1    0    0    0  501 -0.00000000000E+00  0.00000000000E+00  0.27148075652E+03  0.27148075652E+03  0.00000000000E+00 0.  1.
          2   -1    0    0  501    0  0.00000000000E+00 -0.00000000000E+00 -0.14276794646E+04  0.14276794646E+04  0.00000000000E+00 0. -1.
         24    2    1    2    0    0  0.11879116250E+03 -0.16432455535E+03 -0.51395896758E+03  0.55760217143E+03  0.75182853479E+02 0.  0.
        254    2    1    2    0    0 -0.11879116250E+03  0.16432455535E+03 -0.64223974054E+03  0.11415580497E+04  0.92172067178E+03 0.  0.
         23    2    4    4    0    0 -0.46787324725E+03 -0.10746004709E+03 -0.38364591810E+03  0.62113096107E+03  0.90368374471E+02 0.  0.
         23    2    4    4    0    0  0.34908208474E+03  0.27178460245E+03 -0.25859382244E+03  0.52042708866E+03  0.90820799345E+02 0.  0.
          2    1    3    3  502    0  0.25976430468E+02 -0.87647299409E+02 -0.27900859944E+03  0.29360283138E+03  0.00000000000E+00 0. -1.
         -1    1    3    3    0  502  0.92814732036E+02 -0.76677255942E+02 -0.23495036813E+03  0.26399934005E+03  0.00000000000E+00 0.  1.
         13    1    5    5    0    0 -0.39868622193E+03 -0.10757235102E+03 -0.36053461997E+03  0.54818585029E+03  0.00000000000E+00 0.  1.
        -13    1    5    5    0    0 -0.69187025319E+02  0.11230392873E+00 -0.23111298133E+02  0.72945110775E+02  0.00000000000E+00 0. -1.
          2    1    6    6  503    0  0.14127467560E+03  0.58093587369E+02 -0.10250059744E+03  0.18395589508E+03  0.00000000000E+00 0. -1.
         -2    1    6    6    0  503  0.20780740915E+03  0.21369101508E+03 -0.15609322500E+03  0.33647119358E+03  0.00000000000E+00 0.  1.
<mgrwt>
<rscale>  0 0.12451305E+04</rscale>
<asrwt>0</asrwt>
<pdfrwt beam="1">  1        2 0.21964300E+00 0.12451305E+04</pdfrwt>
<pdfrwt beam="2">  1       -1 0.41766270E-01 0.12451305E+04</pdfrwt>
<totfact> 0.87958639E+01</totfact>
</mgrwt>
</event>
<event>
12    7  0.1637954E-007  0.1915806E+04  0.7818608E-02  0.8647029E-01
         -1   -1    0    0    0  501 -0.00000000000E+00  0.00000000000E+00  0.11615429717E+04  0.11615429717E+04  0.00000000000E+00 0.  1.
          2   -1    0    0  501    0  0.00000000000E+00 -0.00000000000E+00 -0.78996467851E+03  0.78996467851E+03  0.00000000000E+00 0. -1.
         24    2    1    2    0    0  0.40468282030E+03 -0.20295471888E+03 -0.45881878801E+03  0.64953301514E+03  0.80122746879E+02 0.  0.
        254    2    1    2    0    0 -0.40468282030E+03  0.20295471888E+03  0.83039708119E+03  0.13019746351E+04  0.89477362218E+03 0.  0.
         23    2    4    4    0    0 -0.31020717572E+03  0.25859996140E+03 -0.42568158961E+02  0.41741950483E+03  0.96563776572E+02 0.  0.
         23    2    4    4    0    0 -0.94475644576E+02 -0.55645242518E+02  0.87296524015E+03  0.88455513024E+03  0.91364257168E+02 0.  0.
          2    1    3    3  502    0  0.32404322675E+03 -0.17405518175E+03 -0.41047762643E+03  0.55117247835E+03  0.00000000000E+00 0. -1.
         -1    1    3    3    0  502  0.80639593546E+02 -0.28899537138E+02 -0.48341161577E+02  0.98360536785E+02  0.00000000000E+00 0.  1.
         13    1    5    5    0    0  0.63794456498E+01 -0.12113398807E+00 -0.37563550844E+00  0.63916431594E+01  0.00000000000E+00 0. -1.
        -13    1    5    5    0    0 -0.31658662137E+03  0.25872109539E+03 -0.42192523452E+02  0.41102786167E+03  0.00000000000E+00 0.  1.
          1    1    6    6  503    0 -0.24412287826E+02  0.23413523486E+02  0.14066064996E+03  0.14467056136E+03  0.00000000000E+00 0. -1.
         -1    1    6    6    0  503 -0.70063356750E+02 -0.79058766004E+02  0.73230459020E+03  0.73988456888E+03  0.00000000000E+00 0.  1.
<mgrwt>
<rscale>  0 0.19158058E+04</rscale>
<asrwt>0</asrwt>
<pdfrwt beam="1">  1        2 0.12153303E+00 0.19158058E+04</pdfrwt>
<pdfrwt beam="2">  1       -1 0.17869892E+00 0.19158058E+04</pdfrwt>
<totfact> 0.79523059E+00</totfact>
</mgrwt>
</event>
<event>
12    7  0.1637954E-007  0.2061809E+04  0.7818608E-02  0.8578256E-01
         -1   -1    0    0    0  501 -0.00000000000E+00  0.00000000000E+00  0.20513751986E+04  0.20513751986E+04  0.00000000000E+00 0.  1.
          2   -1    0    0  501    0  0.00000000000E+00 -0.00000000000E+00 -0.51807397382E+03  0.51807397382E+03  0.00000000000E+00 0. -1.
         24    2    1    2    0    0 -0.75826466984E+03 -0.26647381529E+03  0.90412674419E+03  0.12123547829E+04  0.79908362188E+02 0.  0.
        254    2    1    2    0    0  0.75826466984E+03  0.26647381529E+03  0.62917448060E+03  0.13570943895E+04  0.89435510355E+03 0.  0.
         23    2    4    4    0    0  0.55123357078E+03  0.58080624980E+03  0.35033067182E+03  0.87947119086E+03  0.97691589035E+02 0.  0.
         23    2    4    4    0    0  0.20703109906E+03 -0.31433243451E+03  0.27884380878E+03  0.47762319866E+03  0.93291451020E+02 0.  0.
          2    1    3    3  502    0 -0.89249883017E+02 -0.14832791950E+02  0.73836595049E+02  0.11677926230E+03  0.00000000000E+00 0. -1.
         -1    1    3    3    0  502 -0.66901478682E+03 -0.25164102334E+03  0.83029014914E+03  0.10955755206E+04  0.00000000000E+00 0.  1.
         13    1    5    5    0    0  0.49404086215E+02  0.95585972153E+02  0.62301359904E+02  0.12433382988E+03  0.00000000000E+00 0. -1.
        -13    1    5    5    0    0  0.50182948456E+03  0.48522027765E+03  0.28802931192E+03  0.75513736098E+03  0.00000000000E+00 0.  1.
          3    1    6    6  503    0  0.10227871101E+03 -0.15399775140E+03  0.79661784024E+02  0.20130137108E+03  0.00000000000E+00 0. -1.
         -3    1    6    6    0  503  0.10475238805E+03 -0.16033468311E+03  0.19918202476E+03  0.27632182758E+03  0.00000000000E+00 0.  1.
<mgrwt>
<rscale>  0 0.20618090E+04</rscale>
<asrwt>0</asrwt>
<pdfrwt beam="1">  1        2 0.79703689E-01 0.20618090E+04</pdfrwt>
<pdfrwt beam="2">  1       -1 0.31559618E+00 0.20618090E+04</pdfrwt>
<totfact> 0.16323657E+00</totfact>
</mgrwt>
</event>
<event>
12    7  0.1637954E-007  0.1699838E+04  0.7818608E-02  0.8761457E-01
         -1   -1    0    0    0  501 -0.00000000000E+00  0.00000000000E+00  0.76386171850E+03  0.76386171850E+03  0.00000000000E+00 0.  1.
          2   -1    0    0  501    0  0.00000000000E+00 -0.00000000000E+00 -0.94567202622E+03  0.94567202622E+03  0.00000000000E+00 0. -1.
         24    2    1    2    0    0 -0.12391324962E+03 -0.42274097973E+03  0.35955526027E+03  0.57402143452E+03  0.78461409143E+02 0.  0.
        254    2    1    2    0    0  0.12391324962E+03  0.42274097973E+03 -0.54136556799E+03  0.11355123102E+04  0.89568247668E+03 0.  0.
         23    2    4    4    0    0 -0.23416167862E+03  0.54651813668E+03 -0.39201103298E+03  0.71857815043E+03  0.95750419549E+02 0.  0.
         23    2    4    4    0    0  0.35807492824E+03 -0.12377715695E+03 -0.14935453501E+03  0.41693415977E+03  0.89380521604E+02 0.  0.
          4    1    3    3  502    0 -0.59300382192E+01  0.17223446035E+01  0.16074398544E+01  0.63808845076E+01  0.00000000000E+00 0. -1.
         -1    1    3    3    0  502 -0.11798321140E+03 -0.42446332433E+03  0.35794782042E+03  0.56764055001E+03  0.00000000000E+00 0.  1.
         13    1    5    5    0    0 -0.55565401292E+02  0.12197157122E+03 -0.13892738123E+03  0.19304247010E+03  0.00000000000E+00 0. -1.
        -13    1    5    5    0    0 -0.17859627732E+03  0.42454656546E+03 -0.25308365176E+03  0.52553568033E+03  0.00000000000E+00 0.  1.
          3    1    6    6  503    0  0.13718851567E+02  0.10160023224E+02 -0.17963066555E+02  0.24781136380E+02  0.00000000000E+00 0. -1.
         -3    1    6    6    0  503  0.34435607667E+03 -0.13393718017E+03 -0.13139146845E+03  0.39215302339E+03  0.00000000000E+00 0.  1.
<mgrwt>
<rscale>  0 0.16998384E+04</rscale>
<asrwt>0</asrwt>
<pdfrwt beam="1">  1        2 0.14548800E+00 0.16998384E+04</pdfrwt>
<pdfrwt beam="2">  1       -1 0.11751719E+00 0.16998384E+04</pdfrwt>
<totfact> 0.19335794E+01</totfact>
</mgrwt>
</event>
<event>
12    7  0.1637954E-007  0.1435838E+04  0.7818608E-02  0.8928278E-01
          2   -1    0    0  501    0  0.00000000000E+00  0.00000000000E+00  0.21828000995E+04  0.21828000995E+04  0.00000000000E+00 0. -1.
         -1   -1    0    0    0  501 -0.00000000000E+00 -0.00000000000E+00 -0.23612217190E+03  0.23612217190E+03  0.00000000000E+00 0.  1.
         24    2    1    2    0    0 -0.55758655965E+02  0.50464486383E+02 -0.11983766954E+03  0.16313435872E+03  0.81216130510E+02 0.  0.
        254    2    1    2    0    0  0.55758655965E+02 -0.50464486383E+02  0.20665155971E+04  0.22557879127E+04  0.90135270660E+03 0.  0.
         23    2    4    4    0    0 -0.14029520385E+03  0.35107207993E+03  0.13710404595E+04  0.14252832773E+04  0.93520742280E+02 0.  0.
         23    2    4    4    0    0  0.19605385982E+03 -0.40153656632E+03  0.69547513762E+03  0.83050463543E+03  0.79897136287E+02 0.  0.
          4    1    3    3  502    0 -0.31959452850E+02  0.47648017250E+02 -0.20467530381E+02  0.60915186729E+02  0.00000000000E+00 0. -1.
         -3    1    3    3    0  502 -0.23799203115E+02  0.28164691328E+01 -0.99370139156E+02  0.10221917199E+03  0.00000000000E+00 0.  1.
         13    1    5    5    0    0 -0.92984747084E+02  0.11175832511E+03  0.49401888805E+03  0.51496674472E+03  0.00000000000E+00 0.  1.
        -13    1    5    5    0    0 -0.47310456771E+02  0.23931375482E+03  0.87702157148E+03  0.91031653253E+03  0.00000000000E+00 0. -1.
          3    1    6    6  503    0  0.24693092742E+02 -0.13272107770E+03  0.19747724638E+03  0.23921098664E+03  0.00000000000E+00 0. -1.
         -3    1    6    6    0  503  0.17136076708E+03 -0.26881548862E+03  0.49799789124E+03  0.59129364878E+03  0.00000000000E+00 0.  1.
<mgrwt>
<rscale>  0 0.14358377E+04</rscale>
<asrwt>0</asrwt>
<pdfrwt beam="1">  1        2 0.33581539E+00 0.14358377E+04</pdfrwt>
<pdfrwt beam="2">  1       -1 0.36326489E-01 0.14358377E+04</pdfrwt>
<totfact> 0.42425078E+01</totfact>
</mgrwt>
</event>
<event>
12    7  0.1637954E-007  0.1643877E+04  0.7818608E-02  0.8794037E-01
          4   -1    0    0  501    0  0.00000000000E+00  0.00000000000E+00  0.16791536345E+04  0.16791536345E+04  0.00000000000E+00 0. -1.
         -3   -1    0    0    0  501 -0.00000000000E+00 -0.00000000000E+00 -0.40233527049E+03  0.40233527049E+03  0.00000000000E+00 0.  1.
         24    2    1    2    0    0 -0.32489661287E+03  0.80262632449E+02 -0.14017618318E+03  0.37191153962E+03  0.81663527668E+02 0.  0.
        254    2    1    2    0    0  0.32489661287E+03 -0.80262632449E+02  0.14169945472E+04  0.17095773653E+04  0.89598064833E+03 0.  0.
         23    2    4    4    0    0  0.22631684254E+02  0.25815224371E+03  0.67409426617E+02  0.28306371583E+03  0.91794674987E+02 0.  0.
         23    2    4    4    0    0  0.30226492862E+03 -0.33841487616E+03  0.13495851205E+04  0.14265136495E+04  0.87592689096E+02 0.  0.
          4    1    3    3  502    0 -0.11735179367E+03  0.24853971929E+02 -0.93487598527E+02  0.15208252522E+03  0.00000000000E+00 0. -1.
         -1    1    3    3    0  502 -0.20754481920E+03  0.55408660520E+02 -0.46688584655E+02  0.21982901441E+03  0.00000000000E+00 0.  1.
         13    1    5    5    0    0  0.12314139876E+02  0.12018328116E+03 -0.15447958334E+02  0.12179613511E+03  0.00000000000E+00 0. -1.
        -13    1    5    5    0    0  0.10317544378E+02  0.13796896255E+03  0.82857384950E+02  0.16126758072E+03  0.00000000000E+00 0.  1.
          3    1    6    6  503    0  0.14192470036E+03 -0.13559211629E+03  0.71040259226E+03  0.73702081766E+03  0.00000000000E+00 0. -1.
         -3    1    6    6    0  503  0.16034022826E+03 -0.20282275987E+03  0.63918252828E+03  0.68949283185E+03  0.00000000000E+00 0.  1.
<mgrwt>
<rscale>  0 0.16438768E+04</rscale>
<asrwt>0</asrwt>
<pdfrwt beam="1">  1        4 0.25833132E+00 0.16438768E+04</pdfrwt>
<pdfrwt beam="2">  1       -3 0.61897735E-01 0.16438768E+04</pdfrwt>
<totfact> 0.31164506E-01</totfact>
</mgrwt>
</event>
<event>
12    7  0.1637954E-007  0.1155030E+04  0.7818608E-02  0.9153156E-01
          2   -1    0    0  501    0  0.00000000000E+00  0.00000000000E+00  0.29643825270E+04  0.29643825270E+04  0.00000000000E+00 0. -1.
         -1   -1    0    0    0  501 -0.00000000000E+00 -0.00000000000E+00 -0.11251025596E+03  0.11251025596E+03  0.00000000000E+00 0.  1.
         24    2    1    2    0    0  0.59314228927E+02 -0.71611254211E+02  0.85524719537E+02  0.15036280825E+03  0.81536169698E+02 0.  0.
        254    2    1    2    0    0 -0.59314228927E+02  0.71611254211E+02  0.27663475516E+04  0.29265299748E+04  0.95039600572E+03 0.  0.
         23    2    4    4    0    0 -0.22527946292E+03  0.10135555848E+02  0.11873548988E+03  0.27118891658E+03  0.92691671756E+02 0.  0.
         23    2    4    4    0    0  0.16596523400E+03  0.61475698363E+02  0.26476120617E+04  0.26553410582E+04  0.98299469611E+02 0.  0.
          4    1    3    3  502    0 -0.15255292534E+02 -0.27096612720E+02  0.41888101469E+01  0.31376687231E+02  0.00000000000E+00 0. -1.
         -3    1    3    3    0  502  0.74569521461E+02 -0.44514641491E+02  0.81335909390E+02  0.11898612102E+03  0.00000000000E+00 0.  1.
         13    1    5    5    0    0 -0.13784380459E+03  0.48179355171E+02  0.90296412618E+02  0.17168461452E+03  0.00000000000E+00 0. -1.
        -13    1    5    5    0    0 -0.87435658330E+02 -0.38043799323E+02  0.28439077263E+02  0.99504302069E+02  0.00000000000E+00 0.  1.
          3    1    6    6  503    0  0.15531006041E+03  0.18964126404E+02  0.22132291567E+04  0.22187528373E+04  0.00000000000E+00 0. -1.
         -3    1    6    6    0  503  0.10655173588E+02  0.42511571959E+02  0.43438290500E+03  0.43658822091E+03  0.00000000000E+00 0.  1.
<mgrwt>
<rscale>  0 0.11550298E+04</rscale>
<asrwt>0</asrwt>
<pdfrwt beam="1">  1        2 0.45605879E+00 0.11550298E+04</pdfrwt>
<pdfrwt beam="2">  1       -1 0.17309272E-01 0.11550298E+04</pdfrwt>
<totfact> 0.54580600E+01</totfact>
</mgrwt>
</event>
<event>
12    7  0.1637954E-007  0.2053248E+04  0.7818608E-02  0.8582122E-01
         -1   -1    0    0    0  501 -0.00000000000E+00  0.00000000000E+00  0.12702372258E+04  0.12702372258E+04  0.00000000000E+00 0.  1.
          2   -1    0    0  501    0  0.00000000000E+00 -0.00000000000E+00 -0.82973244922E+03  0.82973244922E+03  0.00000000000E+00 0. -1.
         24    2    1    2    0    0  0.59604141947E+01  0.43129601223E+03  0.87308905664E+03  0.97699528834E+03  0.78635334948E+02 0.  0.
        254    2    1    2    0    0 -0.59604141947E+01 -0.43129601223E+03 -0.43258428004E+03  0.11229743867E+04  0.94227943687E+03 0.  0.
         23    2    4    4    0    0 -0.13695365465E+03  0.20458340226E+03  0.97414398711E+02  0.28007047909E+03  0.91319418418E+02 0.  0.
         23    2    4    4    0    0  0.13099324046E+03 -0.63587941449E+03 -0.52999867875E+03  0.84290390760E+03  0.89925186450E+02 0.  0.
          2    1    3    3  502    0 -0.34766545696E+02  0.14313911022E+03  0.30450450819E+03  0.33826101325E+03  0.00000000000E+00 0. -1.
         -1    1    3    3    0  502  0.40726959890E+02  0.28815690201E+03  0.56858454845E+03  0.63873427509E+03  0.00000000000E+00 0.  1.
         13    1    5    5    0    0 -0.13667833974E+03  0.20515324367E+03  0.75032236504E+02  0.25767937143E+03  0.00000000000E+00 0. -1.
        -13    1    5    5    0    0 -0.27531490656E+00 -0.56984140832E+00  0.22382162207E+02  0.22391107668E+02  0.00000000000E+00 0.  1.
          4    1    6    6  503    0  0.68010660082E+02 -0.50839543880E+03 -0.42554519537E+03  0.66646836788E+03  0.00000000000E+00 0. -1.
         -4    1    6    6    0  503  0.62982580374E+02 -0.12748397569E+03 -0.10445348338E+03  0.17643553973E+03  0.00000000000E+00 0.  1.
<mgrwt>
<rscale>  0 0.20532482E+04</rscale>
<asrwt>0</asrwt>
<pdfrwt beam="1">  1        2 0.12765115E+00 0.20532482E+04</pdfrwt>
<pdfrwt beam="2">  1       -1 0.19542111E+00 0.20532482E+04</pdfrwt>
<totfact> 0.56054510E+00</totfact>
</mgrwt>
</event>
<event>
12    7  0.1637954E-007  0.1347183E+04  0.7818608E-02  0.8992963E-01
         -1   -1    0    0    0  501 -0.00000000000E+00  0.00000000000E+00  0.10648077384E+04  0.10648077384E+04  0.00000000000E+00 0.  1.
          2   -1    0    0  501    0  0.00000000000E+00 -0.00000000000E+00 -0.42611042908E+03  0.42611042908E+03  0.00000000000E+00 0. -1.
         24    2    1    2    0    0 -0.20376562128E+02 -0.31942366705E+03 -0.10302124230E+01  0.32962657985E+03  0.78777772553E+02 0.  0.
        254    2    1    2    0    0  0.20376562128E+02  0.31942366705E+03  0.63972752169E+03  0.11612915876E+04  0.91482247788E+03 0.  0.
         23    2    4    4    0    0 -0.30031364603E+03  0.63819653664E+02 -0.77230454131E+02  0.32986492812E+03  0.92655780029E+02 0.  0.
         23    2    4    4    0    0  0.32069020815E+03  0.25560401339E+03  0.71695797582E+03  0.83142665947E+03  0.95215175846E+02 0.  0.
          2    1    3    3  502    0  0.51137211912E+01 -0.19375603870E+03  0.33811438545E+02  0.19675051729E+03  0.00000000000E+00 0. -1.
         -1    1    3    3    0  502 -0.25490283320E+02 -0.12566762836E+03 -0.34841650968E+02  0.13287606256E+03  0.00000000000E+00 0.  1.
         13    1    5    5    0    0  0.60004837914E+01 -0.25900758593E+01  0.14830899851E+01  0.67017799569E+01  0.00000000000E+00 0.  1.
        -13    1    5    5    0    0 -0.30631412982E+03  0.66409729524E+02 -0.78713544116E+02  0.32316314816E+03  0.00000000000E+00 0. -1.
          4    1    6    6  503    0  0.18383577150E+03  0.85766479251E+02  0.35027227612E+03  0.40477419293E+03  0.00000000000E+00 0. -1.
         -4    1    6    6    0  503  0.13685443666E+03  0.16983753414E+03  0.36668569971E+03  0.42665246654E+03  0.00000000000E+00 0.  1.
<mgrwt>
<rscale>  0 0.13471833E+04</rscale>
<asrwt>0</asrwt>
<pdfrwt beam="1">  1        2 0.65555451E-01 0.13471833E+04</pdfrwt>
<pdfrwt beam="2">  1       -1 0.16381657E+00 0.13471833E+04</pdfrwt>
<totfact> 0.22626945E+01</totfact>
</mgrwt>
</event>
<event>
12    7  0.1637954E-007  0.1353505E+04  0.7818608E-02  0.8988179E-01
         -1   -1    0    0    0  501 -0.00000000000E+00  0.00000000000E+00  0.14965036817E+04  0.14965036817E+04  0.00000000000E+00 0.  1.
          2   -1    0    0  501    0  0.00000000000E+00 -0.00000000000E+00 -0.30604271988E+03  0.30604271988E+03  0.00000000000E+00 0. -1.
         24    2    1    2    0    0 -0.20394482833E+03  0.27905479222E+03  0.49200054860E+03  0.60636466367E+03  0.78412342585E+02 0.  0.
        254    2    1    2    0    0  0.20394482833E+03 -0.27905479222E+03  0.69846041325E+03  0.11961817379E+04  0.90749034772E+03 0.  0.
         23    2    4    4    0    0 -0.32471501239E+03 -0.76171342466E+02  0.84772585280E+02  0.35623364648E+03  0.92054912893E+02 0.  0.
         23    2    4    4    0    0  0.52865984072E+03 -0.20288344975E+03  0.61368782797E+03  0.83994809144E+03  0.90868722561E+02 0.  0.
          2    1    3    3  502    0 -0.15871217660E+03  0.15473950622E+03  0.29285024197E+03  0.36728072915E+03  0.00000000000E+00 0. -1.
         -1    1    3    3    0  502 -0.45232651729E+02  0.12431528600E+03  0.19915030663E+03  0.23908393452E+03  0.00000000000E+00 0.  1.
         13    1    5    5    0    0 -0.19468733542E+03 -0.57057581880E+02  0.59080070272E+01  0.20296214122E+03  0.00000000000E+00 0.  1.
        -13    1    5    5    0    0 -0.13002767697E+03 -0.19113760586E+02  0.78864578253E+02  0.15327150526E+03  0.00000000000E+00 0. -1.
          1    1    6    6  503    0  0.41140396659E+03 -0.12227449628E+03  0.49027639947E+03  0.65159437079E+03  0.00000000000E+00 0. -1.
         -1    1    6    6    0  503  0.11725587413E+03 -0.80608953476E+02  0.12341142850E+03  0.18835372065E+03  0.00000000000E+00 0.  1.
<mgrwt>
<rscale>  0 0.13535052E+04</rscale>
<asrwt>0</asrwt>
<pdfrwt beam="1">  1        2 0.47083496E-01 0.13535052E+04</pdfrwt>
<pdfrwt beam="2">  1       -1 0.23023133E+00 0.13535052E+04</pdfrwt>
<totfact> 0.11302548E+01</totfact>
</mgrwt>
</event>
<event>
12    7  0.1637954E-007  0.3151940E+04  0.7818608E-02  0.8201626E-01
         -1   -1    0    0    0  501 -0.00000000000E+00  0.00000000000E+00  0.15842080450E+04  0.15842080450E+04  0.00000000000E+00 0.  1.
          2   -1    0    0  501    0  0.00000000000E+00 -0.00000000000E+00 -0.15677747301E+04  0.15677747301E+04  0.00000000000E+00 0. -1.
         24    2    1    2    0    0  0.13869724781E+04  0.37613345592E+03 -0.16658746740E+03  0.14489319810E+04  0.80519994955E+02 0.  0.
        254    2    1    2    0    0 -0.13869724781E+04 -0.37613345592E+03  0.18302078230E+03  0.17030507940E+04  0.89538615610E+03 0.  0.
         23    2    4    4    0    0 -0.93310149624E+03 -0.38868802890E+03 -0.27531392288E+03  0.10515674105E+04  0.90771563107E+02 0.  0.
         23    2    4    4    0    0 -0.45387098188E+03  0.12554572981E+02  0.45833470517E+03  0.65148338348E+03  0.90572686268E+02 0.  0.
          4    1    3    3  502    0  0.91475367974E+03  0.23394422194E+03 -0.73403874980E+02  0.94704399182E+03  0.00000000000E+00 0. -1.
         -3    1    3    3    0  502  0.47221879838E+03  0.14218923398E+03 -0.93183592421E+02  0.50188798920E+03  0.00000000000E+00 0.  1.
         13    1    5    5    0    0 -0.15085649113E+03 -0.41127928505E+02 -0.16053735668E+02  0.15718431807E+03  0.00000000000E+00 0. -1.
        -13    1    5    5    0    0 -0.78224500511E+03 -0.34756010040E+03 -0.25926018721E+03  0.89438309246E+03  0.00000000000E+00 0.  1.
          3    1    6    6  503    0 -0.27070741859E+03 -0.33879494140E+01  0.21069570718E+03  0.34305490188E+03  0.00000000000E+00 0. -1.
         -3    1    6    6    0  503 -0.18316356329E+03  0.15942522395E+02  0.24763899800E+03  0.30842848160E+03  0.00000000000E+00 0.  1.
<mgrwt>
<rscale>  0 0.31519399E+04</rscale>
<asrwt>0</asrwt>
<pdfrwt beam="1">  1        2 0.24119611E+00 0.31519399E+04</pdfrwt>
<pdfrwt beam="2">  1       -1 0.24372431E+00 0.31519399E+04</pdfrwt>
<totfact> 0.85745938E-01</totfact>
</mgrwt>
</event>
<event>
12    7  0.1637954E-007  0.1589144E+04  0.7818608E-02  0.8827245E-01
          2   -1    0    0  501    0  0.00000000000E+00  0.00000000000E+00  0.67187287132E+03  0.67187287132E+03  0.00000000000E+00 0. -1.
         -1   -1    0    0    0  501 -0.00000000000E+00 -0.00000000000E+00 -0.93967882528E+03  0.93967882528E+03  0.00000000000E+00 0.  1.
         24    2    1    2    0    0  0.33358227158E+03 -0.22241676302E+03 -0.43948281246E+03  0.60110079304E+03  0.86201348952E+02 0.  0.
        254    2    1    2    0    0 -0.33358227158E+03  0.22241676302E+03  0.17167685850E+03  0.10104509036E+04  0.91147777613E+03 0.  0.
         23    2    4    4    0    0 -0.50882256974E+03 -0.17551631822E+03  0.15273612558E+03  0.56611252421E+03  0.86305738926E+02 0.  0.
         23    2    4    4    0    0  0.17524029816E+03  0.39793308124E+03  0.18940732915E+02  0.44433837936E+03  0.89542977179E+02 0.  0.
          4    1    3    3  502    0 -0.36029746291E+01 -0.11286004088E+02 -0.85611665686E+01  0.14616733132E+02  0.00000000000E+00 0. -1.
         -3    1    3    3    0  502  0.33718524621E+03 -0.21113075893E+03 -0.43092164589E+03  0.58648405991E+03  0.00000000000E+00 0.  1.
         13    1    5    5    0    0 -0.45356702018E+02  0.90375958527E+01  0.11935577744E+02  0.47763653261E+02  0.00000000000E+00 0.  1.
        -13    1    5    5    0    0 -0.46346586772E+03 -0.18455391407E+03  0.14080054784E+03  0.51834887095E+03  0.00000000000E+00 0. -1.
          3    1    6    6  503    0  0.97290471043E+02  0.29416912178E+03 -0.14965210834E+02  0.31020133059E+03  0.00000000000E+00 0. -1.
         -3    1    6    6    0  503  0.77949827114E+02  0.10376395946E+03  0.33905943749E+02  0.13413704876E+03  0.00000000000E+00 0.  1.
<mgrwt>
<rscale>  0 0.15891441E+04</rscale>
<asrwt>0</asrwt>
<pdfrwt beam="1">  1        2 0.10336506E+00 0.15891441E+04</pdfrwt>
<pdfrwt beam="2">  1       -1 0.14456597E+00 0.15891441E+04</pdfrwt>
<totfact> 0.18218174E+01</totfact>
</mgrwt>
</event>
<event>
12    7  0.1637954E-007  0.3120317E+04  0.7818608E-02  0.8210184E-01
          2   -1    0    0  501    0  0.00000000000E+00  0.00000000000E+00  0.14302862815E+04  0.14302862815E+04  0.00000000000E+00 0. -1.
         -1   -1    0    0    0  501 -0.00000000000E+00 -0.00000000000E+00 -0.17018231091E+04  0.17018231091E+04  0.00000000000E+00 0.  1.
         24    2    1    2    0    0  0.88679990871E+03 -0.50562404545E+03  0.87201039692E+03  0.13449396145E+04  0.79941734604E+02 0.  0.
        254    2    1    2    0    0 -0.88679990871E+03  0.50562404545E+03 -0.11435472245E+04  0.17871697762E+04  0.91880672652E+03 0.  0.
         23    2    4    4    0    0 -0.46605292842E+03  0.56014886433E+03 -0.21987851758E+03  0.76641455841E+03  0.89847818872E+02 0.  0.
         23    2    4    4    0    0 -0.42074698029E+03 -0.54524818878E+02 -0.92366870693E+03  0.10207552177E+04  0.93682213272E+02 0.  0.
          2    1    3    3  502    0  0.81543625355E+03 -0.44004366106E+03  0.77771748683E+03  0.12097186436E+04  0.00000000000E+00 0. -1.
         -1    1    3    3    0  502  0.71363655164E+02 -0.65580384389E+02  0.94292910090E+02  0.13522097096E+03  0.00000000000E+00 0.  1.
         13    1    5    5    0    0 -0.25018531213E+03  0.35005812268E+03 -0.96870968841E+02  0.44104122740E+03  0.00000000000E+00 0. -1.
        -13    1    5    5    0    0 -0.21586761629E+03  0.21009074165E+03 -0.12300754874E+03  0.32537333102E+03  0.00000000000E+00 0.  1.
          2    1    6    6  503    0 -0.25126962343E+03 -0.99302351013E+01 -0.44678326671E+03  0.51268930225E+03  0.00000000000E+00 0. -1.
         -2    1    6    6    0  503 -0.16947735687E+03 -0.44594583776E+02 -0.47688544022E+03  0.50806591550E+03  0.00000000000E+00 0.  1.
<mgrwt>
<rscale>  0 0.31203168E+04</rscale>
<asrwt>0</asrwt>
<pdfrwt beam="1">  1        2 0.22004404E+00 0.31203168E+04</pdfrwt>
<pdfrwt beam="2">  1       -1 0.26181894E+00 0.31203168E+04</pdfrwt>
<totfact> 0.78362436E-01</totfact>
</mgrwt>
</event>
<event>
12    7  0.1637954E-007  0.2691553E+04  0.7818608E-02  0.8337751E-01
          2   -1    0    0  501    0  0.00000000000E+00  0.00000000000E+00  0.10043941059E+04  0.10043941059E+04  0.00000000000E+00 0. -1.
         -1   -1    0    0    0  501 -0.00000000000E+00 -0.00000000000E+00 -0.18031908826E+04  0.18031908826E+04  0.00000000000E+00 0.  1.
         24    2    1    2    0    0  0.11788186642E+04  0.12973950362E+03 -0.20597226488E+03  0.12071492492E+04  0.91317872840E+02 0.  0.
        254    2    1    2    0    0 -0.11788186642E+04 -0.12973950362E+03 -0.59282451180E+03  0.16004357394E+04  0.89638600626E+03 0.  0.
         23    2    4    4    0    0 -0.10455750473E+04 -0.34932258360E+03 -0.69872030380E+03  0.13082789456E+04  0.90168119134E+02 0.  0.
         23    2    4    4    0    0 -0.13324361699E+03  0.21958307998E+03  0.10589579199E+03  0.29215679381E+03  0.90394042533E+02 0.  0.
          2    1    3    3  502    0  0.32816324608E+03  0.20991361645E+02 -0.18725057804E+02  0.32936663633E+03  0.00000000000E+00 0. -1.
         -1    1    3    3    0  502  0.85065541817E+03  0.10874814197E+03 -0.18724720708E+03  0.87778261284E+03  0.00000000000E+00 0.  1.
         13    1    5    5    0    0 -0.18670569934E+03 -0.33043747014E+02 -0.14345761637E+03  0.23776247618E+03  0.00000000000E+00 0. -1.
        -13    1    5    5    0    0 -0.85886934792E+03 -0.31627883658E+03 -0.55526268742E+03  0.10705164694E+04  0.00000000000E+00 0.  1.
          3    1    6    6  503    0 -0.80154888386E+02  0.58228469722E+02  0.17282565400E+02  0.10056862277E+03  0.00000000000E+00 0. -1.
         -3    1    6    6    0  503 -0.53088728599E+02  0.16135461026E+03  0.88613226595E+02  0.19158817104E+03  0.00000000000E+00 0.  1.
<mgrwt>
<rscale>  0 0.26915529E+04</rscale>
<asrwt>0</asrwt>
<pdfrwt beam="1">  1        2 0.15452217E+00 0.26915529E+04</pdfrwt>
<pdfrwt beam="2">  1       -1 0.27741398E+00 0.26915529E+04</pdfrwt>
<totfact> 0.11583482E+00</totfact>
</mgrwt>
</event>
<event>
12    7  0.1637954E-007  0.2058957E+04  0.7818608E-02  0.8579542E-01
          2   -1    0    0  501    0  0.00000000000E+00  0.00000000000E+00  0.12566610936E+04  0.12566610936E+04  0.00000000000E+00 0. -1.
         -1   -1    0    0    0  501 -0.00000000000E+00 -0.00000000000E+00 -0.84336640274E+03  0.84336640274E+03  0.00000000000E+00 0.  1.
         24    2    1    2    0    0 -0.60839996935E+02  0.81530878317E+03  0.44786560463E+02  0.82264652778E+03  0.79445305311E+02 0.  0.
        254    2    1    2    0    0  0.60839996935E+02 -0.81530878317E+03  0.36850813044E+03  0.12773809686E+04  0.90965596773E+03 0.  0.
         23    2    4    4    0    0  0.85419590917E+02 -0.10253586878E+02  0.44350143720E+03  0.46336975159E+03  0.10303571874E+03 0.  0.
         23    2    4    4    0    0 -0.24579593982E+02 -0.80505519629E+03 -0.74993306759E+02  0.81401121701E+03  0.90951854598E+02 0.  0.
          4    1    3    3  502    0 -0.42144635736E+02  0.29675853254E+03  0.49160559653E+02  0.30374093827E+03  0.00000000000E+00 0. -1.
         -3    1    3    3    0  502 -0.18695361199E+02  0.51855025063E+03 -0.43739991897E+01  0.51890558951E+03  0.00000000000E+00 0.  1.
         13    1    5    5    0    0  0.63860397169E+02  0.12577373544E+01  0.43139092016E+03  0.43609386401E+03  0.00000000000E+00 0. -1.
        -13    1    5    5    0    0  0.21559193748E+02 -0.11511324232E+02  0.12110517045E+02  0.27275887589E+02  0.00000000000E+00 0.  1.
          3    1    6    6  503    0 -0.33491579651E+02 -0.77018688450E+03 -0.87604652322E+02  0.77587634200E+03  0.00000000000E+00 0. -1.
         -3    1    6    6    0  503  0.89119856696E+01 -0.34868311784E+02  0.12611345564E+02  0.38134875012E+02  0.00000000000E+00 0.  1.
<mgrwt>
<rscale>  0 0.20589568E+04</rscale>
<asrwt>0</asrwt>
<pdfrwt beam="1">  1        2 0.19333248E+00 0.20589568E+04</pdfrwt>
<pdfrwt beam="2">  1       -1 0.12974868E+00 0.20589568E+04</pdfrwt>
<totfact> 0.94164863E+00</totfact>
</mgrwt>
</event>
<event>
12    7  0.1637954E-007  0.1133343E+04  0.7818608E-02  0.9173289E-01
         -1   -1    0    0    0  501 -0.00000000000E+00  0.00000000000E+00  0.22554654738E+03  0.22554654738E+03  0.00000000000E+00 0.  1.
          2   -1    0    0  501    0  0.00000000000E+00 -0.00000000000E+00 -0.14237274917E+04  0.14237274917E+04  0.00000000000E+00 0. -1.
         24    2    1    2    0    0  0.14577934669E+03 -0.87806383695E+02 -0.40755530046E+03  0.44916276767E+03  0.81757507249E+02 0.  0.
        254    2    1    2    0    0 -0.14577934669E+03  0.87806383695E+02 -0.79062564383E+03  0.12001112714E+04  0.88668854513E+03 0.  0.
         23    2    4    4    0    0  0.20546667423E+03 -0.40371706053E+02  0.85574657854E+02  0.24325082226E+03  0.89451168749E+02 0.  0.
         23    2    4    4    0    0 -0.35124602093E+03  0.12817808975E+03 -0.87620030169E+03  0.95686044913E+03  0.89730488218E+02 0.  0.
          4    1    3    3  502    0  0.86843443816E+02 -0.50378143833E+02 -0.13764942547E+03  0.17037342939E+03  0.00000000000E+00 0. -1.
         -3    1    3    3    0  502  0.58935902878E+02 -0.37428239863E+02 -0.26990587498E+03  0.27878933828E+03  0.00000000000E+00 0.  1.
         13    1    5    5    0    0  0.12676619044E+02 -0.43646996130E+01  0.39603587799E+02  0.41811379308E+02  0.00000000000E+00 0. -1.
        -13    1    5    5    0    0  0.19279005519E+03 -0.36007006440E+02  0.45971070055E+02  0.20143944295E+03  0.00000000000E+00 0.  1.
          1    1    6    6  503    0 -0.81606383389E+02  0.65249812099E+02 -0.18866997353E+03  0.21566988362E+03  0.00000000000E+00 0. -1.
         -1    1    6    6    0  503 -0.26963963754E+03  0.62928277650E+02 -0.68753032815E+03  0.74119056550E+03  0.00000000000E+00 0.  1.
<mgrwt>
<rscale>  0 0.11333434E+04</rscale>
<asrwt>0</asrwt>
<pdfrwt beam="1">  1        2 0.21903500E+00 0.11333434E+04</pdfrwt>
<pdfrwt beam="2">  1       -1 0.34699469E-01 0.11333434E+04</pdfrwt>
<totfact> 0.12470873E+02</totfact>
</mgrwt>
</event>
<event>
12    7  0.1637954E-007  0.2484443E+04  0.7818608E-02  0.8408549E-01
         -1   -1    0    0    0  501 -0.00000000000E+00  0.00000000000E+00  0.71712441962E+03  0.71712441962E+03  0.00000000000E+00 0.  1.
          2   -1    0    0  501    0  0.00000000000E+00 -0.00000000000E+00 -0.21518078708E+04  0.21518078708E+04  0.00000000000E+00 0. -1.
         24    2    1    2    0    0 -0.47570673223E+02  0.87770146415E+03  0.78817148458E+02  0.88654195164E+03  0.84389928367E+02 0.  0.
        254    2    1    2    0    0  0.47570673223E+02 -0.87770146415E+03 -0.15135005997E+04  0.19823903388E+04  0.93089449513E+03 0.  0.
         23    2    4    4    0    0  0.79141055537E+02 -0.10052280798E+04 -0.91813497939E+03  0.13668189755E+04  0.92062327343E+02 0.  0.
         23    2    4    4    0    0 -0.31570382314E+02  0.12752661570E+03 -0.59536562030E+03  0.61557136336E+03  0.84900852780E+02 0.  0.
          2    1    3    3  502    0  0.19209233063E+02  0.22258304577E+03  0.69991266022E+00  0.22341149652E+03  0.00000000000E+00 0. -1.
         -1    1    3    3    0  502 -0.66779906286E+02  0.65511841838E+03  0.78117235798E+02  0.66313045512E+03  0.00000000000E+00 0.  1.
         13    1    5    5    0    0  0.42890117289E+02 -0.90148862522E+03 -0.81147883202E+03  0.12136800231E+04  0.00000000000E+00 0. -1.
        -13    1    5    5    0    0  0.36250938248E+02 -0.10373945463E+03 -0.10665614737E+03  0.15313895240E+03  0.00000000000E+00 0.  1.
          2    1    6    6  503    0  0.26154262644E+02  0.16477390071E+02 -0.10221794714E+03  0.10678978676E+03  0.00000000000E+00 0.  1.
         -2    1    6    6    0  503 -0.57724644958E+02  0.11104922563E+03 -0.49314767316E+03  0.50878157660E+03  0.00000000000E+00 0. -1.
<mgrwt>
<rscale>  0 0.24844428E+04</rscale>
<asrwt>0</asrwt>
<pdfrwt beam="1">  1        2 0.33104736E+00 0.24844428E+04</pdfrwt>
<pdfrwt beam="2">  1       -1 0.11032683E+00 0.24844428E+04</pdfrwt>
<totfact> 0.42311503E+00</totfact>
</mgrwt>
</event>
<event>
12    7  0.1637954E-007  0.2892428E+04  0.7818608E-02  0.8275134E-01
          2   -1    0    0  501    0  0.00000000000E+00  0.00000000000E+00  0.13673574404E+04  0.13673574404E+04  0.00000000000E+00 0. -1.
         -1   -1    0    0    0  501 -0.00000000000E+00 -0.00000000000E+00 -0.15296178721E+04  0.15296178721E+04  0.00000000000E+00 0.  1.
         24    2    1    2    0    0 -0.71916531502E+03  0.29129058790E+03 -0.11128865823E+04  0.13590087354E+04  0.79619349843E+02 0.  0.
        254    2    1    2    0    0  0.71916531502E+03 -0.29129058790E+03  0.95062615065E+03  0.15379665770E+04  0.92714732204E+03 0.  0.
         23    2    4    4    0    0  0.52001881313E+03 -0.57024043879E+03  0.88346568338E+03  0.11767421492E+04  0.92826439488E+02 0.  0.
         23    2    4    4    0    0  0.19914650189E+03  0.27894985089E+03  0.67160467268E+02  0.36122442784E+03  0.92196585507E+02 0.  0.
          2    1    3    3  502    0 -0.19380479491E+03  0.60585694812E+02 -0.23932492438E+03  0.31385879688E+03  0.00000000000E+00 0. -1.
         -1    1    3    3    0  502 -0.52536052011E+03  0.23070489309E+03 -0.87356165796E+03  0.10451499385E+04  0.00000000000E+00 0.  1.
         13    1    5    5    0    0  0.41919154417E+03 -0.40749067643E+03  0.63605940767E+03  0.86391074317E+03  0.00000000000E+00 0.  1.
        -13    1    5    5    0    0  0.10082726896E+03 -0.16274976236E+03  0.24740627572E+03  0.31283140600E+03  0.00000000000E+00 0. -1.
          4    1    6    6  503    0  0.78282664861E+02  0.61184361046E+02  0.50901509788E+02  0.11163630840E+03  0.00000000000E+00 0. -1.
         -4    1    6    6    0  503  0.12086383703E+03  0.21776548984E+03  0.16258957480E+02  0.24958811944E+03  0.00000000000E+00 0.  1.
<mgrwt>
<rscale>  0 0.28924276E+04</rscale>
<asrwt>0</asrwt>
<pdfrwt beam="1">  1        2 0.21036268E+00 0.28924276E+04</pdfrwt>
<pdfrwt beam="2">  1       -1 0.23532583E+00 0.28924276E+04</pdfrwt>
<totfact> 0.12934686E+00</totfact>
</mgrwt>
</event>
<event>
12    7  0.1637954E-007  0.1507024E+04  0.7818608E-02  0.8879796E-01
         -1   -1    0    0    0  501 -0.00000000000E+00  0.00000000000E+00  0.11884823727E+04  0.11884823727E+04  0.00000000000E+00 0.  1.
          2   -1    0    0  501    0  0.00000000000E+00 -0.00000000000E+00 -0.47773550617E+03  0.47773550617E+03  0.00000000000E+00 0. -1.
         24    2    1    2    0    0 -0.39437343759E+03  0.23750941175E+03  0.85732253916E+02  0.47502093663E+03  0.79710362777E+02 0.  0.
        254    2    1    2    0    0  0.39437343759E+03 -0.23750941175E+03  0.62501461258E+03  0.11911969422E+04  0.90352961226E+03 0.  0.
         23    2    4    4    0    0 -0.21919367813E+03 -0.30725237949E+03  0.26882087352E+03  0.47241626731E+03  0.91992251565E+02 0.  0.
         23    2    4    4    0    0  0.61356711572E+03  0.69742967737E+02  0.35619373906E+03  0.71878067490E+03  0.91885754190E+02 0.  0.
          4    1    3    3  502    0 -0.31670117062E+03  0.15522914512E+03  0.49162611581E+02  0.35610768223E+03  0.00000000000E+00 0. -1.
         -1    1    3    3    0  502 -0.77672266972E+02  0.82280266624E+02  0.36569642335E+02  0.11891325440E+03  0.00000000000E+00 0.  1.
         13    1    5    5    0    0 -0.64651586245E+02 -0.11227610512E+03  0.43252845848E+02  0.13658901880E+03  0.00000000000E+00 0. -1.
        -13    1    5    5    0    0 -0.15454209188E+03 -0.19497627437E+03  0.22556802768E+03  0.33582724851E+03  0.00000000000E+00 0.  1.
          1    1    6    6  503    0  0.50396124333E+03  0.35296799954E+02  0.32128038975E+03  0.59870183540E+03  0.00000000000E+00 0.  1.
         -1    1    6    6    0  503  0.10960587238E+03  0.34446167783E+02  0.34913349308E+02  0.12007883950E+03  0.00000000000E+00 0. -1.
<mgrwt>
<rscale>  0 0.15070239E+04</rscale>
<asrwt>0</asrwt>
<pdfrwt beam="1">  1        2 0.73497770E-01 0.15070239E+04</pdfrwt>
<pdfrwt beam="2">  1       -1 0.18284344E+00 0.15070239E+04</pdfrwt>
<totfact> 0.14232827E+01</totfact>
</mgrwt>
</event>
<event>
12    7  0.1637954E-007  0.1724233E+04  0.7818608E-02  0.8747663E-01
          2   -1    0    0  501    0  0.00000000000E+00  0.00000000000E+00  0.51892336208E+03  0.51892336208E+03  0.00000000000E+00 0. -1.
         -1   -1    0    0    0  501 -0.00000000000E+00 -0.00000000000E+00 -0.14322830378E+04  0.14322830378E+04  0.00000000000E+00 0.  1.
         24    2    1    2    0    0 -0.31061758710E+02 -0.25117054630E+03  0.31594913146E+03  0.41258457652E+03  0.79691297709E+02 0.  0.
        254    2    1    2    0    0  0.31061758710E+02  0.25117054630E+03 -0.12293088071E+04  0.15386218233E+04  0.89000308747E+03 0.  0.
         23    2    4    4    0    0  0.43009563636E+03  0.26546361101E+02 -0.44675691655E+03  0.62731526054E+03  0.90805990562E+02 0.  0.
         23    2    4    4    0    0 -0.39903387765E+03  0.22462418520E+03 -0.78255189058E+03  0.91130656277E+03  0.91695854893E+02 0.  0.
          2    1    3    3  502    0 -0.52119562789E+02 -0.21158789798E+03  0.28179438373E+03  0.35622178779E+03  0.00000000000E+00 0. -1.
         -1    1    3    3    0  502  0.21057804079E+02 -0.39582648323E+02  0.34154747728E+02  0.56362788729E+02  0.00000000000E+00 0.  1.
         13    1    5    5    0    0  0.24586692000E+03 -0.12852858166E+02 -0.30253239375E+03  0.39005331377E+03  0.00000000000E+00 0. -1.
        -13    1    5    5    0    0  0.18422871636E+03  0.39399219267E+02 -0.14422452280E+03  0.23726194677E+03  0.00000000000E+00 0.  1.
          4    1    6    6  503    0 -0.21759331964E+03  0.17335642611E+03 -0.45168408189E+03  0.53048827796E+03  0.00000000000E+00 0. -1.
         -4    1    6    6    0  503 -0.18144055801E+03  0.51267759092E+02 -0.33086780869E+03  0.38081828481E+03  0.00000000000E+00 0.  1.
<mgrwt>
<rscale>  0 0.17242333E+04</rscale>
<asrwt>0</asrwt>
<pdfrwt beam="1">  1        2 0.79834364E-01 0.17242333E+04</pdfrwt>
<pdfrwt beam="2">  1       -1 0.22035123E+00 0.17242333E+04</pdfrwt>
<totfact> 0.70038586E+00</totfact>
</mgrwt>
</event>
<event>
12    7  0.1637954E-007  0.1871367E+04  0.7818608E-02  0.8669241E-01
         -1   -1    0    0    0  501 -0.00000000000E+00  0.00000000000E+00  0.33453810435E+03  0.33453810435E+03  0.00000000000E+00 0.  1.
          2   -1    0    0  501    0  0.00000000000E+00 -0.00000000000E+00 -0.26170527283E+04  0.26170527283E+04  0.00000000000E+00 0. -1.
         24    2    1    2    0    0 -0.17543946708E+03 -0.58490690194E+03 -0.28458469285E+03  0.67850557597E+03  0.80537436479E+02 0.  0.
        254    2    1    2    0    0  0.17543946708E+03  0.58490690194E+03 -0.19979299311E+04  0.22730852566E+04  0.89571060277E+03 0.  0.
         23    2    4    4    0    0 -0.97211821796E+02 -0.19249652032E+03 -0.27791209460E+03  0.36379752299E+03  0.92781769619E+02 0.  0.
         23    2    4    4    0    0  0.27265128887E+03  0.77740342227E+03 -0.17200178365E+04  0.19092877336E+04  0.90683437330E+02 0.  0.
          2    1    3    3  502    0 -0.47095152821E+02 -0.11271143602E+03 -0.25372362956E+02  0.12476208571E+03  0.00000000000E+00 0. -1.
         -1    1    3    3    0  502 -0.12834431425E+03 -0.47219546592E+03 -0.25921232989E+03  0.55374349026E+03  0.00000000000E+00 0.  1.
         13    1    5    5    0    0 -0.24938353021E+02 -0.14727654491E+03 -0.18282597287E+03  0.23608820066E+03  0.00000000000E+00 0. -1.
        -13    1    5    5    0    0 -0.72273468775E+02 -0.45219975411E+02 -0.95086121723E+02  0.12770932233E+03  0.00000000000E+00 0.  1.
          3    1    6    6  503    0  0.13011180846E+03  0.24378049972E+03 -0.55691240724E+03  0.62169883713E+03  0.00000000000E+00 0.  1.
         -3    1    6    6    0  503  0.14253948041E+03  0.53362292255E+03 -0.11631054292E+04  0.12875888965E+04  0.00000000000E+00 0. -1.
<mgrwt>
<rscale>  0 0.18713673E+04</rscale>
<asrwt>0</asrwt>
<pdfrwt beam="1">  1        2 0.40262351E+00 0.18713673E+04</pdfrwt>
<pdfrwt beam="2">  1       -1 0.51467399E-01 0.18713673E+04</pdfrwt>
<totfact> 0.12085900E+01</totfact>
</mgrwt>
</event>
<event>
12    7  0.2277956E-007  0.2124318E+04  0.7818608E-02  0.8550606E-01
          2   -1    0    0  501    0  0.00000000000E+00  0.00000000000E+00  0.16944631792E+04  0.16944631792E+04  0.00000000000E+00 0. -1.
         -1   -1    0    0    0  501 -0.00000000000E+00 -0.00000000000E+00 -0.66580464031E+03  0.66580464031E+03  0.00000000000E+00 0.  1.
         24    2    1    2    0    0 -0.42551982026E+03  0.54985842615E+03 -0.15071786636E+03  0.71587415381E+03  0.79677616708E+02 0.  0.
        254    2    1    2    0    0  0.42551982026E+03 -0.54985842615E+03  0.11793764053E+04  0.16443936657E+04  0.91087343592E+03 0.  0.
         23    2    4    4    0    0 -0.86351936711E+02  0.60802934876E+02 -0.72762154616E+02  0.15742201739E+03  0.91289137088E+02 0.  0.
         23    2    4    4    0    0  0.51187175698E+03 -0.61066136103E+03  0.12521385599E+04  0.14869716483E+04  0.91179582775E+02 0.  0.
          4    1    3    3  502    0 -0.97156216291E+01  0.14315210353E+02  0.87117311617E+01  0.19370410706E+02  0.00000000000E+00 0. -1.
         -3    1    3    3    0  502 -0.41580419864E+03  0.53554321580E+03 -0.15942959753E+03  0.69650374311E+03  0.00000000000E+00 0.  1.
         13    1    5    5    0    0  0.19100488332E+02  0.10880061103E+02 -0.51604237784E+01  0.22579511901E+02  0.00000000000E+00 0. -1.
        -13    1    5    5    0    0 -0.10545242504E+03  0.49922873773E+02 -0.67601730838E+02  0.13484250549E+03  0.00000000000E+00 0.  1.
          3    1    6    6  503    0  0.12365712292E+02  0.88156481672E+00  0.20128557717E+02  0.23639941471E+02  0.00000000000E+00 0. -1.
         -3    1    6    6    0  503  0.49950604468E+03 -0.61154292585E+03  0.12320100022E+04  0.14633317069E+04  0.00000000000E+00 0.  1.
<mgrwt>
<rscale>  0 0.21243177E+04</rscale>
<asrwt>0</asrwt>
<pdfrwt beam="1">  1        2 0.26068664E+00 0.21243177E+04</pdfrwt>
<pdfrwt beam="2">  1       -1 0.10243148E+00 0.21243177E+04</pdfrwt>
<totfact> 0.93289293E+00</totfact>
</mgrwt>
</event>
<event>
12    7  0.1637954E-007  0.2103896E+04  0.7818608E-02  0.8559529E-01
          2   -1    0    0  501    0  0.00000000000E+00  0.00000000000E+00  0.11252999010E+04  0.11252999010E+04  0.00000000000E+00 0. -1.
         -1   -1    0    0    0  501 -0.00000000000E+00 -0.00000000000E+00 -0.98337750913E+03  0.98337750913E+03  0.00000000000E+00 0.  1.
         24    2    1    2    0    0  0.42144909340E+03  0.35845752261E+03  0.72504268127E+03  0.91550259156E+03  0.79667883453E+02 0.  0.
        254    2    1    2    0    0 -0.42144909340E+03 -0.35845752261E+03 -0.58312028943E+03  0.11931748185E+04  0.88177420114E+03 0.  0.
         23    2    4    4    0    0 -0.27059301705E+03 -0.20945553753E+03 -0.80200886637E+03  0.87677722582E+03  0.91803479880E+02 0.  0.
         23    2    4    4    0    0 -0.15085607636E+03 -0.14900198508E+03  0.21888857694E+03  0.31639759271E+03  0.85065152839E+02 0.  0.
          2    1    3    3  502    0  0.40752496048E+03  0.33791131554E+03  0.66131147781E+03  0.84710891937E+03  0.00000000000E+00 0. -1.
         -1    1    3    3    0  502  0.13924132921E+02  0.20546207065E+02  0.63731203453E+02  0.68393672192E+02  0.00000000000E+00 0.  1.
         13    1    5    5    0    0 -0.11311665849E+02 -0.58692864284E+01 -0.39975751154E+01  0.13356006673E+02  0.00000000000E+00 0. -1.
        -13    1    5    5    0    0 -0.25928135120E+03 -0.20358625110E+03 -0.79801129125E+03  0.86342121915E+03  0.00000000000E+00 0.  1.
          3    1    6    6  503    0 -0.40394316379E+02 -0.83535704421E+02  0.53822038906E+02  0.10726941121E+03  0.00000000000E+00 0. -1.
         -3    1    6    6    0  503 -0.11046175998E+03 -0.65466280658E+02  0.16506653803E+03  0.20912818150E+03  0.00000000000E+00 0.  1.
<mgrwt>
<rscale>  0 0.21038960E+04</rscale>
<asrwt>0</asrwt>
<pdfrwt beam="1">  1        2 0.17312306E+00 0.21038960E+04</pdfrwt>
<pdfrwt beam="2">  1       -1 0.15128885E+00 0.21038960E+04</pdfrwt>
<totfact> 0.75280026E+00</totfact>
</mgrwt>
</event>
<event>
12    7  0.1637954E-007  0.2572584E+04  0.7818608E-02  0.8377574E-01
          2   -1    0    0  501    0  0.00000000000E+00  0.00000000000E+00  0.13810832053E+04  0.13810832053E+04  0.00000000000E+00 0. -1.
         -1   -1    0    0    0  501 -0.00000000000E+00 -0.00000000000E+00 -0.11980071784E+04  0.11980071784E+04  0.00000000000E+00 0.  1.
         24    2    1    2    0    0  0.92511264589E+03  0.20088135051E+02  0.72548921565E+03  0.11785940752E+04  0.80699760007E+02 0.  0.
        254    2    1    2    0    0 -0.92511264589E+03 -0.20088135051E+02 -0.54241318868E+03  0.14004963085E+04  0.90052257167E+03 0.  0.
         23    2    4    4    0    0  0.14916428455E+03  0.21868793573E+02 -0.20406558468E+03  0.26970622023E+03  0.91490187810E+02 0.  0.
         23    2    4    4    0    0 -0.10742769304E+04 -0.41956928624E+02 -0.33834760400E+03  0.11307900883E+04  0.91519481091E+02 0.  0.
          2    1    3    3  502    0  0.73389573017E+03  0.68312585851E+01  0.61369901031E+03  0.95670062408E+03  0.00000000000E+00 0. -1.
         -1    1    3    3    0  502  0.19121691572E+03  0.13256876466E+02  0.11179020534E+03  0.22189345110E+03  0.00000000000E+00 0.  1.
         13    1    5    5    0    0  0.12675883260E+03  0.46943417252E+02 -0.12635646237E+03  0.18503362302E+03  0.00000000000E+00 0. -1.
        -13    1    5    5    0    0  0.22405451957E+02 -0.25074623679E+02 -0.77709122303E+02  0.84672597215E+02  0.00000000000E+00 0.  1.
          1    1    6    6  503    0 -0.95787577987E+02 -0.12617082876E+02 -0.57244533531E+02  0.11230043409E+03  0.00000000000E+00 0. -1.
         -1    1    6    6    0  503 -0.97848935246E+03 -0.29339845748E+02 -0.28110307047E+03  0.10184896542E+04  0.00000000000E+00 0.  1.
<mgrwt>
<rscale>  0 0.25725844E+04</rscale>
<asrwt>0</asrwt>
<pdfrwt beam="1">  1        2 0.21247434E+00 0.25725844E+04</pdfrwt>
<pdfrwt beam="2">  1       -1 0.18430880E+00 0.25725844E+04</pdfrwt>
<totfact> 0.29050296E+00</totfact>
</mgrwt>
</event>
<event>
12    7  0.1637954E-007  0.3165994E+04  0.7818608E-02  0.8197856E-01
          2   -1    0    0  501    0  0.00000000000E+00  0.00000000000E+00  0.24674415173E+04  0.24674415173E+04  0.00000000000E+00 0. -1.
         -1   -1    0    0    0  501 -0.00000000000E+00 -0.00000000000E+00 -0.10155778546E+04  0.10155778546E+04  0.00000000000E+00 0.  1.
         24    2    1    2    0    0  0.72920622496E+03  0.76863497872E+03 -0.42048150997E+03  0.11427153439E+04  0.80325637040E+02 0.  0.
        254    2    1    2    0    0 -0.72920622496E+03 -0.76863497872E+03  0.18723451727E+04  0.23403040279E+04  0.92130616439E+03 0.  0.
         23    2    4    4    0    0 -0.30356695660E+03  0.24551077499E+02  0.71689094623E+02  0.32497964133E+03  0.87845252844E+02 0.  0.
         23    2    4    4    0    0 -0.42563926836E+03 -0.79318605622E+03  0.18006560780E+04  0.20153243866E+04  0.94112514010E+02 0.  0.
          2    1    3    3  502    0  0.31052446210E+03  0.28373947520E+03 -0.13946486577E+03  0.44315232159E+03  0.00000000000E+00 0. -1.
         -1    1    3    3    0  502  0.41868176286E+03  0.48489550353E+03 -0.28101664421E+03  0.69956302233E+03  0.00000000000E+00 0.  1.
         13    1    5    5    0    0 -0.21263013574E+03  0.55558784673E+02  0.62386985125E+02  0.22845237817E+03  0.00000000000E+00 0.  1.
        -13    1    5    5    0    0 -0.90936820864E+02 -0.31007707174E+02  0.93021094986E+01  0.96527263165E+02  0.00000000000E+00 0. -1.
          3    1    6    6  503    0 -0.67876063382E+01 -0.48211629278E+02  0.71688164117E+02  0.86658096401E+02  0.00000000000E+00 0. -1.
         -3    1    6    6    0  503 -0.41885166202E+03 -0.74497442694E+03  0.17289679139E+04  0.19286662902E+04  0.00000000000E+00 0.  1.
<mgrwt>
<rscale>  0 0.31659937E+04</rscale>
<asrwt>0</asrwt>
<pdfrwt beam="1">  1        2 0.37960639E+00 0.31659937E+04</pdfrwt>
<pdfrwt beam="2">  1       -1 0.15624275E+00 0.31659937E+04</pdfrwt>
<totfact> 0.10890310E+00</totfact>
</mgrwt>
</event>
<event>
12    7  0.1637954E-007  0.1371011E+04  0.7818608E-02  0.8975073E-01
         -1   -1    0    0    0  501 -0.00000000000E+00  0.00000000000E+00  0.45435002541E+03  0.45435002541E+03  0.00000000000E+00 0.  1.
          2   -1    0    0  501    0  0.00000000000E+00 -0.00000000000E+00 -0.10342645389E+04  0.10342645389E+04  0.00000000000E+00 0. -1.
         24    2    1    2    0    0  0.16020832058E+03  0.28590099527E+03  0.57721410940E+02  0.34213426818E+03  0.79485917638E+02 0.  0.
        254    2    1    2    0    0 -0.16020832058E+03 -0.28590099527E+03 -0.63763592444E+03  0.11464802961E+04  0.89466832525E+03 0.  0.
         23    2    4    4    0    0 -0.39488613138E+03 -0.39617623254E+03 -0.65640644169E+03  0.86742469226E+03  0.93088753622E+02 0.  0.
         23    2    4    4    0    0  0.23467781080E+03  0.11027523727E+03  0.18770517255E+02  0.27905560388E+03  0.10141693597E+03 0.  0.
          4    1    3    3  502    0  0.10359723195E+02  0.35608329497E+02 -0.17299789721E+02  0.40921384613E+02  0.00000000000E+00 0. -1.
         -1    1    3    3    0  502  0.14984859739E+03  0.25029266577E+03  0.75021200662E+02  0.30121288357E+03  0.00000000000E+00 0.  1.
         13    1    5    5    0    0 -0.39050332630E+03 -0.40141607907E+03 -0.64571405223E+03  0.85473642349E+03  0.00000000000E+00 0. -1.
        -13    1    5    5    0    0 -0.43828050736E+01  0.52398465231E+01 -0.10692389466E+02  0.12688268770E+02  0.00000000000E+00 0.  1.
          3    1    6    6  503    0  0.59553278227E+02  0.23941973929E+02  0.49952048337E+02  0.81332762134E+02  0.00000000000E+00 0. -1.
         -3    1    6    6    0  503  0.17512453257E+03  0.86333263344E+02 -0.31181531081E+02  0.19772284175E+03  0.00000000000E+00 0.  1.
<mgrwt>
<rscale>  0 0.13710115E+04</rscale>
<asrwt>0</asrwt>
<pdfrwt beam="1">  1        2 0.15911762E+00 0.13710115E+04</pdfrwt>
<pdfrwt beam="2">  1       -1 0.69900004E-01 0.13710115E+04</pdfrwt>
<totfact> 0.55150011E+01</totfact>
</mgrwt>
</event>
<event>
12    7  0.1637954E-007  0.2147824E+04  0.7818608E-02  0.8540464E-01
         -1   -1    0    0    0  501 -0.00000000000E+00  0.00000000000E+00  0.14024602361E+04  0.14024602361E+04  0.00000000000E+00 0.  1.
          2   -1    0    0  501    0  0.00000000000E+00 -0.00000000000E+00 -0.82233161489E+03  0.82233161489E+03  0.00000000000E+00 0. -1.
         24    2    1    2    0    0  0.25009837893E+03 -0.85348812117E+03  0.18975621965E+03  0.91362984616E+03  0.87868656387E+02 0.  0.
        254    2    1    2    0    0 -0.25009837893E+03  0.85348812117E+03  0.39037240154E+03  0.13111620048E+04  0.88077466973E+03 0.  0.
         23    2    4    4    0    0  0.29438556309E+03  0.51452108197E+03  0.12573729733E+03  0.61272789660E+03  0.90723777388E+02 0.  0.
         23    2    4    4    0    0 -0.54448394203E+03  0.33896703920E+03  0.26463510421E+03  0.69843410820E+03  0.80106481201E+02 0.  0.
          2    1    3    3  502    0  0.19483906417E+03 -0.76391760269E+03  0.17154736645E+03  0.80682145705E+03  0.00000000000E+00 0. -1.
         -1    1    3    3    0  502  0.55259314760E+02 -0.89570518480E+02  0.18208853203E+02  0.10680838911E+03  0.00000000000E+00 0.  1.
         13    1    5    5    0    0  0.53568011760E+02  0.86399616870E+02 -0.12548428301E+02  0.10242992108E+03  0.00000000000E+00 0.  1.
        -13    1    5    5    0    0  0.24081755133E+03  0.42812146510E+03  0.13828572563E+03  0.51029797553E+03  0.00000000000E+00 0. -1.
          2    1    6    6  503    0 -0.93134876845E+02  0.84615740001E+02  0.28220920829E+02  0.12895871089E+03  0.00000000000E+00 0.  1.
         -2    1    6    6    0  503 -0.45134906518E+03  0.25435129920E+03  0.23641418338E+03  0.56947539731E+03  0.00000000000E+00 0. -1.
<mgrwt>
<rscale>  0 0.21478244E+04</rscale>
<asrwt>0</asrwt>
<pdfrwt beam="1">  1        2 0.12651256E+00 0.21478244E+04</pdfrwt>
<pdfrwt beam="2">  1       -1 0.21576311E+00 0.21478244E+04</pdfrwt>
<totfact> 0.40855588E+00</totfact>
</mgrwt>
</event>
<event>
12    7  0.1637954E-007  0.1221821E+04  0.7818608E-02  0.9093968E-01
         -1   -1    0    0    0  501 -0.00000000000E+00  0.00000000000E+00  0.21644087428E+03  0.21644087428E+03  0.00000000000E+00 0.  1.
          2   -1    0    0  501    0  0.00000000000E+00 -0.00000000000E+00 -0.17243134152E+04  0.17243134152E+04  0.00000000000E+00 0. -1.
         24    2    1    2    0    0 -0.48098988943E+02  0.23691976271E+03 -0.60089661132E+03  0.65268854912E+03  0.80505390852E+02 0.  0.
        254    2    1    2    0    0  0.48098988943E+02 -0.23691976271E+03 -0.90697592957E+03  0.12880657403E+04  0.88207909391E+03 0.  0.
         23    2    4    4    0    0  0.10745864154E+03 -0.45394524818E+03 -0.93007242498E+03  0.10444386155E+04  0.90574046752E+02 0.  0.
         23    2    4    4    0    0 -0.59359652593E+02  0.21702548547E+03  0.23096495405E+02  0.24362712479E+03  0.90537827094E+02 0.  0.
          2    1    3    3  502    0 -0.59544103618E+02  0.96485932519E+02 -0.24723956794E+03  0.27199713125E+03  0.00000000000E+00 0. -1.
         -1    1    3    3    0  502  0.11445114675E+02  0.14043383019E+03 -0.35365704338E+03  0.38069141788E+03  0.00000000000E+00 0.  1.
         13    1    5    5    0    0  0.42803415604E+02 -0.16541273261E+03 -0.44082634580E+03  0.47278046877E+03  0.00000000000E+00 0. -1.
        -13    1    5    5    0    0  0.64655225931E+02 -0.28853251558E+03 -0.48924607918E+03  0.57165814677E+03  0.00000000000E+00 0.  1.
          2    1    6    6  503    0  0.13683239326E+02  0.17200128308E+02 -0.16158174829E+02  0.27279334047E+02  0.00000000000E+00 0. -1.
         -2    1    6    6    0  503 -0.73042891919E+02  0.19982535716E+03  0.39254670234E+02  0.21634779075E+03  0.00000000000E+00 0.  1.
<mgrwt>
<rscale>  0 0.12218214E+04</rscale>
<asrwt>0</asrwt>
<pdfrwt beam="1">  1        2 0.26527899E+00 0.12218214E+04</pdfrwt>
<pdfrwt beam="2">  1       -1 0.33298596E-01 0.12218214E+04</pdfrwt>
<totfact> 0.90523124E+01</totfact>
</mgrwt>
</event>
<event>
12    7  0.1637954E-007  0.1302344E+04  0.7818608E-02  0.9027708E-01
          2   -1    0    0  501    0  0.00000000000E+00  0.00000000000E+00  0.22598054574E+04  0.22598054574E+04  0.00000000000E+00 0. -1.
         -1   -1    0    0    0  501 -0.00000000000E+00 -0.00000000000E+00 -0.18763789194E+03  0.18763789194E+03  0.00000000000E+00 0.  1.
         24    2    1    2    0    0 -0.19111974899E+03 -0.27168923927E+03  0.60993411208E+03  0.69879203844E+03  0.77129052367E+02 0.  0.
        254    2    1    2    0    0  0.19111974899E+03  0.27168923927E+03  0.14622334534E+04  0.17486513109E+04  0.89961821557E+03 0.  0.
         23    2    4    4    0    0 -0.22787432106E+03  0.42348452362E+03  0.90933963517E+03  0.10326557352E+04  0.90628072136E+02 0.  0.
         23    2    4    4    0    0  0.41899407005E+03 -0.15179528436E+03  0.55289381822E+03  0.71599557569E+03  0.91434408687E+02 0.  0.
          4    1    3    3  502    0  0.57190969086E+01 -0.17136775905E+02  0.21147747593E+02  0.27813744554E+02  0.00000000000E+00 0. -1.
         -3    1    3    3    0  502 -0.19683884590E+03 -0.25455246336E+03  0.58878636448E+03  0.67097829388E+03  0.00000000000E+00 0.  1.
         13    1    5    5    0    0 -0.11903854117E+03  0.30425468011E+03  0.64213579286E+03  0.72047169349E+03  0.00000000000E+00 0.  1.
        -13    1    5    5    0    0 -0.10883577989E+03  0.11922984352E+03  0.26720384231E+03  0.31218404174E+03  0.00000000000E+00 0. -1.
          2    1    6    6  503    0  0.33346253783E+03 -0.80049737969E+02  0.40476418268E+03  0.53050849971E+03  0.00000000000E+00 0. -1.
         -2    1    6    6    0  503  0.85531532227E+02 -0.71745546389E+02  0.14812963554E+03  0.18548707599E+03  0.00000000000E+00 0.  1.
<mgrwt>
<rscale>  0 0.13023442E+04</rscale>
<asrwt>0</asrwt>
<pdfrwt beam="1">  1        2 0.34766236E+00 0.13023442E+04</pdfrwt>
<pdfrwt beam="2">  1       -1 0.28867370E-01 0.13023442E+04</pdfrwt>
<totfact> 0.58367288E+01</totfact>
</mgrwt>
</event>
<event>
12    7  0.1637954E-007  0.2991115E+04  0.7818608E-02  0.8246273E-01
          2   -1    0    0  501    0  0.00000000000E+00  0.00000000000E+00  0.18199829692E+04  0.18199829692E+04  0.00000000000E+00 0. -1.
         -1   -1    0    0    0  501 -0.00000000000E+00 -0.00000000000E+00 -0.12289634902E+04  0.12289634902E+04  0.00000000000E+00 0.  1.
         24    2    1    2    0    0  0.53821570698E+03  0.78774481102E+03 -0.71866194998E+03  0.11970709984E+04  0.79283935057E+02 0.  0.
        254    2    1    2    0    0 -0.53821570698E+03 -0.78774481102E+03  0.13096814290E+04  0.18518754609E+04  0.89663774345E+03 0.  0.
         23    2    4    4    0    0 -0.33929190402E+03 -0.76685223269E+03  0.43195337686E+03  0.94717602496E+03  0.85891557001E+02 0.  0.
         23    2    4    4    0    0 -0.19892380295E+03 -0.20892578330E+02  0.87772805209E+03  0.90469943598E+03  0.89818465955E+02 0.  0.
          2    1    3    3  502    0  0.29236693503E+03  0.47662944569E+03 -0.45498014688E+03  0.72087515372E+03  0.00000000000E+00 0. -1.
         -1    1    3    3    0  502  0.24584877195E+03  0.31111536533E+03 -0.26368180310E+03  0.47619584469E+03  0.00000000000E+00 0.  1.
         13    1    5    5    0    0 -0.13302932367E+03 -0.33191176154E+03  0.13884000634E+03  0.38358671218E+03  0.00000000000E+00 0. -1.
        -13    1    5    5    0    0 -0.20626258035E+03 -0.43494047115E+03  0.29311337052E+03  0.56358931278E+03  0.00000000000E+00 0.  1.
          3    1    6    6  503    0 -0.10923499794E+03 -0.15832355861E+02  0.29279658293E+03  0.31291019038E+03  0.00000000000E+00 0. -1.
         -3    1    6    6    0  503 -0.89688805012E+02 -0.50602224697E+01  0.58493146916E+03  0.59178924560E+03  0.00000000000E+00 0.  1.
<mgrwt>
<rscale>  0 0.29911153E+04</rscale>
<asrwt>0</asrwt>
<pdfrwt beam="1">  1        2 0.27999738E+00 0.29911153E+04</pdfrwt>
<pdfrwt beam="2">  1       -1 0.18907131E+00 0.29911153E+04</pdfrwt>
<totfact> 0.14708035E+00</totfact>
</mgrwt>
</event>
<event>
12    7  0.1637954E-007  0.1047283E+04  0.7818608E-02  0.9258154E-01
         -1   -1    0    0    0  501 -0.00000000000E+00  0.00000000000E+00  0.11286587013E+03  0.11286587013E+03  0.00000000000E+00 0.  1.
          2   -1    0    0  501    0  0.00000000000E+00 -0.00000000000E+00 -0.24294341795E+04  0.24294341795E+04  0.00000000000E+00 0. -1.
         24    2    1    2    0    0 -0.47184648209E+02 -0.12663155456E+03 -0.34973500268E+03  0.38334179933E+03  0.79839973542E+02 0.  0.
        254    2    1    2    0    0  0.47184648209E+02  0.12663155456E+03 -0.19668333067E+04  0.21589582503E+04  0.88000314126E+03 0.  0.
         23    2    4    4    0    0  0.43399840815E+00 -0.25126840989E+03 -0.16227469336E+03  0.31241194206E+03  0.90178396905E+02 0.  0.
         23    2    4    4    0    0  0.46750649801E+02  0.37789996445E+03 -0.18045586133E+04  0.18465463083E+04  0.91145340990E+02 0.  0.
          2    1    3    3  502    0 -0.17591148361E+02 -0.52917008636E+02 -0.55896913116E+02  0.78956463950E+02  0.00000000000E+00 0. -1.
         -1    1    3    3    0  502 -0.29593499848E+02 -0.73714545924E+02 -0.29383808956E+03  0.30438533538E+03  0.00000000000E+00 0.  1.
         13    1    5    5    0    0 -0.87783803664E+01 -0.24885798304E+03 -0.13442568143E+03  0.28297989242E+03  0.00000000000E+00 0. -1.
        -13    1    5    5    0    0  0.92123787746E+01 -0.24104268508E+01 -0.27849011929E+02  0.29432049635E+02  0.00000000000E+00 0.  1.
          3    1    6    6  503    0  0.44688379751E+02  0.35928885334E+03 -0.17750484875E+04  0.18115967168E+04  0.00000000000E+00 0. -1.
         -3    1    6    6    0  503  0.20622700494E+01  0.18611111114E+02 -0.29510125824E+02  0.34949591426E+02  0.00000000000E+00 0.  1.
<mgrwt>
<rscale>  0 0.10472826E+04</rscale>
<asrwt>0</asrwt>
<pdfrwt beam="1">  1        2 0.37375910E+00 0.10472826E+04</pdfrwt>
<pdfrwt beam="2">  1       -1 0.17363980E-01 0.10472826E+04</pdfrwt>
<totfact> 0.11328351E+02</totfact>
</mgrwt>
</event>
<event>
12    7  0.1637954E-007  0.1327207E+04  0.7818608E-02  0.9008264E-01
          2   -1    0    0  501    0  0.00000000000E+00  0.00000000000E+00  0.10280040928E+04  0.10280040928E+04  0.00000000000E+00 0. -1.
         -1   -1    0    0    0  501 -0.00000000000E+00 -0.00000000000E+00 -0.42837310919E+03  0.42837310919E+03  0.00000000000E+00 0.  1.
         24    2    1    2    0    0  0.18069460594E+03  0.23081292170E+03 -0.60202739483E+02  0.31113768544E+03  0.85188872637E+02 0.  0.
        254    2    1    2    0    0 -0.18069460594E+03 -0.23081292170E+03  0.65983372308E+03  0.11452395165E+04  0.88897011349E+03 0.  0.
         23    2    4    4    0    0 -0.26781672260E+03 -0.53517047752E+03  0.43868990574E+03  0.74760295574E+03  0.91258474245E+02 0.  0.
         23    2    4    4    0    0  0.87122116659E+02  0.30435755582E+03  0.22114381734E+03  0.39763656079E+03  0.94796948974E+02 0.  0.
          2    1    3    3  502    0 -0.44148466062E+01  0.31277137773E+02  0.29687364251E+01  0.31726386712E+02  0.00000000000E+00 0. -1.
         -1    1    3    3    0  502  0.18510945255E+03  0.19953578393E+03 -0.63171475908E+02  0.27941129873E+03  0.00000000000E+00 0.  1.
         13    1    5    5    0    0 -0.83555180638E+02 -0.10131322502E+03  0.12570741692E+03  0.18179161819E+03  0.00000000000E+00 0.  1.
        -13    1    5    5    0    0 -0.18426154197E+03 -0.43385725250E+03  0.31298248882E+03  0.56581133755E+03  0.00000000000E+00 0. -1.
          2    1    6    6  503    0 -0.15195908647E+02  0.10325978775E+03  0.60228863015E+02  0.12050317567E+03  0.00000000000E+00 0. -1.
         -2    1    6    6    0  503  0.10231802531E+03  0.20109776807E+03  0.16091495433E+03  0.27713338513E+03  0.00000000000E+00 0.  1.
<mgrwt>
<rscale>  0 0.13272066E+04</rscale>
<asrwt>0</asrwt>
<pdfrwt beam="1">  1        2 0.15815448E+00 0.13272066E+04</pdfrwt>
<pdfrwt beam="2">  1       -1 0.65903555E-01 0.13272066E+04</pdfrwt>
<totfact> 0.62955319E+01</totfact>
</mgrwt>
</event>
<event>
12    7  0.1637954E-007  0.2301001E+04  0.7818608E-02  0.8477526E-01
         -1   -1    0    0    0  501 -0.00000000000E+00  0.00000000000E+00  0.90791635143E+03  0.90791635143E+03  0.00000000000E+00 0.  1.
          2   -1    0    0  501    0  0.00000000000E+00 -0.00000000000E+00 -0.14579004050E+04  0.14579004050E+04  0.00000000000E+00 0. -1.
         24    2    1    2    0    0  0.23205092886E+02 -0.35029878555E+03  0.69096987579E+03  0.77918449914E+03  0.80258326406E+02 0.  0.
        254    2    1    2    0    0 -0.23205092886E+02  0.35029878555E+03 -0.12409539293E+04  0.15866322573E+04  0.92422267315E+03 0.  0.
         23    2    4    4    0    0 -0.87042388289E+02  0.65245933310E+03 -0.86503188184E+03  0.10910552459E+04  0.94031028159E+02 0.  0.
         23    2    4    4    0    0  0.63837295403E+02 -0.30216054755E+03 -0.37592204749E+03  0.49557701138E+03  0.94355665658E+02 0.  0.
          4    1    3    3  502    0 -0.84851722747E+01 -0.53493827166E+02  0.57959983249E+02  0.79328099383E+02  0.00000000000E+00 0. -1.
         -3    1    3    3    0  502  0.31690265160E+02 -0.29680495838E+03  0.63300989254E+03  0.69985639975E+03  0.00000000000E+00 0.  1.
         13    1    5    5    0    0 -0.85392980022E+02  0.57185753441E+03 -0.70428240629E+03  0.91122264486E+03  0.00000000000E+00 0. -1.
        -13    1    5    5    0    0 -0.16494082668E+01  0.80601798687E+02 -0.16074947555E+03  0.17983260102E+03  0.00000000000E+00 0.  1.
          3    1    6    6  503    0  0.46394211905E+02 -0.50470881055E+02 -0.10476318779E+03  0.12520007288E+03  0.00000000000E+00 0. -1.
         -3    1    6    6    0  503  0.17443083499E+02 -0.25168966649E+03 -0.27115885970E+03  0.37037693850E+03  0.00000000000E+00 0.  1.
<mgrwt>
<rscale>  0 0.23010012E+04</rscale>
<asrwt>0</asrwt>
<pdfrwt beam="1">  1        2 0.22429237E+00 0.23010012E+04</pdfrwt>
<pdfrwt beam="2">  1       -1 0.13967944E+00 0.23010012E+04</pdfrwt>
<totfact> 0.58406855E+00</totfact>
</mgrwt>
</event>
<event>
12    7  0.1637954E-007  0.1353697E+04  0.7818608E-02  0.8988034E-01
         -1   -1    0    0    0  501 -0.00000000000E+00  0.00000000000E+00  0.52663987036E+03  0.52663987036E+03  0.00000000000E+00 0.  1.
          2   -1    0    0  501    0  0.00000000000E+00 -0.00000000000E+00 -0.86989985298E+03  0.86989985298E+03  0.00000000000E+00 0. -1.
         24    2    1    2    0    0 -0.37736992562E+03 -0.25092699034E+02 -0.16014594023E+03  0.41811722579E+03  0.78342759826E+02 0.  0.
        254    2    1    2    0    0  0.37736992562E+03  0.25092699034E+02 -0.18311404238E+03  0.97842249755E+03  0.88359613336E+03 0.  0.
         23    2    4    4    0    0  0.43694319633E+03 -0.22179605282E+03  0.17649788681E+03  0.52850708285E+03  0.89751806184E+02 0.  0.
         23    2    4    4    0    0 -0.59573270706E+02  0.24688875186E+03 -0.35961192919E+03  0.44991541469E+03  0.92736780105E+02 0.  0.
          2    1    3    3  502    0 -0.37064476504E+02  0.10434081509E+02  0.38375762645E+01  0.38695897289E+02  0.00000000000E+00 0. -1.
         -1    1    3    3    0  502 -0.34030544912E+03 -0.35526780543E+02 -0.16398351650E+03  0.37942132850E+03  0.00000000000E+00 0.  1.
         13    1    5    5    0    0  0.21615801479E+03 -0.12415764182E+03  0.44018744735E+02  0.25313446480E+03  0.00000000000E+00 0. -1.
        -13    1    5    5    0    0  0.22078518154E+03 -0.97638411000E+02  0.13247914208E+03  0.27537261806E+03  0.00000000000E+00 0.  1.
          1    1    6    6  503    0 -0.66243300488E+02  0.24968634417E+03 -0.35949331372E+03  0.44268147457E+03  0.00000000000E+00 0. -1.
         -1    1    6    6    0  503  0.66700297818E+01 -0.27975923114E+01 -0.11861547745E+00  0.72339401202E+01  0.00000000000E+00 0.  1.
<mgrwt>
<rscale>  0 0.13536971E+04</rscale>
<asrwt>0</asrwt>
<pdfrwt beam="1">  1        2 0.13383075E+00 0.13536971E+04</pdfrwt>
<pdfrwt beam="2">  1       -1 0.81021519E-01 0.13536971E+04</pdfrwt>
<totfact> 0.52043004E+01</totfact>
</mgrwt>
</event>
<event>
12    7  0.1637954E-007  0.1290520E+04  0.7818608E-02  0.9037117E-01
         -1   -1    0    0    0  501 -0.00000000000E+00  0.00000000000E+00  0.17212748014E+04  0.17212748014E+04  0.00000000000E+00 0.  1.
          2   -1    0    0  501    0  0.00000000000E+00 -0.00000000000E+00 -0.24189063367E+03  0.24189063367E+03  0.00000000000E+00 0. -1.
         24    2    1    2    0    0  0.17336199406E+03 -0.27335313796E+03  0.34617182122E+03  0.48050987265E+03  0.79236916221E+02 0.  0.
        254    2    1    2    0    0 -0.17336199406E+03  0.27335313796E+03  0.11332123465E+04  0.14826555624E+04  0.89962268503E+03 0.  0.
         23    2    4    4    0    0 -0.32924672847E+03 -0.18794150926E+03  0.22910810604E+03  0.45236871357E+03  0.91768783621E+02 0.  0.
         23    2    4    4    0    0  0.15588473442E+03  0.46129464723E+03  0.90410424043E+03  0.10302868488E+04  0.83628411872E+02 0.  0.
          4    1    3    3  502    0  0.78377941136E+02 -0.12436708622E+03  0.10121502955E+03  0.17847900717E+03  0.00000000000E+00 0. -1.
         -3    1    3    3    0  502  0.94984052922E+02 -0.14898605174E+03  0.24495679166E+03  0.30203086549E+03  0.00000000000E+00 0.  1.
         13    1    5    5    0    0 -0.23389241856E+03 -0.15972726793E+03  0.12885459538E+03  0.31116228938E+03  0.00000000000E+00 0.  1.
        -13    1    5    5    0    0 -0.95354309914E+02 -0.28214241331E+02  0.10025351066E+03  0.14120642419E+03  0.00000000000E+00 0. -1.
          3    1    6    6  503    0  0.97593504026E+02  0.20437144116E+03  0.35229514457E+03  0.41881266322E+03  0.00000000000E+00 0. -1.
         -3    1    6    6    0  503  0.58291230391E+02  0.25692320606E+03  0.55180909586E+03  0.61147418558E+03  0.00000000000E+00 0.  1.
<mgrwt>
<rscale>  0 0.12905197E+04</rscale>
<asrwt>0</asrwt>
<pdfrwt beam="1">  1        2 0.37213945E-01 0.12905197E+04</pdfrwt>
<pdfrwt beam="2">  1       -1 0.26481150E+00 0.12905197E+04</pdfrwt>
<totfact> 0.87897525E+00</totfact>
</mgrwt>
</event>
<event>
12    7  0.1637954E-007  0.2194139E+04  0.7818608E-02  0.8520871E-01
         -1   -1    0    0    0  501 -0.00000000000E+00  0.00000000000E+00  0.79229731091E+03  0.79229731091E+03  0.00000000000E+00 0.  1.
          2   -1    0    0  501    0  0.00000000000E+00 -0.00000000000E+00 -0.15190782531E+04  0.15190782531E+04  0.00000000000E+00 0. -1.
         24    2    1    2    0    0  0.67784237183E+02  0.56766892543E+03  0.43042496156E+03  0.72006013382E+03  0.79863865888E+02 0.  0.
        254    2    1    2    0    0 -0.67784237183E+02 -0.56766892543E+03 -0.11572059037E+04  0.15913154302E+04  0.93076129217E+03 0.  0.
         23    2    4    4    0    0 -0.38936300946E+03 -0.76014051205E+02 -0.79983306315E+03  0.89745557005E+03  0.91169524411E+02 0.  0.
         23    2    4    4    0    0  0.32157877228E+03 -0.49165487422E+03 -0.35737284056E+03  0.69385986013E+03  0.92675434682E+02 0.  0.
          2    1    3    3  502    0 -0.10922510904E+02  0.53666157741E+02  0.62300718264E+02  0.82950209327E+02  0.00000000000E+00 0. -1.
         -1    1    3    3    0  502  0.78706748087E+02  0.51400276768E+03  0.36812424329E+03  0.63710992449E+03  0.00000000000E+00 0.  1.
         13    1    5    5    0    0 -0.19153543132E+03 -0.44867877274E+02 -0.29733175069E+03  0.35651804699E+03  0.00000000000E+00 0. -1.
        -13    1    5    5    0    0 -0.19782757814E+03 -0.31146173932E+02 -0.50250131246E+03  0.54093752305E+03  0.00000000000E+00 0.  1.
          2    1    6    6  503    0  0.23421748582E+03 -0.36338579097E+03 -0.30864823755E+03  0.53119751344E+03  0.00000000000E+00 0. -1.
         -2    1    6    6    0  503  0.87361286461E+02 -0.12826908325E+03 -0.48724603016E+02  0.16266234669E+03  0.00000000000E+00 0.  1.
<mgrwt>
<rscale>  0 0.21941391E+04</rscale>
<asrwt>0</asrwt>
<pdfrwt beam="1">  1        2 0.23370434E+00 0.21941391E+04</pdfrwt>
<pdfrwt beam="2">  1       -1 0.12189190E+00 0.21941391E+04</pdfrwt>
<totfact> 0.76846747E+00</totfact>
</mgrwt>
</event>
<event>
12    7  0.1637954E-007  0.2733359E+04  0.7818608E-02  0.8324262E-01
         -1   -1    0    0    0  501 -0.00000000000E+00  0.00000000000E+00  0.76060854018E+03  0.76060854018E+03  0.00000000000E+00 0.  1.
          2   -1    0    0  501    0  0.00000000000E+00 -0.00000000000E+00 -0.24556824414E+04  0.24556824414E+04  0.00000000000E+00 0. -1.
         24    2    1    2    0    0  0.62852834118E+03  0.39303436812E+03 -0.18961825912E+04  0.20374735536E+04  0.79159157343E+02 0.  0.
        254    2    1    2    0    0 -0.62852834118E+03 -0.39303436812E+03  0.20110869006E+03  0.11788174279E+04  0.89422700305E+03 0.  0.
         23    2    4    4    0    0 -0.62221190848E+03 -0.15574528146E+03  0.47426674043E+03  0.80346219632E+03  0.96012020487E+02 0.  0.
         23    2    4    4    0    0 -0.63164326983E+01 -0.23728908667E+03 -0.27315805038E+03  0.37535523161E+03  0.99650496440E+02 0.  0.
          4    1    3    3  502    0  0.41927545923E+03  0.30502825912E+03 -0.13246904350E+04  0.14225466243E+04  0.00000000000E+00 0. -1.
         -3    1    3    3    0  502  0.20925288195E+03  0.88006109002E+02 -0.57149215620E+03  0.61492692933E+03  0.00000000000E+00 0.  1.
         13    1    5    5    0    0 -0.36794321312E+03 -0.12189975610E+03  0.23882021820E+03  0.45527667987E+03  0.00000000000E+00 0. -1.
        -13    1    5    5    0    0 -0.25426869536E+03 -0.33845525358E+02  0.23544652224E+03  0.34818551644E+03  0.00000000000E+00 0.  1.
          3    1    6    6  503    0  0.43020231230E+02 -0.63747271626E+02 -0.86881656103E+02  0.11602963890E+03  0.00000000000E+00 0. -1.
         -3    1    6    6    0  503 -0.49336663929E+02 -0.17354181504E+03 -0.18627639427E+03  0.25932559272E+03  0.00000000000E+00 0.  1.
<mgrwt>
<rscale>  0 0.27333591E+04</rscale>
<asrwt>0</asrwt>
<pdfrwt beam="1">  1        2 0.37779729E+00 0.27333591E+04</pdfrwt>
<pdfrwt beam="2">  1       -1 0.11701670E+00 0.27333591E+04</pdfrwt>
<totfact> 0.24175053E+00</totfact>
</mgrwt>
</event>
<event>
12    7  0.1637954E-007  0.1309879E+04  0.7818608E-02  0.9021767E-01
          2   -1    0    0  501    0  0.00000000000E+00  0.00000000000E+00  0.11690572804E+04  0.11690572804E+04  0.00000000000E+00 0. -1.
         -1   -1    0    0    0  501 -0.00000000000E+00 -0.00000000000E+00 -0.36691602724E+03  0.36691602724E+03  0.00000000000E+00 0.  1.
         24    2    1    2    0    0  0.29749150749E+03 -0.39404705431E+02  0.70822959482E+02  0.31826126600E+03  0.78869601273E+02 0.  0.
        254    2    1    2    0    0 -0.29749150749E+03  0.39404705431E+02  0.73131829369E+03  0.12177120417E+04  0.92625171625E+03 0.  0.
         23    2    4    4    0    0  0.22175212257E+03 -0.95352614152E+02  0.60780462261E+03  0.65963262991E+03  0.86154641646E+02 0.  0.
         23    2    4    4    0    0 -0.51924363006E+03  0.13475731958E+03  0.12351367107E+03  0.55807941175E+03  0.91779738145E+02 0.  0.
          4    1    3    3  502    0  0.71777114338E+02 -0.36515891907E+02  0.41608876818E+02  0.90645811456E+02  0.00000000000E+00 0. -1.
         -3    1    3    3    0  502  0.22571439316E+03 -0.28888135241E+01  0.29214082664E+02  0.22761545454E+03  0.00000000000E+00 0.  1.
         13    1    5    5    0    0  0.12700730993E+03 -0.75334258226E+02  0.45833171167E+03  0.48153303642E+03  0.00000000000E+00 0. -1.
        -13    1    5    5    0    0  0.94744812632E+02 -0.20018355926E+02  0.14947291095E+03  0.17809959349E+03  0.00000000000E+00 0.  1.
          4    1    6    6  503    0 -0.20639812216E+03  0.22322435339E+02  0.14016543294E+02  0.20807436036E+03  0.00000000000E+00 0. -1.
         -4    1    6    6    0  503 -0.31284550790E+03  0.11243488424E+03  0.10949712778E+03  0.35000505139E+03  0.00000000000E+00 0.  1.
<mgrwt>
<rscale>  0 0.13098792E+04</rscale>
<asrwt>0</asrwt>
<pdfrwt beam="1">  1        2 0.17985497E+00 0.13098792E+04</pdfrwt>
<pdfrwt beam="2">  1       -1 0.56448620E-01 0.13098792E+04</pdfrwt>
<totfact> 0.70120236E+01</totfact>
</mgrwt>
</event>
<event>
12    7  0.1637954E-007  0.2802228E+04  0.7818608E-02  0.8302577E-01
          2   -1    0    0  501    0  0.00000000000E+00  0.00000000000E+00  0.68158768694E+03  0.68158768694E+03  0.00000000000E+00 0. -1.
         -1   -1    0    0    0  501 -0.00000000000E+00 -0.00000000000E+00 -0.28802164581E+04  0.28802164581E+04  0.00000000000E+00 0.  1.
         24    2    1    2    0    0 -0.38683065644E+03  0.26335498433E+03  0.49344124185E+03  0.68598465322E+03  0.89982669219E+02 0.  0.
        254    2    1    2    0    0  0.38683065644E+03 -0.26335498433E+03 -0.26920700130E+04  0.28758194918E+04  0.89671789880E+03 0.  0.
         23    2    4    4    0    0 -0.99250461235E+02 -0.17764840606E+03 -0.20392391140E+04  0.20514201479E+04  0.91754285462E+02 0.  0.
         23    2    4    4    0    0  0.48608111768E+03 -0.85706578264E+02 -0.65283089903E+03  0.82439934394E+03  0.99124290850E+02 0.  0.
          4    1    3    3  502    0 -0.23236082999E+03  0.20371302689E+03  0.29118732106E+03  0.42459464031E+03  0.00000000000E+00 0. -1.
         -3    1    3    3    0  502 -0.15446982646E+03  0.59641957439E+02  0.20225392079E+03  0.26139001291E+03  0.00000000000E+00 0.  1.
         13    1    5    5    0    0 -0.21711109919E+01  0.10688979842E+02 -0.75674192668E+02  0.76456206086E+02  0.00000000000E+00 0.  1.
        -13    1    5    5    0    0 -0.97079350243E+02 -0.18833738590E+03 -0.19635649213E+04  0.19749639418E+04  0.00000000000E+00 0. -1.
          1    1    6    6  503    0  0.48905562561E+03 -0.78136824062E+02 -0.64087218431E+03  0.80993698819E+03  0.00000000000E+00 0. -1.
         -1    1    6    6    0  503 -0.29745079287E+01 -0.75697542029E+01 -0.11958714716E+02  0.14462355747E+02  0.00000000000E+00 0.  1.
<mgrwt>
<rscale>  0 0.28022277E+04</rscale>
<asrwt>0</asrwt>
<pdfrwt beam="1">  1        2 0.10485964E+00 0.28022277E+04</pdfrwt>
<pdfrwt beam="2">  1       -1 0.44311023E+00 0.28022277E+04</pdfrwt>
<totfact> 0.15162929E-01</totfact>
</mgrwt>
</event>
<event>
12    7  0.1637954E-007  0.2740749E+04  0.7818608E-02  0.8321903E-01
         -1   -1    0    0    0  501 -0.00000000000E+00  0.00000000000E+00  0.11366566079E+04  0.11366566079E+04  0.00000000000E+00 0.  1.
          2   -1    0    0  501    0  0.00000000000E+00 -0.00000000000E+00 -0.16521493085E+04  0.16521493085E+04  0.00000000000E+00 0. -1.
         24    2    1    2    0    0  0.11643253568E+04 -0.15105086346E+03 -0.54015121135E+03  0.12947958522E+04  0.79139546790E+02 0.  0.
        254    2    1    2    0    0 -0.11643253568E+04  0.15105086346E+03  0.24658510830E+02  0.14940100642E+04  0.92357356506E+03 0.  0.
         23    2    4    4    0    0 -0.12831013780E+04  0.24431654187E+02 -0.44747397920E+02  0.12873382782E+04  0.91057459596E+02 0.  0.
         23    2    4    4    0    0  0.11877602122E+03  0.12661920927E+03  0.69405908750E+02  0.20667178603E+03  0.88067471865E+02 0.  0.
          2    1    3    3  502    0  0.81301707761E+03 -0.69224044785E+02 -0.38133779362E+03  0.90067044456E+03  0.00000000000E+00 0. -1.
         -1    1    3    3    0  502  0.35130827918E+03 -0.81826818673E+02 -0.15881341772E+03  0.39412540761E+03  0.00000000000E+00 0.  1.
         13    1    5    5    0    0 -0.10366930519E+04  0.46264029415E+02 -0.11897598087E+02  0.10377930416E+04  0.00000000000E+00 0. -1.
        -13    1    5    5    0    0 -0.24640832608E+03 -0.21832375228E+02 -0.32849799834E+02  0.24954523662E+03  0.00000000000E+00 0.  1.
          3    1    6    6  503    0  0.10126564919E+03  0.56753057185E+02  0.68197060228E+02  0.13463461750E+03  0.00000000000E+00 0. -1.
         -3    1    6    6    0  503  0.17510372029E+02  0.69866152087E+02  0.12088485223E+01  0.72037168536E+02  0.00000000000E+00 0.  1.
<mgrwt>
<rscale>  0 0.27407491E+04</rscale>
<asrwt>0</asrwt>
<pdfrwt beam="1">  1        2 0.25417682E+00 0.27407491E+04</pdfrwt>
<pdfrwt beam="2">  1       -1 0.17487025E+00 0.27407491E+04</pdfrwt>
<totfact> 0.23531663E+00</totfact>
</mgrwt>
</event>
<event>
12    7  0.1637954E-007  0.2274684E+04  0.7818608E-02  0.8487970E-01
          2   -1    0    0  501    0  0.00000000000E+00  0.00000000000E+00  0.69242444337E+03  0.69242444337E+03  0.00000000000E+00 0. -1.
         -1   -1    0    0    0  501 -0.00000000000E+00 -0.00000000000E+00 -0.18681413467E+04  0.18681413467E+04  0.00000000000E+00 0.  1.
         24    2    1    2    0    0  0.79207151800E+02  0.58641860391E+01  0.57902503738E+03  0.59002284145E+03  0.80924643610E+02 0.  0.
        254    2    1    2    0    0 -0.79207151800E+02 -0.58641860391E+01 -0.17547419407E+04  0.19705429487E+04  0.89309130125E+03 0.  0.
         23    2    4    4    0    0  0.27768599121E+03 -0.19058936190E+03 -0.13448372677E+04  0.13894165665E+04  0.91963601585E+02 0.  0.
         23    2    4    4    0    0 -0.35689314301E+03  0.18472517586E+03 -0.40990467306E+03  0.58112638221E+03  0.90498204250E+02 0.  0.
          4    1    3    3  502    0  0.85353957867E+02  0.20684921727E+02  0.54899304082E+03  0.55597349125E+03  0.00000000000E+00 0. -1.
         -3    1    3    3    0  502 -0.61468060673E+01 -0.14820735687E+02  0.30031996562E+02  0.34049350194E+02  0.00000000000E+00 0.  1.
         13    1    5    5    0    0  0.23482196003E+03 -0.18860043293E+03 -0.12417802163E+04  0.12777830731E+04  0.00000000000E+00 0. -1.
        -13    1    5    5    0    0  0.42864031188E+02 -0.19889289721E+01 -0.10305705138E+03  0.11163349339E+03  0.00000000000E+00 0.  1.
          4    1    6    6  503    0 -0.22930780368E+03  0.73257918762E+02 -0.21366694572E+03  0.32187319736E+03  0.00000000000E+00 0. -1.
         -4    1    6    6    0  503 -0.12758533934E+03  0.11146725710E+03 -0.19623772734E+03  0.25925318484E+03  0.00000000000E+00 0.  1.
<mgrwt>
<rscale>  0 0.22746839E+04</rscale>
<asrwt>0</asrwt>
<pdfrwt beam="1">  1        2 0.10652684E+00 0.22746839E+04</pdfrwt>
<pdfrwt beam="2">  1       -1 0.28740636E+00 0.22746839E+04</pdfrwt>
<totfact> 0.17166524E+00</totfact>
</mgrwt>
</event>
<event>
12    7  0.1637954E-007  0.1814068E+04  0.7818608E-02  0.8698854E-01
         -1   -1    0    0    0  501 -0.00000000000E+00  0.00000000000E+00  0.67930242912E+03  0.67930242912E+03  0.00000000000E+00 0.  1.
          2   -1    0    0  501    0  0.00000000000E+00 -0.00000000000E+00 -0.12111107315E+04  0.12111107315E+04  0.00000000000E+00 0. -1.
         24    2    1    2    0    0  0.30797134989E+03 -0.18141238288E+02 -0.87534919515E+03  0.93150679806E+03  0.79329972243E+02 0.  0.
        254    2    1    2    0    0 -0.30797134989E+03  0.18141238288E+02  0.34354089273E+03  0.95890636259E+03  0.84041990122E+03 0.  0.
         23    2    4    4    0    0 -0.56971266838E+03  0.12518197276E+03  0.28668043500E+03  0.65614616582E+03  0.89994823699E+02 0.  0.
         23    2    4    4    0    0  0.26174131850E+03 -0.10704073447E+03  0.56860457736E+02  0.30276019677E+03  0.92002111120E+02 0.  0.
          2    1    3    3  502    0  0.22088425929E+03 -0.84505319736E+01 -0.71978397857E+03  0.75296098391E+03  0.00000000000E+00 0. -1.
         -1    1    3    3    0  502  0.87087090595E+02 -0.96907063147E+01 -0.15556521658E+03  0.17854581414E+03  0.00000000000E+00 0.  1.
         13    1    5    5    0    0 -0.79898181172E+02  0.12335670775E+02  0.75485286737E+01  0.81196480300E+02  0.00000000000E+00 0. -1.
        -13    1    5    5    0    0 -0.48981448721E+03  0.11284630199E+03  0.27913190632E+03  0.57494968552E+03  0.00000000000E+00 0.  1.
          3    1    6    6  503    0  0.15969408394E+03 -0.25411842705E+02  0.58813829618E+02  0.17206693102E+03  0.00000000000E+00 0. -1.
         -3    1    6    6    0  503  0.10204723455E+03 -0.81628891770E+02 -0.19533718813E+01  0.13069326575E+03  0.00000000000E+00 0.  1.
<mgrwt>
<rscale>  0 0.18140678E+04</rscale>
<asrwt>0</asrwt>
<pdfrwt beam="1">  1        2 0.18632473E+00 0.18140678E+04</pdfrwt>
<pdfrwt beam="2">  1       -1 0.10450807E+00 0.18140678E+04</pdfrwt>
<totfact> 0.17265361E+01</totfact>
</mgrwt>
</event>
<event>
12    7  0.1637954E-007  0.1814173E+04  0.7818608E-02  0.8698798E-01
          2   -1    0    0  501    0  0.00000000000E+00  0.00000000000E+00  0.60510166668E+03  0.60510166668E+03  0.00000000000E+00 0. -1.
         -1   -1    0    0    0  501 -0.00000000000E+00 -0.00000000000E+00 -0.13597818242E+04  0.13597818242E+04  0.00000000000E+00 0.  1.
         24    2    1    2    0    0  0.29542936878E+03  0.27489807608E+03  0.30552291255E+03  0.51231712987E+03  0.79228323802E+02 0.  0.
        254    2    1    2    0    0 -0.29542936878E+03 -0.27489807608E+03 -0.10602030701E+04  0.14525663610E+04  0.90723261582E+03 0.  0.
         23    2    4    4    0    0  0.18471356307E+03 -0.30468421568E+03 -0.11097519748E+03  0.38438752559E+03  0.92123307062E+02 0.  0.
         23    2    4    4    0    0 -0.48014293185E+03  0.29786139600E+02 -0.94922787261E+03  0.10681788354E+04  0.92455509527E+02 0.  0.
          4    1    3    3  502    0  0.27137455204E+03  0.25076950007E+03  0.30353700257E+03  0.47818845824E+03  0.00000000000E+00 0. -1.
         -3    1    3    3    0  502  0.24054816737E+02  0.24128576014E+02  0.19859099736E+01  0.34128671629E+02  0.00000000000E+00 0.  1.
         13    1    5    5    0    0 -0.20719695181E+01  0.31981610062E+01  0.47944527150E+01  0.61243830989E+01  0.00000000000E+00 0.  1.
        -13    1    5    5    0    0  0.18678553259E+03 -0.30788237669E+03 -0.11576965019E+03  0.37826314249E+03  0.00000000000E+00 0. -1.
          3    1    6    6  503    0 -0.46376083278E+03  0.46135238527E+02 -0.91511340895E+03  0.10269542938E+04  0.00000000000E+00 0. -1.
         -3    1    6    6    0  503 -0.16382099072E+02 -0.16349098927E+02 -0.34114463657E+02  0.41224541675E+02  0.00000000000E+00 0.  1.
<mgrwt>
<rscale>  0 0.18141734E+04</rscale>
<asrwt>0</asrwt>
<pdfrwt beam="1">  1        2 0.93092564E-01 0.18141734E+04</pdfrwt>
<pdfrwt beam="2">  1       -1 0.20919720E+00 0.18141734E+04</pdfrwt>
<totfact> 0.68822602E+00</totfact>
</mgrwt>
</event>
<event>
12    7  0.1637954E-007  0.1407660E+04  0.7818608E-02  0.8948293E-01
          2   -1    0    0  501    0  0.00000000000E+00  0.00000000000E+00  0.28310134608E+04  0.28310134608E+04  0.00000000000E+00 0. -1.
         -1   -1    0    0    0  501 -0.00000000000E+00 -0.00000000000E+00 -0.17498206210E+03  0.17498206210E+03  0.00000000000E+00 0.  1.
         24    2    1    2    0    0  0.89132007355E+02 -0.12277830485E+03 -0.35820799412E+02  0.17501534666E+03  0.79550078672E+02 0.  0.
        254    2    1    2    0    0 -0.89132007355E+02  0.12277830485E+03  0.26918521981E+04  0.28309801763E+04  0.86334319652E+03 0.  0.
         23    2    4    4    0    0 -0.33277998276E+03 -0.61641566131E+02  0.46847058670E+03  0.58494039860E+03  0.90268376044E+02 0.  0.
         23    2    4    4    0    0  0.24364797541E+03  0.18441987098E+03  0.22233816114E+04  0.22460397777E+04  0.88847442726E+02 0.  0.
          2    1    3    3  502    0  0.42428376593E+02 -0.74372627679E+02  0.19626610524E+02  0.87844514507E+02  0.00000000000E+00 0. -1.
         -3    1    3    3    0  502  0.46703630762E+02 -0.48405677173E+02 -0.55447409935E+02  0.87170832148E+02  0.00000000000E+00 0.  1.
         13    1    5    5    0    0 -0.24943734289E+03 -0.10622982508E+02  0.30122319779E+03  0.39123809972E+03  0.00000000000E+00 0. -1.
        -13    1    5    5    0    0 -0.83342639872E+02 -0.51018583623E+02  0.16724738891E+03  0.19370229889E+03  0.00000000000E+00 0.  1.
          3    1    6    6  503    0  0.85935043906E+02  0.16843408367E+02  0.55621756265E+03  0.56306883165E+03  0.00000000000E+00 0. -1.
         -3    1    6    6    0  503  0.15771293150E+03  0.16757646262E+03  0.16671640488E+04  0.16829709460E+04  0.00000000000E+00 0.  1.
<mgrwt>
<rscale>  0 0.14076599E+04</rscale>
<asrwt>0</asrwt>
<pdfrwt beam="1">  1        2 0.43554050E+00 0.14076599E+04</pdfrwt>
<pdfrwt beam="2">  1       -1 0.26920319E-01 0.14076599E+04</pdfrwt>
<totfact> 0.30450843E+01</totfact>
</mgrwt>
</event>
<event>
12    7  0.1637954E-007  0.1988453E+04  0.7818608E-02  0.8612038E-01
          2   -1    0    0  501    0  0.00000000000E+00  0.00000000000E+00  0.18613978226E+04  0.18613978226E+04  0.00000000000E+00 0. -1.
         -1   -1    0    0    0  501 -0.00000000000E+00 -0.00000000000E+00 -0.53104504810E+03  0.53104504810E+03  0.00000000000E+00 0.  1.
         24    2    1    2    0    0  0.77418544644E+03 -0.34970808599E+01  0.72766946111E+03  0.10659252527E+04  0.85548025456E+02 0.  0.
        254    2    1    2    0    0 -0.77418544644E+03  0.34970808599E+01  0.60268331341E+03  0.13265176180E+04  0.89277459619E+03 0.  0.
         23    2    4    4    0    0 -0.80889237718E+03  0.17598401904E+03  0.16890489356E+03  0.84971922963E+03  0.90645757276E+02 0.  0.
         23    2    4    4    0    0  0.34706930738E+02 -0.17248693818E+03  0.43377841985E+03  0.47679838840E+03  0.90645853555E+02 0.  0.
          4    1    3    3  502    0  0.61385483916E+03 -0.19631147918E+02  0.61608618423E+03  0.86992260111E+03  0.00000000000E+00 0. -1.
         -3    1    3    3    0  502  0.16033060728E+03  0.16134067058E+02  0.11158327689E+03  0.19600265159E+03  0.00000000000E+00 0.  1.
         13    1    5    5    0    0 -0.60339327749E+03  0.16992397877E+03  0.13717518690E+03  0.64169668675E+03  0.00000000000E+00 0. -1.
        -13    1    5    5    0    0 -0.20549909969E+03  0.60600402690E+01  0.31729706665E+02  0.20802254288E+03  0.00000000000E+00 0.  1.
          4    1    6    6  503    0  0.32122681293E+02 -0.17162543131E+03  0.33314959934E+03  0.37613270380E+03  0.00000000000E+00 0. -1.
         -4    1    6    6    0  503  0.25842494446E+01 -0.86150687765E+00  0.10062882051E+03  0.10066568460E+03  0.00000000000E+00 0.  1.
<mgrwt>
<rscale>  0 0.19884528E+04</rscale>
<asrwt>0</asrwt>
<pdfrwt beam="1">  1        2 0.28636889E+00 0.19884528E+04</pdfrwt>
<pdfrwt beam="2">  1       -1 0.81699239E-01 0.19884528E+04</pdfrwt>
<totfact> 0.12597254E+01</totfact>
</mgrwt>
</event>
<event>
12    7  0.1637954E-007  0.1928660E+04  0.7818608E-02  0.8640721E-01
          2   -1    0    0  501    0  0.00000000000E+00  0.00000000000E+00  0.24288654035E+04  0.24288654035E+04  0.00000000000E+00 0. -1.
         -1   -1    0    0    0  501 -0.00000000000E+00 -0.00000000000E+00 -0.38286686574E+03  0.38286686574E+03  0.00000000000E+00 0.  1.
         24    2    1    2    0    0 -0.33498753780E+03  0.16796392851E+03  0.17479026159E+04  0.17893153366E+04  0.77828576065E+02 0.  0.
        254    2    1    2    0    0  0.33498753780E+03 -0.16796392851E+03  0.29809592182E+03  0.10224169326E+04  0.90335301724E+03 0.  0.
         23    2    4    4    0    0  0.59689352524E+03  0.79244887301E+02  0.18029250298E+03  0.63463280357E+03  0.87702771300E+02 0.  0.
         23    2    4    4    0    0 -0.26190598744E+03 -0.24720881581E+03  0.11780341884E+03  0.38778412906E+03  0.82413229445E+02 0.  0.
          2    1    3    3  502    0 -0.32255183805E+03  0.15553035198E+03  0.17152290018E+04  0.17522100066E+04  0.00000000000E+00 0. -1.
         -1    1    3    3    0  502 -0.12435699749E+02  0.12433576529E+02  0.32673614075E+02  0.37105329944E+02  0.00000000000E+00 0.  1.
         13    1    5    5    0    0  0.66493210945E+02 -0.18787023150E+02  0.19696600871E+02  0.71848837335E+02  0.00000000000E+00 0.  1.
        -13    1    5    5    0    0  0.53040031430E+03  0.98031910451E+02  0.16059590211E+03  0.56278396623E+03  0.00000000000E+00 0. -1.
          2    1    6    6  503    0 -0.23859689658E+03 -0.18543342523E+03  0.10867392429E+03  0.32112934476E+03  0.00000000000E+00 0. -1.
         -2    1    6    6    0  503 -0.23309090862E+02 -0.61775390583E+02  0.91294945520E+01  0.66654784294E+02  0.00000000000E+00 0.  1.
<mgrwt>
<rscale>  0 0.19286597E+04</rscale>
<asrwt>0</asrwt>
<pdfrwt beam="1">  1        2 0.37367159E+00 0.19286597E+04</pdfrwt>
<pdfrwt beam="2">  1       -1 0.58902596E-01 0.19286597E+04</pdfrwt>
<totfact> 0.11898247E+01</totfact>
</mgrwt>
</event>
<event>
12    7  0.1637954E-007  0.2188532E+04  0.7818608E-02  0.8523217E-01
          2   -1    0    0  501    0  0.00000000000E+00  0.00000000000E+00  0.21307898800E+04  0.21307898800E+04  0.00000000000E+00 0. -1.
         -1   -1    0    0    0  501 -0.00000000000E+00 -0.00000000000E+00 -0.56195974359E+03  0.56195974359E+03  0.00000000000E+00 0.  1.
         24    2    1    2    0    0  0.97950446451E+02 -0.32862648644E+03  0.16634472899E+04  0.17007893764E+04  0.89654666275E+02 0.  0.
        254    2    1    2    0    0 -0.97950446451E+02  0.32862648644E+03 -0.94617153410E+02  0.99196024723E+03  0.92598221841E+03 0.  0.
         23    2    4    4    0    0 -0.20828048738E+02  0.21312073137E+03  0.40323436728E+03  0.46576165536E+03  0.92096204577E+02 0.  0.
         23    2    4    4    0    0 -0.77122397713E+02  0.11550575507E+03 -0.49785152069E+03  0.52619859186E+03  0.98688285748E+02 0.  0.
          2    1    3    3  502    0  0.94735135766E+02 -0.17597219021E+03  0.85466750596E+03  0.87772290811E+03  0.00000000000E+00 0. -1.
         -1    1    3    3    0  502  0.32153106850E+01 -0.15265429623E+03  0.80877978390E+03  0.82306646830E+03  0.00000000000E+00 0.  1.
         13    1    5    5    0    0  0.33663773618E+02  0.44231234444E+02  0.91975950154E+02  0.10746733067E+03  0.00000000000E+00 0.  1.
        -13    1    5    5    0    0 -0.54491822357E+02  0.16888949693E+03  0.31125841713E+03  0.35829432469E+03  0.00000000000E+00 0. -1.
          3    1    6    6  503    0 -0.97009202100E+02  0.10334252451E+03 -0.36962065586E+03  0.39586600246E+03  0.00000000000E+00 0. -1.
         -3    1    6    6    0  503  0.19886804387E+02  0.12163230562E+02 -0.12823086483E+03  0.13033258941E+03  0.00000000000E+00 0.  1.
<mgrwt>
<rscale>  0 0.21885321E+04</rscale>
<asrwt>0</asrwt>
<pdfrwt beam="1">  1        2 0.32781382E+00 0.21885321E+04</pdfrwt>
<pdfrwt beam="2">  1       -1 0.86455346E-01 0.21885321E+04</pdfrwt>
<totfact> 0.77580121E+00</totfact>
</mgrwt>
</event>
<event>
12    7  0.1637954E-007  0.2507913E+04  0.7818608E-02  0.8400172E-01
          2   -1    0    0  501    0  0.00000000000E+00  0.00000000000E+00  0.98607150308E+03  0.98607150308E+03  0.00000000000E+00 0. -1.
         -1   -1    0    0    0  501 -0.00000000000E+00 -0.00000000000E+00 -0.15946179368E+04  0.15946179368E+04  0.00000000000E+00 0.  1.
         24    2    1    2    0    0 -0.61666267866E+03 -0.26919696772E+03 -0.11452226054E+04  0.13307189697E+04  0.80859716950E+02 0.  0.
        254    2    1    2    0    0  0.61666267866E+03  0.26919696772E+03  0.53667617168E+03  0.12499704701E+04  0.90645738802E+03 0.  0.
         23    2    4    4    0    0 -0.51522929608E+02  0.40788983398E+03  0.31939026636E+03  0.52847666302E+03  0.90822421042E+02 0.  0.
         23    2    4    4    0    0  0.66818560827E+03 -0.13869286627E+03  0.21728590531E+03  0.72149380712E+03  0.87363784376E+02 0.  0.
          2    1    3    3  502    0 -0.30416469627E+03 -0.10612250301E+03 -0.48393646138E+03  0.58135414917E+03  0.00000000000E+00 0. -1.
         -1    1    3    3    0  502 -0.31249798238E+03 -0.16307446471E+03 -0.66128614398E+03  0.74936482054E+03  0.00000000000E+00 0.  1.
         13    1    5    5    0    0  0.90362038657E+01  0.55517682518E+02  0.81511650727E+02  0.99035424252E+02  0.00000000000E+00 0.  1.
        -13    1    5    5    0    0 -0.60559133473E+02  0.35237215147E+03  0.23787861564E+03  0.42944123877E+03  0.00000000000E+00 0. -1.
          1    1    6    6  503    0  0.44381232981E+03 -0.50774287508E+02  0.15138745198E+03  0.47166256262E+03  0.00000000000E+00 0. -1.
         -1    1    6    6    0  503  0.22437327845E+03 -0.87918578759E+02  0.65898453334E+02  0.24983124450E+03  0.00000000000E+00 0.  1.
<mgrwt>
<rscale>  0 0.25079133E+04</rscale>
<asrwt>0</asrwt>
<pdfrwt beam="1">  1        2 0.15170331E+00 0.25079133E+04</pdfrwt>
<pdfrwt beam="2">  1       -1 0.24532584E+00 0.25079133E+04</pdfrwt>
<totfact> 0.19547420E+00</totfact>
</mgrwt>
</event>
<event>
12    7  0.1637954E-007  0.1303002E+04  0.7818608E-02  0.9027188E-01
          2   -1    0    0  501    0  0.00000000000E+00  0.00000000000E+00  0.12429577043E+04  0.12429577043E+04  0.00000000000E+00 0. -1.
         -1   -1    0    0    0  501 -0.00000000000E+00 -0.00000000000E+00 -0.34148677190E+03  0.34148677190E+03  0.00000000000E+00 0.  1.
         24    2    1    2    0    0  0.14998694674E+03  0.23119727572E+03  0.14908084650E+01  0.28663799006E+03  0.78808948381E+02 0.  0.
        254    2    1    2    0    0 -0.14998694674E+03 -0.23119727572E+03  0.89998012394E+03  0.12978064861E+04  0.89352626569E+03 0.  0.
         23    2    4    4    0    0  0.29983141327E+03  0.78520219423E+02  0.12819124339E+03  0.34805127866E+03  0.92964490264E+02 0.  0.
         23    2    4    4    0    0 -0.44981836001E+03 -0.30971749514E+03  0.77178888055E+03  0.94975520748E+03  0.90085482690E+02 0.  0.
          4    1    3    3  502    0  0.44047979127E+02  0.36637289262E+02 -0.26899450044E+02  0.63293726721E+02  0.00000000000E+00 0. -1.
         -3    1    3    3    0  502  0.10593896761E+03  0.19455998646E+03  0.28390258509E+02  0.22334426334E+03  0.00000000000E+00 0.  1.
         13    1    5    5    0    0  0.34635960379E+02 -0.75746873461E+01 -0.10035969783E+02  0.36847609546E+02  0.00000000000E+00 0.  1.
        -13    1    5    5    0    0  0.26519545289E+03  0.86094906769E+02  0.13822721317E+03  0.31120366911E+03  0.00000000000E+00 0. -1.
          4    1    6    6  503    0 -0.38775759939E+03 -0.24563038251E+03  0.68998543183E+03  0.82871595667E+03  0.00000000000E+00 0. -1.
         -4    1    6    6    0  503 -0.62060760624E+02 -0.64087112633E+02  0.81803448719E+02  0.12103925081E+03  0.00000000000E+00 0.  1.
<mgrwt>
<rscale>  0 0.13030021E+04</rscale>
<asrwt>0</asrwt>
<pdfrwt beam="1">  1        2 0.19122426E+00 0.13030021E+04</pdfrwt>
<pdfrwt beam="2">  1       -1 0.52536427E-01 0.13030021E+04</pdfrwt>
<totfact> 0.72821574E+01</totfact>
</mgrwt>
</event>
<event>
12    7  0.1637954E-007  0.1470884E+04  0.7818608E-02  0.8904049E-01
         -1   -1    0    0    0  501 -0.00000000000E+00  0.00000000000E+00  0.52157879055E+03  0.52157879055E+03  0.00000000000E+00 0.  1.
          2   -1    0    0  501    0  0.00000000000E+00 -0.00000000000E+00 -0.10369949700E+04  0.10369949700E+04  0.00000000000E+00 0. -1.
         24    2    1    2    0    0  0.13962579392E+03  0.22370633492E+03 -0.55416659186E+03  0.61913993056E+03  0.81815374282E+02 0.  0.
        254    2    1    2    0    0 -0.13962579392E+03 -0.22370633492E+03  0.38750412451E+02  0.93943382994E+03  0.90082986172E+03 0.  0.
         23    2    4    4    0    0 -0.16487119631E+03 -0.19307746415E+03  0.44578605588E+03  0.52044170866E+03  0.87595353499E+02 0.  0.
         23    2    4    4    0    0  0.25245402396E+02 -0.30628870771E+02 -0.40703564343E+03  0.41899212128E+03  0.91109410080E+02 0.  0.
          4    1    3    3  502    0  0.11259186431E+03  0.10634130170E+03 -0.33481562464E+03  0.36889958370E+03  0.00000000000E+00 0. -1.
         -3    1    3    3    0  502  0.27033929608E+02  0.11736503322E+03 -0.21935096722E+03  0.25024034685E+03  0.00000000000E+00 0.  1.
         13    1    5    5    0    0 -0.82917812498E+02 -0.72920045898E+02  0.11676504693E+03  0.16070710285E+03  0.00000000000E+00 0. -1.
        -13    1    5    5    0    0 -0.81953383814E+02 -0.12015741825E+03  0.32902100896E+03  0.35973460581E+03  0.00000000000E+00 0.  1.
          1    1    6    6  503    0 -0.13494073644E+02 -0.44631358739E+02 -0.11543137311E+03  0.12449277129E+03  0.00000000000E+00 0. -1.
         -1    1    6    6    0  503  0.38739476040E+02  0.14002487967E+02 -0.29160427032E+03  0.29449934999E+03  0.00000000000E+00 0.  1.
<mgrwt>
<rscale>  0 0.14708835E+04</rscale>
<asrwt>0</asrwt>
<pdfrwt beam="1">  1        2 0.15953769E+00 0.14708835E+04</pdfrwt>
<pdfrwt beam="2">  1       -1 0.80242892E-01 0.14708835E+04</pdfrwt>
<totfact> 0.40847904E+01</totfact>
</mgrwt>
</event>
<event>
12    7  0.1637954E-007  0.2012937E+04  0.7818608E-02  0.8600596E-01
         -1   -1    0    0    0  501 -0.00000000000E+00  0.00000000000E+00  0.79877223894E+03  0.79877223894E+03  0.00000000000E+00 0.  1.
          2   -1    0    0  501    0  0.00000000000E+00 -0.00000000000E+00 -0.12681700127E+04  0.12681700127E+04  0.00000000000E+00 0. -1.
         24    2    1    2    0    0  0.84519561704E+02 -0.55044008235E+03  0.40662513747E+03  0.69315892920E+03  0.70692702143E+02 0.  0.
        254    2    1    2    0    0 -0.84519561704E+02  0.55044008235E+03 -0.87602291119E+03  0.13737833224E+04  0.89985367444E+03 0.  0.
         23    2    4    4    0    0 -0.33465085305E+03 -0.85325125319E+02 -0.40609195426E+03  0.53971503719E+03  0.84321264165E+02 0.  0.
         23    2    4    4    0    0  0.25013129135E+03  0.63576520767E+03 -0.46993095693E+03  0.83406828521E+03  0.89842851218E+02 0.  0.
          2    1    3    3  502    0  0.30863020643E+02 -0.36213840990E+03  0.23514110081E+03  0.43288346152E+03  0.00000000000E+00 0. -1.
         -1    1    3    3    0  502  0.53656541060E+02 -0.18830167246E+03  0.17148403666E+03  0.26027546768E+03  0.00000000000E+00 0.  1.
         13    1    5    5    0    0 -0.28872745213E+03 -0.99659061160E+02 -0.32974032132E+03  0.44947096634E+03  0.00000000000E+00 0.  1.
        -13    1    5    5    0    0 -0.45923400929E+02  0.14333935842E+02 -0.76351632945E+02  0.90244070846E+02  0.00000000000E+00 0. -1.
          1    1    6    6  503    0  0.24111539025E+03  0.60654663637E+03 -0.46851766208E+03  0.80345768600E+03  0.00000000000E+00 0.  1.
         -1    1    6    6    0  503  0.90159011012E+01  0.29218571305E+02 -0.14132948414E+01  0.30610599212E+02  0.00000000000E+00 0. -1.
<mgrwt>
<rscale>  0 0.20129372E+04</rscale>
<asrwt>0</asrwt>
<pdfrwt beam="1">  1        2 0.19510308E+00 0.20129372E+04</pdfrwt>
<pdfrwt beam="2">  1       -1 0.12288804E+00 0.20129372E+04</pdfrwt>
<totfact> 0.10660127E+01</totfact>
</mgrwt>
</event>
<event>
12    7  0.1637954E-007  0.2476359E+04  0.7818608E-02  0.8411456E-01
         -1   -1    0    0    0  501 -0.00000000000E+00  0.00000000000E+00  0.63086235991E+03  0.63086235991E+03  0.00000000000E+00 0.  1.
          2   -1    0    0  501    0  0.00000000000E+00 -0.00000000000E+00 -0.24301479627E+04  0.24301479627E+04  0.00000000000E+00 0. -1.
         24    2    1    2    0    0 -0.10511518170E+04 -0.31243095832E+02 -0.10449121240E+04  0.14846255307E+04  0.79845765119E+02 0.  0.
        254    2    1    2    0    0  0.10511518170E+04  0.31243095832E+02 -0.75437347880E+03  0.15763847919E+04  0.90000744072E+03 0.  0.
         23    2    4    4    0    0  0.10497343352E+04 -0.63650237555E+02 -0.89506404091E+03  0.13842617356E+04  0.95117757996E+02 0.  0.
         23    2    4    4    0    0  0.14174817215E+01  0.94893333387E+02  0.14069056211E+03  0.19212305636E+03  0.90059316809E+02 0.  0.
          4    1    3    3  502    0 -0.55303215081E+03  0.90047002137E+01 -0.59207448474E+03  0.81023320096E+03  0.00000000000E+00 0. -1.
         -3    1    3    3    0  502 -0.49811966614E+03 -0.40247796046E+02 -0.45283763926E+03  0.67439232974E+03  0.00000000000E+00 0.  1.
         13    1    5    5    0    0  0.68293192377E+03 -0.24985667064E+02 -0.52487824821E+03  0.86169453491E+03  0.00000000000E+00 0.  1.
        -13    1    5    5    0    0  0.36680241147E+03 -0.38664570491E+02 -0.37018579270E+03  0.52256720064E+03  0.00000000000E+00 0. -1.
          2    1    6    6  503    0  0.29023263841E+02  0.10448530747E+02  0.70432318303E+01  0.31640618726E+02  0.00000000000E+00 0. -1.
         -2    1    6    6    0  503 -0.27605782119E+02  0.84444802640E+02  0.13364733028E+03  0.16048243764E+03  0.00000000000E+00 0.  1.
<mgrwt>
<rscale>  0 0.24763593E+04</rscale>
<asrwt>0</asrwt>
<pdfrwt beam="1">  1        2 0.37386892E+00 0.24763593E+04</pdfrwt>
<pdfrwt beam="2">  1       -1 0.97055747E-01 0.24763593E+04</pdfrwt>
<totfact> 0.39608463E+00</totfact>
</mgrwt>
</event>
<event>
12    7  0.1637954E-007  0.2079682E+04  0.7818608E-02  0.8570247E-01
          2   -1    0    0  501    0  0.00000000000E+00  0.00000000000E+00  0.18988091238E+04  0.18988091238E+04  0.00000000000E+00 0. -1.
         -1   -1    0    0    0  501 -0.00000000000E+00 -0.00000000000E+00 -0.56944606881E+03  0.56944606881E+03  0.00000000000E+00 0.  1.
         24    2    1    2    0    0  0.87548280763E+02 -0.29874283196E+03 -0.38800958651E+03  0.50365561691E+03  0.78775377565E+02 0.  0.
        254    2    1    2    0    0 -0.87548280763E+02  0.29874283196E+03  0.17173726415E+04  0.19645995757E+04  0.90187067920E+03 0.  0.
         23    2    4    4    0    0 -0.76508632496E+02 -0.29178224079E+03  0.88966123488E+03  0.94372179535E+03  0.90129170053E+02 0.  0.
         23    2    4    4    0    0 -0.11039648266E+02  0.59052507275E+03  0.82771140663E+03  0.10208777804E+04  0.90793911674E+02 0.  0.
          4    1    3    3  502    0 -0.91863868175E+01 -0.43708295443E+02 -0.84582742333E+02  0.95650640844E+02  0.00000000000E+00 0. -1.
         -3    1    3    3    0  502  0.96734667580E+02 -0.25503453652E+03 -0.30342684418E+03  0.40800497607E+03  0.00000000000E+00 0.  1.
         13    1    5    5    0    0 -0.93851353476E+02 -0.21018754012E+03  0.68808109842E+03  0.72556355792E+03  0.00000000000E+00 0.  1.
        -13    1    5    5    0    0  0.17342720980E+02 -0.81594700662E+02  0.20158013646E+03  0.21815823744E+03  0.00000000000E+00 0. -1.
          2    1    6    6  503    0  0.11101179959E+02  0.50606003885E+03  0.74436789055E+03  0.90016862621E+03  0.00000000000E+00 0.  1.
         -2    1    6    6    0  503 -0.22140828225E+02  0.84465033895E+02  0.83343516081E+02  0.12070915416E+03  0.00000000000E+00 0. -1.
<mgrwt>
<rscale>  0 0.20796821E+04</rscale>
<asrwt>0</asrwt>
<pdfrwt beam="1">  1        2 0.29212448E+00 0.20796821E+04</pdfrwt>
<pdfrwt beam="2">  1       -1 0.87607088E-01 0.20796821E+04</pdfrwt>
<totfact> 0.10244059E+01</totfact>
</mgrwt>
</event>
<event>
12    7  0.1637954E-007  0.1813166E+04  0.7818608E-02  0.8699329E-01
          2   -1    0    0  501    0  0.00000000000E+00  0.00000000000E+00  0.80225373674E+03  0.80225373674E+03  0.00000000000E+00 0. -1.
         -1   -1    0    0    0  501 -0.00000000000E+00 -0.00000000000E+00 -0.10244798253E+04  0.10244798253E+04  0.00000000000E+00 0.  1.
         24    2    1    2    0    0  0.43660600888E+03 -0.48914979550E+03  0.25003681030E+02  0.66093518310E+03  0.79484607124E+02 0.  0.
        254    2    1    2    0    0 -0.43660600888E+03  0.48914979550E+03 -0.24722976960E+03  0.11657983789E+04  0.93170326388E+03 0.  0.
         23    2    4    4    0    0 -0.20821127142E+03  0.27178301354E+03 -0.59199048083E+03  0.68976665686E+03  0.90040943676E+02 0.  0.
         23    2    4    4    0    0 -0.22839473746E+03  0.21736678196E+03  0.34476071123E+03  0.47603172207E+03  0.91289530669E+02 0.  0.
          4    1    3    3  502    0  0.42003155867E+03 -0.44441721028E+03  0.12539618964E+02  0.61162930695E+03  0.00000000000E+00 0. -1.
         -3    1    3    3    0  502  0.16574450206E+02 -0.44732585218E+02  0.12464062066E+02  0.49305876152E+02  0.00000000000E+00 0.  1.
         13    1    5    5    0    0 -0.13471800542E+03  0.20040436365E+03 -0.48409522932E+03  0.54097970480E+03  0.00000000000E+00 0. -1.
        -13    1    5    5    0    0 -0.73493265996E+02  0.71378649888E+02 -0.10789525150E+03  0.14878695206E+03  0.00000000000E+00 0.  1.
          3    1    6    6  503    0 -0.22853136774E+03  0.21710355840E+03  0.34986407330E+03  0.47091974995E+03  0.00000000000E+00 0. -1.
         -3    1    6    6    0  503  0.13663027815E+00  0.26322356863E+00 -0.51033620734E+01  0.51119721177E+01  0.00000000000E+00 0.  1.
<mgrwt>
<rscale>  0 0.18131660E+04</rscale>
<asrwt>0</asrwt>
<pdfrwt beam="1">  1        2 0.12342365E+00 0.18131660E+04</pdfrwt>
<pdfrwt beam="2">  1       -1 0.15761228E+00 0.18131660E+04</pdfrwt>
<totfact> 0.11257771E+01</totfact>
</mgrwt>
</event>
<event>
12    7  0.1637954E-007  0.1659834E+04  0.7818608E-02  0.8784610E-01
         -1   -1    0    0    0  501 -0.00000000000E+00  0.00000000000E+00  0.55628991629E+03  0.55628991629E+03  0.00000000000E+00 0.  1.
          2   -1    0    0  501    0  0.00000000000E+00 -0.00000000000E+00 -0.12381348842E+04  0.12381348842E+04  0.00000000000E+00 0. -1.
         24    2    1    2    0    0  0.49199734291E+03 -0.19183056260E+03  0.33310910841E+01  0.53379752943E+03  0.77899653871E+02 0.  0.
        254    2    1    2    0    0 -0.49199734291E+03  0.19183056260E+03 -0.68517605902E+03  0.12606272711E+04  0.91698120731E+03 0.  0.
         23    2    4    4    0    0 -0.46196535369E+03  0.15768342224E+03  0.66669912796E+02  0.50186576190E+03  0.95646829724E+02 0.  0.
         23    2    4    4    0    0 -0.30031989227E+02  0.34147140361E+02 -0.75184597181E+03  0.75876150918E+03  0.91535320567E+02 0.  0.
          2    1    3    3  502    0  0.25663134442E+03 -0.93401087441E+02 -0.36709690846E+02  0.27555582279E+03  0.00000000000E+00 0. -1.
         -1    1    3    3    0  502  0.23536599849E+03 -0.98429475162E+02  0.40040781930E+02  0.25824170663E+03  0.00000000000E+00 0.  1.
         13    1    5    5    0    0 -0.44774932892E+03  0.12996166057E+03  0.61060162431E+02  0.47021041907E+03  0.00000000000E+00 0. -1.
        -13    1    5    5    0    0 -0.14216024768E+02  0.27721761673E+02  0.56097503646E+01  0.31655342828E+02  0.00000000000E+00 0.  1.
          2    1    6    6  503    0 -0.28931986686E+02 -0.25278235965E+02 -0.40912804709E+03  0.41092798393E+03  0.00000000000E+00 0. -1.
         -2    1    6    6    0  503 -0.11000025411E+01  0.59425376325E+02 -0.34271792473E+03  0.34783352525E+03  0.00000000000E+00 0.  1.
<mgrwt>
<rscale>  0 0.16598337E+04</rscale>
<asrwt>0</asrwt>
<pdfrwt beam="1">  1        2 0.19048229E+00 0.16598337E+04</pdfrwt>
<pdfrwt beam="2">  1       -1 0.85583065E-01 0.16598337E+04</pdfrwt>
<totfact> 0.26391817E+01</totfact>
</mgrwt>
</event>
<event>
12    7  0.1637954E-007  0.1888309E+04  0.7818608E-02  0.8660698E-01
         -1   -1    0    0    0  501 -0.00000000000E+00  0.00000000000E+00  0.57634997078E+03  0.57634997078E+03  0.00000000000E+00 0.  1.
          2   -1    0    0  501    0  0.00000000000E+00 -0.00000000000E+00 -0.15466779563E+04  0.15466779563E+04  0.00000000000E+00 0. -1.
         24    2    1    2    0    0 -0.54868841309E+03 -0.46468482824E+03 -0.26249128348E+03  0.76961602103E+03  0.80101071516E+02 0.  0.
        254    2    1    2    0    0  0.54868841309E+03  0.46468482824E+03 -0.70783670204E+03  0.13534119061E+04  0.90205322816E+03 0.  0.
         23    2    4    4    0    0 -0.10963515003E+03  0.21632986841E+03 -0.57566750217E+03  0.63184094441E+03  0.94928541015E+02 0.  0.
         23    2    4    4    0    0  0.65832356313E+03  0.24835495983E+03 -0.13216919988E+03  0.72157096164E+03  0.90143526931E+02 0.  0.
          4    1    3    3  502    0 -0.15424648272E+03 -0.13157859827E+03 -0.36327579305E+02  0.20597232332E+03  0.00000000000E+00 0. -1.
         -3    1    3    3    0  502 -0.39444193037E+03 -0.33310622997E+03 -0.22616370418E+03  0.56364369771E+03  0.00000000000E+00 0.  1.
         13    1    5    5    0    0 -0.57364232860E+02  0.25856214257E+02 -0.14055901330E+03  0.15400011444E+03  0.00000000000E+00 0. -1.
        -13    1    5    5    0    0 -0.52270917174E+02  0.19047365415E+03 -0.43510848887E+03  0.47784082998E+03  0.00000000000E+00 0.  1.
          1    1    6    6  503    0  0.45851701114E+03  0.21548490674E+03 -0.85874433661E+02  0.51385407743E+03  0.00000000000E+00 0. -1.
         -1    1    6    6    0  503  0.19980655199E+03  0.32870053098E+02 -0.46294766215E+02  0.20771688421E+03  0.00000000000E+00 0.  1.
<mgrwt>
<rscale>  0 0.18883091E+04</rscale>
<asrwt>0</asrwt>
<pdfrwt beam="1">  1        2 0.23795046E+00 0.18883091E+04</pdfrwt>
<pdfrwt beam="2">  1       -1 0.88669225E-01 0.18883091E+04</pdfrwt>
<totfact> 0.15928511E+01</totfact>
</mgrwt>
</event>
<event>
12    7  0.1637954E-007  0.1196708E+04  0.7818608E-02  0.9115743E-01
          2   -1    0    0  501    0  0.00000000000E+00  0.00000000000E+00  0.10931641373E+04  0.10931641373E+04  0.00000000000E+00 0. -1.
         -1   -1    0    0    0  501 -0.00000000000E+00 -0.00000000000E+00 -0.32751475607E+03  0.32751475607E+03  0.00000000000E+00 0.  1.
         24    2    1    2    0    0 -0.19511624981E+01 -0.44185447700E+02  0.46901989294E+03  0.47853035356E+03  0.83996895674E+02 0.  0.
        254    2    1    2    0    0  0.19511624981E+01  0.44185447700E+02  0.29662948832E+03  0.94214853984E+03  0.89313977459E+03 0.  0.
         23    2    4    4    0    0 -0.36980304604E+03  0.18422535645E+03 -0.21445562244E+02  0.42491335353E+03  0.96944164606E+02 0.  0.
         23    2    4    4    0    0  0.37175420854E+03 -0.14003990875E+03  0.31807505057E+03  0.51723518630E+03  0.92456111478E+02 0.  0.
          2    1    3    3  502    0  0.20809980009E+02 -0.35597638432E+02  0.43362639520E+03  0.43558248099E+03  0.00000000000E+00 0. -1.
         -1    1    3    3    0  502 -0.22761142507E+02 -0.85878092674E+01  0.35393497737E+02  0.42947872570E+02  0.00000000000E+00 0.  1.
         13    1    5    5    0    0 -0.35465725783E+03  0.16223777233E+03 -0.40516407869E+02  0.39210259449E+03  0.00000000000E+00 0. -1.
        -13    1    5    5    0    0 -0.15145788210E+02  0.21987584117E+02  0.19070845625E+02  0.32810759038E+02  0.00000000000E+00 0.  1.
          3    1    6    6  503    0  0.33910051430E+03 -0.14717765611E+03  0.26624484114E+03  0.45556200093E+03  0.00000000000E+00 0. -1.
         -3    1    6    6    0  503  0.32653694233E+02  0.71377473634E+01  0.51830209428E+02  0.61673185372E+02  0.00000000000E+00 0.  1.
<mgrwt>
<rscale>  0 0.11967078E+04</rscale>
<asrwt>0</asrwt>
<pdfrwt beam="1">  1        2 0.16817910E+00 0.11967078E+04</pdfrwt>
<pdfrwt beam="2">  1       -1 0.50386886E-01 0.11967078E+04</pdfrwt>
<totfact> 0.97901131E+01</totfact>
</mgrwt>
</event>
<event>
12    7  0.1637954E-007  0.3401703E+04  0.7818608E-02  0.8137488E-01
         -1   -1    0    0    0  501 -0.00000000000E+00  0.00000000000E+00  0.17008934929E+04  0.17008934929E+04  0.00000000000E+00 0.  1.
          2   -1    0    0  501    0  0.00000000000E+00 -0.00000000000E+00 -0.17008099271E+04  0.17008099271E+04  0.00000000000E+00 0. -1.
         24    2    1    2    0    0 -0.16239787941E+03  0.11665583135E+04 -0.10566795192E+04  0.15844442179E+04  0.81611905494E+02 0.  0.
        254    2    1    2    0    0  0.16239787941E+03 -0.11665583135E+04  0.10567630850E+04  0.18172592021E+04  0.89356108897E+03 0.  0.
         23    2    4    4    0    0  0.43395774233E+03 -0.25541046909E+03  0.26163240561E+03  0.57428211962E+03  0.88287073814E+02 0.  0.
         23    2    4    4    0    0 -0.27155986292E+03 -0.91114784445E+03  0.79513067942E+03  0.12429770825E+04  0.93936556764E+02 0.  0.
          4    1    3    3  502    0 -0.74569460255E+02  0.72191798023E+03 -0.60949589762E+03  0.94774016682E+03  0.00000000000E+00 0. -1.
         -3    1    3    3    0  502 -0.87828419153E+02  0.44464033331E+03 -0.44718362160E+03  0.63670405106E+03  0.00000000000E+00 0.  1.
         13    1    5    5    0    0  0.51622296120E+02 -0.65690306708E+02  0.30808477728E+02  0.89046280955E+02  0.00000000000E+00 0.  1.
        -13    1    5    5    0    0  0.38233544621E+03 -0.18972016238E+03  0.23082392788E+03  0.48523583867E+03  0.00000000000E+00 0. -1.
          3    1    6    6  503    0 -0.25038085364E+03 -0.87907978398E+03  0.78022086711E+03  0.12017555658E+04  0.00000000000E+00 0. -1.
         -3    1    6    6    0  503 -0.21179009279E+02 -0.32068060467E+02  0.14909812311E+02  0.41221516703E+02  0.00000000000E+00 0.  1.
<mgrwt>
<rscale>  0 0.34017034E+04</rscale>
<asrwt>0</asrwt>
<pdfrwt beam="1">  1        2 0.26166307E+00 0.34017034E+04</pdfrwt>
<pdfrwt beam="2">  1       -1 0.26167592E+00 0.34017034E+04</pdfrwt>
<totfact> 0.54041443E-01</totfact>
</mgrwt>
</event>
<event>
12    7  0.1637954E-007  0.1987206E+04  0.7818608E-02  0.8612626E-01
          2   -1    0    0  501    0  0.00000000000E+00  0.00000000000E+00  0.21806652467E+04  0.21806652467E+04  0.00000000000E+00 0. -1.
         -1   -1    0    0    0  501 -0.00000000000E+00 -0.00000000000E+00 -0.45272740339E+03  0.45272740339E+03  0.00000000000E+00 0.  1.
         24    2    1    2    0    0  0.46908314017E+03 -0.61805123952E+03  0.79598870976E+03  0.11142673277E+04  0.77248459304E+02 0.  0.
        254    2    1    2    0    0 -0.46908314017E+03  0.61805123952E+03  0.93194913351E+03  0.15191253223E+04  0.91497881421E+03 0.  0.
         23    2    4    4    0    0  0.26082433727E+03  0.20230958137E+03  0.17402108627E+03  0.38417299505E+03  0.91362191479E+02 0.  0.
         23    2    4    4    0    0 -0.72990747744E+03  0.41574165816E+03  0.75792804725E+03  0.11349523273E+04  0.89754155761E+02 0.  0.
          2    1    3    3  502    0  0.39894124222E+03 -0.47439425997E+03  0.62873464362E+03  0.88289936048E+03  0.00000000000E+00 0. -1.
         -1    1    3    3    0  502  0.70141897954E+02 -0.14365697955E+03  0.16725406614E+03  0.23136796723E+03  0.00000000000E+00 0.  1.
         13    1    5    5    0    0  0.25433132849E+03  0.16289305614E+03  0.16034599245E+03  0.34194942562E+03  0.00000000000E+00 0. -1.
        -13    1    5    5    0    0  0.64930087823E+01  0.39416525225E+02  0.13675093817E+02  0.42223569423E+02  0.00000000000E+00 0.  1.
          3    1    6    6  503    0 -0.33172674784E+03  0.14367256499E+03  0.35255417981E+03  0.50495434533E+03  0.00000000000E+00 0. -1.
         -3    1    6    6    0  503 -0.39818072960E+03  0.27206909317E+03  0.40537386744E+03  0.62999798197E+03  0.00000000000E+00 0.  1.
<mgrwt>
<rscale>  0 0.19872060E+04</rscale>
<asrwt>0</asrwt>
<pdfrwt beam="1">  1        2 0.33548696E+00 0.19872060E+04</pdfrwt>
<pdfrwt beam="2">  1       -1 0.69650371E-01 0.19872060E+04</pdfrwt>
<totfact> 0.11686900E+01</totfact>
</mgrwt>
</event>
<event>
12    7  0.1637954E-007  0.1447639E+04  0.7818608E-02  0.8920039E-01
         -1   -1    0    0    0  501 -0.00000000000E+00  0.00000000000E+00  0.11753675732E+04  0.11753675732E+04  0.00000000000E+00 0.  1.
          2   -1    0    0  501    0  0.00000000000E+00 -0.00000000000E+00 -0.44574542206E+03  0.44574542206E+03  0.00000000000E+00 0. -1.
         24    2    1    2    0    0  0.52685712442E+02 -0.28268356592E+03 -0.14830373582E+03  0.33344969291E+03  0.80677858815E+02 0.  0.
        254    2    1    2    0    0 -0.52685712442E+02  0.28268356592E+03  0.87792588700E+03  0.12876633024E+04  0.89701568244E+03 0.  0.
         23    2    4    4    0    0 -0.37760830585E+03 -0.84487272581E+02  0.58980563364E+03  0.71177363491E+03  0.94999421068E+02 0.  0.
         23    2    4    4    0    0  0.32492259341E+03  0.36717083850E+03  0.28812025336E+03  0.57588966749E+03  0.90810309827E+02 0.  0.
          4    1    3    3  502    0  0.33639888566E+02 -0.26487021710E+03 -0.11389559367E+03  0.29027586925E+03  0.00000000000E+00 0. -1.
         -3    1    3    3    0  502  0.19045823876E+02 -0.17813348822E+02 -0.34408142144E+02  0.43173823657E+02  0.00000000000E+00 0.  1.
         13    1    5    5    0    0 -0.19914087337E+03 -0.84758303158E+02  0.27562899239E+03  0.35044599990E+03  0.00000000000E+00 0. -1.
        -13    1    5    5    0    0 -0.17846743248E+03  0.27103057651E+00  0.31417664125E+03  0.36132763501E+03  0.00000000000E+00 0.  1.
          1    1    6    6  503    0  0.26433833957E+03  0.27075137314E+03  0.18062270920E+03  0.41929181592E+03  0.00000000000E+00 0. -1.
         -1    1    6    6    0  503  0.60584253847E+02  0.96419465362E+02  0.10749754417E+03  0.15659785157E+03  0.00000000000E+00 0.  1.
<mgrwt>
<rscale>  0 0.14476391E+04</rscale>
<asrwt>0</asrwt>
<pdfrwt beam="1">  1        2 0.68576219E-01 0.14476391E+04</pdfrwt>
<pdfrwt beam="2">  1       -1 0.18082578E+00 0.14476391E+04</pdfrwt>
<totfact> 0.16010283E+01</totfact>
</mgrwt>
</event>
<event>
12    7  0.1637954E-007  0.1173315E+04  0.7818608E-02  0.9136540E-01
         -1   -1    0    0    0  501 -0.00000000000E+00  0.00000000000E+00  0.12420057971E+03  0.12420057971E+03  0.00000000000E+00 0.  1.
          2   -1    0    0  501    0  0.00000000000E+00 -0.00000000000E+00 -0.27710572703E+04  0.27710572703E+04  0.00000000000E+00 0. -1.
         24    2    1    2    0    0  0.60420247771E+02 -0.54939922858E+02 -0.10393302293E+04  0.10455757304E+04  0.79701197723E+02 0.  0.
        254    2    1    2    0    0 -0.60420247771E+02  0.54939922858E+02 -0.16075264613E+04  0.18496821196E+04  0.91132519910E+03 0.  0.
         23    2    4    4    0    0  0.31209537017E+02 -0.17755620392E+03  0.18528552555E+02  0.20193473775E+03  0.89073510648E+02 0.  0.
         23    2    4    4    0    0 -0.91629784788E+02  0.23249612678E+03 -0.16260550138E+04  0.16477473819E+04  0.92553012187E+02 0.  0.
          4    1    3    3  502    0  0.61592587208E+02 -0.27247850633E+02 -0.39888375735E+03  0.40452978140E+03  0.00000000000E+00 0. -1.
         -1    1    3    3    0  502 -0.11723394368E+01 -0.27692072225E+02 -0.64044647197E+03  0.64104594898E+03  0.00000000000E+00 0.  1.
         13    1    5    5    0    0  0.22343841313E+02 -0.16398504979E+03  0.44446720504E+02  0.17136468354E+03  0.00000000000E+00 0.  1.
        -13    1    5    5    0    0  0.88656957042E+01 -0.13571154124E+02 -0.25918167949E+02  0.30570054211E+02  0.00000000000E+00 0. -1.
          3    1    6    6  503    0 -0.68317490580E+02  0.10084358473E+03 -0.54438567183E+03  0.55784627613E+03  0.00000000000E+00 0. -1.
         -3    1    6    6    0  503 -0.23312294208E+02  0.13165254204E+03 -0.10816693420E+04  0.10899011057E+04  0.00000000000E+00 0.  1.
<mgrwt>
<rscale>  0 0.11733148E+04</rscale>
<asrwt>0</asrwt>
<pdfrwt beam="1">  1        2 0.42631648E+00 0.11733148E+04</pdfrwt>
<pdfrwt beam="2">  1       -1 0.19107782E-01 0.11733148E+04</pdfrwt>
<totfact> 0.60513059E+01</totfact>
</mgrwt>
</event>
<event>
12    7  0.1637954E-007  0.2283456E+04  0.7818608E-02  0.8484473E-01
         -1   -1    0    0    0  501 -0.00000000000E+00  0.00000000000E+00  0.86473035523E+03  0.86473035523E+03  0.00000000000E+00 0.  1.
          2   -1    0    0  501    0  0.00000000000E+00 -0.00000000000E+00 -0.15074558877E+04  0.15074558877E+04  0.00000000000E+00 0. -1.
         24    2    1    2    0    0  0.14667331969E+03  0.21936685217E+02  0.70545298708E+03  0.72523008228E+03  0.79375527735E+02 0.  0.
        254    2    1    2    0    0 -0.14667331969E+03 -0.21936685217E+02 -0.13481785196E+04  0.16469561607E+04  0.93428314426E+03 0.  0.
         23    2    4    4    0    0  0.42911716538E+02  0.36609751383E+03 -0.22785412752E+03  0.44285407114E+03  0.91287566818E+02 0.  0.
         23    2    4    4    0    0 -0.18958503623E+03 -0.38803419904E+03 -0.11203243920E+04  0.12041020895E+04  0.90675647049E+02 0.  0.
          4    1    3    3  502    0  0.48260301815E+02 -0.23676017669E+02  0.33273628637E+03  0.33705051077E+03  0.00000000000E+00 0. -1.
         -3    1    3    3    0  502  0.98413017879E+02  0.45612702886E+02  0.37271670071E+03  0.38817957151E+03  0.00000000000E+00 0.  1.
         13    1    5    5    0    0  0.37270649321E+02  0.14177344774E+03 -0.13739048012E+03  0.20091031783E+03  0.00000000000E+00 0. -1.
        -13    1    5    5    0    0  0.56410672167E+01  0.22432406609E+03 -0.90463647400E+02  0.24194375331E+03  0.00000000000E+00 0.  1.
          4    1    6    6  503    0 -0.19214889177E+03 -0.35863590855E+03 -0.98740712935E+03  0.10679483839E+04  0.00000000000E+00 0. -1.
         -4    1    6    6    0  503  0.25638555387E+01 -0.29398290492E+02 -0.13291726269E+03  0.13615370564E+03  0.00000000000E+00 0.  1.
<mgrwt>
<rscale>  0 0.22834560E+04</rscale>
<asrwt>0</asrwt>
<pdfrwt beam="1">  1        2 0.23191629E+00 0.22834560E+04</pdfrwt>
<pdfrwt beam="2">  1       -1 0.13303544E+00 0.22834560E+04</pdfrwt>
<totfact> 0.62178742E+00</totfact>
</mgrwt>
</event>
<event>
12    7  0.1637954E-007  0.1703174E+04  0.7818608E-02  0.8759556E-01
         -1   -1    0    0    0  501 -0.00000000000E+00  0.00000000000E+00  0.26704483921E+03  0.26704483921E+03  0.00000000000E+00 0.  1.
          2   -1    0    0  501    0  0.00000000000E+00 -0.00000000000E+00 -0.27156507749E+04  0.27156507749E+04  0.00000000000E+00 0. -1.
         24    2    1    2    0    0 -0.13652021409E+03 -0.49742627427E+03 -0.14398138522E+04  0.15315865461E+04  0.81380293909E+02 0.  0.
        254    2    1    2    0    0  0.13652021409E+03  0.49742627427E+03 -0.10087920835E+04  0.14511090679E+04  0.90663410047E+03 0.  0.
         23    2    4    4    0    0  0.12737566489E+03  0.11174161508E+03 -0.10329767161E+04  0.10518784847E+04  0.10342486136E+03 0.  0.
         23    2    4    4    0    0  0.91445491979E+01  0.38568465919E+03  0.24184632620E+02  0.39923058326E+03  0.99819251827E+02 0.  0.
          4    1    3    3  502    0 -0.76952659787E+02 -0.20349069678E+03 -0.70900359424E+03  0.74163081932E+03  0.00000000000E+00 0. -1.
         -3    1    3    3    0  502 -0.59567554300E+02 -0.29393557749E+03 -0.73081025792E+03  0.78995572681E+03  0.00000000000E+00 0.  1.
         13    1    5    5    0    0  0.32517967129E+02 -0.18301459372E+02 -0.17512882002E+03  0.17905994863E+03  0.00000000000E+00 0. -1.
        -13    1    5    5    0    0  0.94857697761E+02  0.13004307445E+03 -0.85784789610E+03  0.87281853606E+03  0.00000000000E+00 0.  1.
          4    1    6    6  503    0  0.19932271127E+02  0.36720885565E+03  0.10928403350E+01  0.36775104812E+03  0.00000000000E+00 0.  1.
         -4    1    6    6    0  503 -0.10787721929E+02  0.18475803547E+02  0.23091792285E+02  0.31479535131E+02  0.00000000000E+00 0. -1.
<mgrwt>
<rscale>  0 0.17031741E+04</rscale>
<asrwt>0</asrwt>
<pdfrwt beam="1">  1        2 0.41779243E+00 0.17031741E+04</pdfrwt>
<pdfrwt beam="2">  1       -1 0.41083821E-01 0.17031741E+04</pdfrwt>
<totfact> 0.16371010E+01</totfact>
</mgrwt>
</event>
<event>
12    7  0.1637954E-007  0.2566740E+04  0.7818608E-02  0.8379588E-01
          2   -1    0    0  501    0  0.00000000000E+00  0.00000000000E+00  0.20838705957E+04  0.20838705957E+04  0.00000000000E+00 0. -1.
         -1   -1    0    0    0  501 -0.00000000000E+00 -0.00000000000E+00 -0.79037450691E+03  0.79037450691E+03  0.00000000000E+00 0.  1.
         24    2    1    2    0    0 -0.84754406334E+02 -0.26967510394E+03 -0.63279480503E+03  0.69759043490E+03  0.79342161000E+02 0.  0.
        254    2    1    2    0    0  0.84754406334E+02  0.26967510394E+03  0.19262908938E+04  0.21766546677E+04  0.97330414763E+03 0.  0.
         23    2    4    4    0    0 -0.27291590346E+03  0.15186466441E+03  0.14911886429E+03  0.35770378933E+03  0.90385831608E+02 0.  0.
         23    2    4    4    0    0  0.35767030980E+03  0.11781043953E+03  0.17771720295E+04  0.18189508784E+04  0.91839671445E+02 0.  0.
          4    1    3    3  502    0 -0.23744780407E+02 -0.64341616085E+02 -0.83804856152E+02  0.10829086791E+03  0.00000000000E+00 0. -1.
         -3    1    3    3    0  502 -0.61009625927E+02 -0.20533348785E+03 -0.54898994888E+03  0.58929956699E+03  0.00000000000E+00 0.  1.
         13    1    5    5    0    0 -0.72346372384E+02  0.62928818472E+02  0.87508650674E+02  0.12981447429E+03  0.00000000000E+00 0.  1.
        -13    1    5    5    0    0 -0.20056953108E+03  0.88935845935E+02  0.61610213617E+02  0.22788931505E+03  0.00000000000E+00 0. -1.
          2    1    6    6  503    0  0.17197587898E+03  0.97293042095E+02  0.79654791826E+03  0.82068887227E+03  0.00000000000E+00 0. -1.
         -2    1    6    6    0  503  0.18569443082E+03  0.20517397437E+02  0.98062411127E+03  0.99826200611E+03  0.00000000000E+00 0.  1.
<mgrwt>
<rscale>  0 0.25667397E+04</rscale>
<asrwt>0</asrwt>
<pdfrwt beam="1">  1        2 0.32059547E+00 0.25667397E+04</pdfrwt>
<pdfrwt beam="2">  1       -1 0.12159608E+00 0.25667397E+04</pdfrwt>
<totfact> 0.36276094E+00</totfact>
</mgrwt>
</event>
<event>
12    7  0.1637954E-007  0.2919257E+04  0.7818608E-02  0.8267171E-01
         -1   -1    0    0    0  501 -0.00000000000E+00  0.00000000000E+00  0.17517556654E+04  0.17517556654E+04  0.00000000000E+00 0.  1.
          2   -1    0    0  501    0  0.00000000000E+00 -0.00000000000E+00 -0.12162168187E+04  0.12162168187E+04  0.00000000000E+00 0. -1.
         24    2    1    2    0    0 -0.56825954290E+03 -0.65011350389E+03  0.12568066686E+04  0.15270315770E+04  0.81828837705E+02 0.  0.
        254    2    1    2    0    0  0.56825954290E+03  0.65011350389E+03 -0.72126782196E+03  0.14409409071E+04  0.90028714900E+03 0.  0.
         23    2    4    4    0    0  0.19497044364E+03  0.31885517324E+03 -0.83593222396E+03  0.92049031145E+03  0.94008696551E+02 0.  0.
         23    2    4    4    0    0  0.37328909926E+03  0.33125833065E+03  0.11466440200E+03  0.52045059562E+03  0.92973459359E+02 0.  0.
          2    1    3    3  502    0 -0.44491309467E+02 -0.25927373644E+02  0.93482966131E+02  0.10672755164E+03  0.00000000000E+00 0. -1.
         -1    1    3    3    0  502 -0.52376823343E+03 -0.62418613025E+03  0.11633237025E+04  0.14203040253E+04  0.00000000000E+00 0.  1.
         13    1    5    5    0    0  0.18216497553E+03  0.31685786808E+03 -0.82853420145E+03  0.90556717577E+03  0.00000000000E+00 0.  1.
        -13    1    5    5    0    0  0.12805468109E+02  0.19973051662E+01 -0.73980225156E+01  0.14923135681E+02  0.00000000000E+00 0. -1.
          2    1    6    6  503    0  0.18642778825E+03  0.12277078298E+03  0.85214800354E+02  0.23893419091E+03  0.00000000000E+00 0. -1.
         -2    1    6    6    0  503  0.18686131101E+03  0.20848754767E+03  0.29449601647E+02  0.28151640472E+03  0.00000000000E+00 0.  1.
<mgrwt>
<rscale>  0 0.29192566E+04</rscale>
<asrwt>0</asrwt>
<pdfrwt beam="1">  1        2 0.18711028E+00 0.29192566E+04</pdfrwt>
<pdfrwt beam="2">  1       -1 0.26950087E+00 0.29192566E+04</pdfrwt>
<totfact> 0.94656005E-01</totfact>
</mgrwt>
</event>
<event>
12    7  0.1637954E-007  0.2064610E+04  0.7818608E-02  0.8576995E-01
          2   -1    0    0  501    0  0.00000000000E+00  0.00000000000E+00  0.34844566779E+04  0.34844566779E+04  0.00000000000E+00 0. -1.
         -3   -1    0    0    0  501 -0.00000000000E+00 -0.00000000000E+00 -0.30583051658E+03  0.30583051658E+03  0.00000000000E+00 0.  1.
         24    2    1    2    0    0 -0.52219978684E+03  0.66272308283E+03  0.11586614615E+04  0.14355549309E+04  0.80169042711E+02 0.  0.
        254    2    1    2    0    0  0.52219978684E+03 -0.66272308283E+03  0.20199646998E+04  0.23547322635E+04  0.86753221417E+03 0.  0.
         23    2    4    4    0    0  0.60902515280E+03 -0.60521654916E+03  0.20399208930E+04  0.22150186594E+04  0.88496912283E+02 0.  0.
         23    2    4    4    0    0 -0.86825365965E+02 -0.57506533667E+02 -0.19956193257E+02  0.13971360413E+03  0.90972501010E+02 0.  0.
          4    1    3    3  502    0 -0.14038437077E+03  0.15728610649E+03  0.34618565054E+03  0.40532850318E+03  0.00000000000E+00 0. -1.
         -3    1    3    3    0  502 -0.38181541607E+03  0.50543697634E+03  0.81247581096E+03  0.10302264277E+04  0.00000000000E+00 0.  1.
         13    1    5    5    0    0  0.46958341302E+03 -0.47943168940E+03  0.16793799477E+04  0.18085022354E+04  0.00000000000E+00 0. -1.
        -13    1    5    5    0    0  0.13944173979E+03 -0.12578485976E+03  0.36054094532E+03  0.40651642402E+03  0.00000000000E+00 0.  1.
          1    1    6    6  503    0 -0.92736854405E+02 -0.64277862747E+02 -0.38404696627E+02  0.11919181401E+03  0.00000000000E+00 0. -1.
         -1    1    6    6    0  503  0.59114884394E+01  0.67713290795E+01  0.18448503370E+02  0.20521790118E+02  0.00000000000E+00 0.  1.
<mgrwt>
<rscale>  0 0.20646096E+04</rscale>
<asrwt>0</asrwt>
<pdfrwt beam="1">  1        2 0.53607023E+00 0.20646096E+04</pdfrwt>
<pdfrwt beam="2">  1       -3 0.47050851E-01 0.20646096E+04</pdfrwt>
<totfact> 0.22486607E+00</totfact>
</mgrwt>
</event>
<event>
12    7  0.1637954E-007  0.1414620E+04  0.7818608E-02  0.8943304E-01
         -1   -1    0    0    0  501 -0.00000000000E+00  0.00000000000E+00  0.44548378277E+03  0.44548378277E+03  0.00000000000E+00 0.  1.
          2   -1    0    0  501    0  0.00000000000E+00 -0.00000000000E+00 -0.11230198152E+04  0.11230198152E+04  0.00000000000E+00 0. -1.
         24    2    1    2    0    0  0.15947726624E+03 -0.39354883739E+03 -0.15655123515E+03  0.45970588935E+03  0.80669260704E+02 0.  0.
        254    2    1    2    0    0 -0.15947726624E+03  0.39354883739E+03 -0.52098479727E+03  0.11087977086E+04  0.88186932920E+03 0.  0.
         23    2    4    4    0    0 -0.51580951516E+03  0.18768995441E+03 -0.27162833463E+03  0.61891041281E+03  0.89337405341E+02 0.  0.
         23    2    4    4    0    0  0.35633224892E+03  0.20585888298E+03 -0.24935646264E+03  0.48988729580E+03  0.91980246826E+02 0.  0.
          2    1    3    3  502    0  0.13131519251E+03 -0.33454830800E+03 -0.99449297052E+02  0.37290268550E+03  0.00000000000E+00 0. -1.
         -1    1    3    3    0  502  0.28162073734E+02 -0.59000529391E+02 -0.57101938095E+02  0.86803203855E+02  0.00000000000E+00 0.  1.
         13    1    5    5    0    0 -0.41898483997E+03  0.18514628216E+03 -0.20844542427E+03  0.50326626832E+03  0.00000000000E+00 0. -1.
        -13    1    5    5    0    0 -0.96824675187E+02  0.25436722474E+01 -0.63182910369E+02  0.11564414450E+03  0.00000000000E+00 0.  1.
          4    1    6    6  503    0  0.28010139414E+03  0.15407407970E+03 -0.23467148893E+03  0.39656817920E+03  0.00000000000E+00 0. -1.
         -4    1    6    6    0  503  0.76230854777E+02  0.51784803276E+02 -0.14684973708E+02  0.93319116601E+02  0.00000000000E+00 0.  1.
<mgrwt>
<rscale>  0 0.14146195E+04</rscale>
<asrwt>0</asrwt>
<pdfrwt beam="1">  1        2 0.17277228E+00 0.14146195E+04</pdfrwt>
<pdfrwt beam="2">  1       -1 0.68535968E-01 0.14146195E+04</pdfrwt>
<totfact> 0.50385996E+01</totfact>
</mgrwt>
</event>
<event>
12    7  0.1637954E-007  0.1241836E+04  0.7818608E-02  0.9077005E-01
          2   -1    0    0  501    0  0.00000000000E+00  0.00000000000E+00  0.43027894041E+03  0.43027894041E+03  0.00000000000E+00 0. -1.
         -1   -1    0    0    0  501 -0.00000000000E+00 -0.00000000000E+00 -0.89602166809E+03  0.89602166809E+03  0.00000000000E+00 0.  1.
         24    2    1    2    0    0  0.24566536870E+03 -0.14134495700E+03 -0.19047863004E+03  0.35056653653E+03  0.79277473387E+02 0.  0.
        254    2    1    2    0    0 -0.24566536870E+03  0.14134495700E+03 -0.27526409764E+03  0.97573407196E+03  0.89216410233E+03 0.  0.
         23    2    4    4    0    0  0.14569113232E+02 -0.31899128799E+03  0.69320174166E+02  0.33870295527E+03  0.89144290300E+02 0.  0.
         23    2    4    4    0    0 -0.26023448193E+03  0.46033624499E+03 -0.34458427181E+03  0.63703111669E+03  0.86248937480E+02 0.  0.
          2    1    3    3  502    0  0.10756546186E+02 -0.23918867718E+02 -0.40164651754E+02  0.47968893767E+02  0.00000000000E+00 0. -1.
         -3    1    3    3    0  502  0.23490882251E+03 -0.11742608928E+03 -0.15031397829E+03  0.30259764277E+03  0.00000000000E+00 0.  1.
         13    1    5    5    0    0  0.51677308413E+02 -0.16520206889E+03  0.42577241693E+02  0.17825568513E+03  0.00000000000E+00 0. -1.
        -13    1    5    5    0    0 -0.37108195181E+02 -0.15378921909E+03  0.26742932473E+02  0.16044727014E+03  0.00000000000E+00 0.  1.
          4    1    6    6  503    0 -0.24741477301E+03  0.40278988467E+03 -0.32937545074E+03  0.57614403463E+03  0.00000000000E+00 0. -1.
         -4    1    6    6    0  503 -0.12819708923E+02  0.57546360320E+02 -0.15208821068E+02  0.60887082055E+02  0.00000000000E+00 0.  1.
<mgrwt>
<rscale>  0 0.12418361E+04</rscale>
<asrwt>0</asrwt>
<pdfrwt beam="1">  1        2 0.66196761E-01 0.12418361E+04</pdfrwt>
<pdfrwt beam="2">  1       -1 0.13784949E+00 0.12418361E+04</pdfrwt>
<totfact> 0.35978371E+01</totfact>
</mgrwt>
</event>
<event>
12    7  0.1637954E-007  0.1848920E+04  0.7818608E-02  0.8680709E-01
         -1   -1    0    0    0  501 -0.00000000000E+00  0.00000000000E+00  0.50730103380E+03  0.50730103380E+03  0.00000000000E+00 0.  1.
          2   -1    0    0  501    0  0.00000000000E+00 -0.00000000000E+00 -0.16846527525E+04  0.16846527525E+04  0.00000000000E+00 0. -1.
         24    2    1    2    0    0 -0.52121562388E+03 -0.36002665302E+03 -0.16155405533E+03  0.65867931202E+03  0.80459964075E+02 0.  0.
        254    2    1    2    0    0  0.52121562388E+03  0.36002665302E+03 -0.10157976634E+04  0.15332744743E+04  0.95801920813E+03 0.  0.
         23    2    4    4    0    0  0.31991449811E+03 -0.26750135475E+03 -0.17547737222E+03  0.46137814614E+03  0.90416949035E+02 0.  0.
         23    2    4    4    0    0  0.20130112577E+03  0.62752800778E+03 -0.84032029113E+03  0.10718963281E+04  0.92249676532E+02 0.  0.
          4    1    3    3  502    0 -0.52105333412E+02 -0.14540276270E+02 -0.28220373794E+02  0.61014546635E+02  0.00000000000E+00 0. -1.
         -3    1    3    3    0  502 -0.46911029047E+03 -0.34548637675E+03 -0.13333368154E+03  0.59766476538E+03  0.00000000000E+00 0.  1.
         13    1    5    5    0    0  0.44334150646E+01 -0.17832880597E+02 -0.26735020342E+02  0.32441148441E+02  0.00000000000E+00 0.  1.
        -13    1    5    5    0    0  0.31548108305E+03 -0.24966847416E+03 -0.14874235188E+03  0.42893699769E+03  0.00000000000E+00 0. -1.
          1    1    6    6  503    0  0.15022770570E+02  0.15213053216E+03 -0.22989054382E+03  0.27607796831E+03  0.00000000000E+00 0. -1.
         -1    1    6    6    0  503  0.18627835520E+03  0.47539747562E+03 -0.61042974732E+03  0.79581835983E+03  0.00000000000E+00 0.  1.
<mgrwt>
<rscale>  0 0.18489198E+04</rscale>
<asrwt>0</asrwt>
<pdfrwt beam="1">  1        2 0.25917734E+00 0.18489198E+04</pdfrwt>
<pdfrwt beam="2">  1       -1 0.78046314E-01 0.18489198E+04</pdfrwt>
<totfact> 0.17613381E+01</totfact>
</mgrwt>
</event>
<event>
12    7  0.1637954E-007  0.1904113E+04  0.7818608E-02  0.8652812E-01
          2   -1    0    0  501    0  0.00000000000E+00  0.00000000000E+00  0.17101492498E+04  0.17101492498E+04  0.00000000000E+00 0. -1.
         -1   -1    0    0    0  501 -0.00000000000E+00 -0.00000000000E+00 -0.53001875565E+03  0.53001875565E+03  0.00000000000E+00 0.  1.
         24    2    1    2    0    0  0.98032124239E+02  0.72754557315E+03  0.51145765754E+03  0.89828243135E+03  0.79934552120E+02 0.  0.
        254    2    1    2    0    0 -0.98032124239E+02 -0.72754557315E+03  0.66867283659E+03  0.13418855741E+04  0.90255231048E+03 0.  0.
         23    2    4    4    0    0 -0.20970250334E+03 -0.14805715805E+03 -0.16270171244E+03  0.31829252265E+03  0.94563316307E+02 0.  0.
         23    2    4    4    0    0  0.11167037910E+03 -0.57948841510E+03  0.83137454903E+03  0.10235930514E+04  0.91005479877E+02 0.  0.
          4    1    3    3  502    0  0.37216842155E+02  0.36870955199E+03  0.21177777627E+03  0.42682742835E+03  0.00000000000E+00 0. -1.
         -3    1    3    3    0  502  0.60815282084E+02  0.35883602116E+03  0.29967988127E+03  0.47145500300E+03  0.00000000000E+00 0.  1.
         13    1    5    5    0    0 -0.14233512575E+03 -0.14879953035E+03 -0.11629605721E+03  0.23648543545E+03  0.00000000000E+00 0.  1.
        -13    1    5    5    0    0 -0.67367377589E+02  0.74237230844E+00 -0.46405655228E+02  0.81807087205E+02  0.00000000000E+00 0. -1.
          3    1    6    6  503    0  0.12280136825E+03 -0.46341574174E+03  0.69255913735E+03  0.84230189627E+03  0.00000000000E+00 0. -1.
         -3    1    6    6    0  503 -0.11130989149E+02 -0.11607267336E+03  0.13881541168E+03  0.18129115516E+03  0.00000000000E+00 0.  1.
<mgrwt>
<rscale>  0 0.19041126E+04</rscale>
<asrwt>0</asrwt>
<pdfrwt beam="1">  1        2 0.26309988E+00 0.19041126E+04</pdfrwt>
<pdfrwt beam="2">  1       -1 0.81541347E-01 0.19041126E+04</pdfrwt>
<totfact> 0.15458069E+01</totfact>
</mgrwt>
</event>
<event>
12    7  0.1637954E-007  0.1941159E+04  0.7818608E-02  0.8634636E-01
         -1   -1    0    0    0  501 -0.00000000000E+00  0.00000000000E+00  0.98275493116E+03  0.98275493116E+03  0.00000000000E+00 0.  1.
          4   -1    0    0  501    0  0.00000000000E+00 -0.00000000000E+00 -0.95855538836E+03  0.95855538836E+03  0.00000000000E+00 0. -1.
         24    2    1    2    0    0  0.74786622403E+03 -0.34915107089E+02 -0.10048977451E+03  0.75960834065E+03  0.79897951512E+02 0.  0.
        254    2    1    2    0    0 -0.74786622403E+03  0.34915107089E+02  0.12468931731E+03  0.11817019789E+04  0.90573129969E+03 0.  0.
         23    2    4    4    0    0 -0.46434264705E+03 -0.40665775270E+03  0.17020766243E+03  0.64663465921E+03  0.90449502171E+02 0.  0.
         23    2    4    4    0    0 -0.28352357698E+03  0.44157285979E+03 -0.45518345126E+02  0.53506731965E+03  0.94089891107E+02 0.  0.
          4    1    3    3  502    0  0.72918522615E+03 -0.46760377403E+02 -0.99899774687E+02  0.73748057053E+03  0.00000000000E+00 0. -1.
         -3    1    3    3    0  502  0.18680997886E+02  0.11845270314E+02 -0.58999981888E+00  0.22127770123E+02  0.00000000000E+00 0.  1.
         13    1    5    5    0    0 -0.12100933801E+03 -0.13646219309E+03  0.15080031007E+02  0.18300982860E+03  0.00000000000E+00 0.  1.
        -13    1    5    5    0    0 -0.34333330904E+03 -0.27019555961E+03  0.15512763143E+03  0.46362483061E+03  0.00000000000E+00 0. -1.
          2    1    6    6  503    0 -0.50944669533E+02  0.87948451437E+02  0.28119686188E+02  0.10545618149E+03  0.00000000000E+00 0.  1.
         -2    1    6    6    0  503 -0.23257890745E+03  0.35362440835E+03 -0.73638031314E+02  0.42961113816E+03  0.00000000000E+00 0. -1.
<mgrwt>
<rscale>  0 0.19411595E+04</rscale>
<asrwt>0</asrwt>
<pdfrwt beam="1">  1        4 0.14747006E+00 0.19411595E+04</pdfrwt>
<pdfrwt beam="2">  1       -1 0.15119307E+00 0.19411595E+04</pdfrwt>
<totfact> 0.41051652E-01</totfact>
</mgrwt>
</event>
<event>
12    7  0.1637954E-007  0.1109170E+04  0.7818608E-02  0.9196300E-01
          2   -1    0    0  501    0  0.00000000000E+00  0.00000000000E+00  0.78091632187E+03  0.78091632187E+03  0.00000000000E+00 0. -1.
         -1   -1    0    0    0  501 -0.00000000000E+00 -0.00000000000E+00 -0.39385062784E+03  0.39385062784E+03  0.00000000000E+00 0.  1.
         24    2    1    2    0    0 -0.10654953875E+03 -0.49864318715E+02 -0.63873860261E+02  0.15543278387E+03  0.78995099777E+02 0.  0.
        254    2    1    2    0    0  0.10654953875E+03  0.49864318715E+02  0.45093955429E+03  0.10193341658E+04  0.90656296280E+03 0.  0.
         23    2    4    4    0    0 -0.12618255935E+03  0.33026960321E+03 -0.76129050709E+02  0.37256650571E+03  0.89499272215E+02 0.  0.
         23    2    4    4    0    0  0.23273209810E+03 -0.28040528450E+03  0.52706860500E+03  0.64676766012E+03  0.87839277859E+02 0.  0.
          2    1    3    3  502    0 -0.29165546705E+02 -0.45358695120E+02  0.16244476485E+01  0.53950710540E+02  0.00000000000E+00 0. -1.
         -1    1    3    3    0  502 -0.77383992047E+02 -0.45056235951E+01 -0.65498307909E+02  0.10148207333E+03  0.00000000000E+00 0.  1.
         13    1    5    5    0    0 -0.12479119036E+03  0.31054537718E+03 -0.92130141988E+02  0.34712999804E+03  0.00000000000E+00 0. -1.
        -13    1    5    5    0    0 -0.13913689879E+01  0.19724226033E+02  0.16001091279E+02  0.25436507669E+02  0.00000000000E+00 0.  1.
          4    1    6    6  503    0  0.14721741217E+03 -0.13414130680E+03  0.34271058988E+03  0.39638037925E+03  0.00000000000E+00 0. -1.
         -4    1    6    6    0  503  0.85514685937E+02 -0.14626397770E+03  0.18435801512E+03  0.25038728087E+03  0.00000000000E+00 0.  1.
<mgrwt>
<rscale>  0 0.11091698E+04</rscale>
<asrwt>0</asrwt>
<pdfrwt beam="1">  1        2 0.12014097E+00 0.11091698E+04</pdfrwt>
<pdfrwt beam="2">  1       -1 0.60592404E-01 0.11091698E+04</pdfrwt>
<totfact> 0.11130549E+02</totfact>
</mgrwt>
</event>
<event>
12    7  0.1637954E-007  0.1810308E+04  0.7818608E-02  0.8700837E-01
          2   -1    0    0  501    0  0.00000000000E+00  0.00000000000E+00  0.94551619341E+03  0.94551619341E+03  0.00000000000E+00 0. -1.
         -3   -1    0    0    0  501 -0.00000000000E+00 -0.00000000000E+00 -0.86651448171E+03  0.86651448171E+03  0.00000000000E+00 0.  1.
         24    2    1    2    0    0  0.30698600232E+03 -0.26840878920E+02  0.64060200302E+03  0.71533727210E+03  0.79847656068E+02 0.  0.
        254    2    1    2    0    0 -0.30698600232E+03  0.26840878920E+02 -0.56160029131E+03  0.10966934030E+04  0.89015767964E+03 0.  0.
         23    2    4    4    0    0 -0.25967189050E+03  0.43355155267E+03 -0.37741320356E+03  0.63755191375E+03  0.92926190918E+02 0.  0.
         23    2    4    4    0    0 -0.47314111815E+02 -0.40671067375E+03 -0.18418708775E+03  0.45914148927E+03  0.96092801797E+02 0.  0.
          4    1    3    3  502    0  0.20985941038E+03 -0.54751975878E+02  0.45323451143E+03  0.50245424999E+03  0.00000000000E+00 0. -1.
         -3    1    3    3    0  502  0.97126591938E+02  0.27911096958E+02  0.18736749160E+03  0.21288302211E+03  0.00000000000E+00 0.  1.
         13    1    5    5    0    0 -0.24266005672E+03  0.38205119615E+03 -0.36613875699E+03  0.58215514168E+03  0.00000000000E+00 0. -1.
        -13    1    5    5    0    0 -0.17011833782E+02  0.51500356520E+02 -0.11274446568E+02  0.55396772070E+02  0.00000000000E+00 0.  1.
          1    1    6    6  503    0 -0.31109002159E+02 -0.34741317541E+03 -0.11658932301E+03  0.36777269434E+03  0.00000000000E+00 0. -1.
         -1    1    6    6    0  503 -0.16205109656E+02 -0.59297498339E+02 -0.67597764747E+02  0.91368794930E+02  0.00000000000E+00 0.  1.
<mgrwt>
<rscale>  0 0.18103077E+04</rscale>
<asrwt>0</asrwt>
<pdfrwt beam="1">  1        2 0.14546403E+00 0.18103077E+04</pdfrwt>
<pdfrwt beam="2">  1       -3 0.13330992E+00 0.18103077E+04</pdfrwt>
<totfact> 0.71017474E+00</totfact>
</mgrwt>
</event>
<event>
12    7  0.1637954E-007  0.1418596E+04  0.7818608E-02  0.8940467E-01
          2   -1    0    0  501    0  0.00000000000E+00  0.00000000000E+00  0.79328740601E+03  0.79328740601E+03  0.00000000000E+00 0. -1.
         -1   -1    0    0    0  501 -0.00000000000E+00 -0.00000000000E+00 -0.63420091637E+03  0.63420091637E+03  0.00000000000E+00 0.  1.
         24    2    1    2    0    0 -0.29235400882E+03 -0.21060805940E+03  0.28129420972E+03  0.46386654854E+03  0.78861405483E+02 0.  0.
        254    2    1    2    0    0  0.29235400882E+03  0.21060805940E+03 -0.12220772008E+03  0.96362177383E+03  0.88532794771E+03 0.  0.
         23    2    4    4    0    0 -0.19783505661E+03  0.21538363175E+03 -0.30557849828E+03  0.43283448189E+03  0.91862133978E+02 0.  0.
         23    2    4    4    0    0  0.49018906543E+03 -0.47755723495E+01  0.18337077820E+03  0.53078729194E+03  0.88329955447E+02 0.  0.
          4    1    3    3  502    0 -0.24338914556E+03 -0.14656709461E+03  0.24619544809E+03  0.37594200093E+03  0.00000000000E+00 0. -1.
         -3    1    3    3    0  502 -0.48964863264E+02 -0.64040964790E+02  0.35098761626E+02  0.87924547615E+02  0.00000000000E+00 0.  1.
         13    1    5    5    0    0 -0.75956723768E+02  0.58037762395E+02 -0.46976683577E+02  0.10651110059E+03  0.00000000000E+00 0.  1.
        -13    1    5    5    0    0 -0.12187833284E+03  0.15734586936E+03 -0.25860181470E+03  0.32632338130E+03  0.00000000000E+00 0. -1.
          1    1    6    6  503    0  0.37378682870E+03 -0.17643706928E+02  0.17577335476E+03  0.41342975939E+03  0.00000000000E+00 0. -1.
         -1    1    6    6    0  503  0.11640223673E+03  0.12868134579E+02  0.75974234323E+01  0.11735753255E+03  0.00000000000E+00 0.  1.
<mgrwt>
<rscale>  0 0.14185959E+04</rscale>
<asrwt>0</asrwt>
<pdfrwt beam="1">  1        2 0.12204422E+00 0.14185959E+04</pdfrwt>
<pdfrwt beam="2">  1       -1 0.97569371E-01 0.14185959E+04</pdfrwt>
<totfact> 0.38988213E+01</totfact>
</mgrwt>
</event>
<event>
12    7  0.1637954E-007  0.1447005E+04  0.7818608E-02  0.8920480E-01
         -1   -1    0    0    0  501 -0.00000000000E+00  0.00000000000E+00  0.20103063882E+03  0.20103063882E+03  0.00000000000E+00 0.  1.
          2   -1    0    0  501    0  0.00000000000E+00 -0.00000000000E+00 -0.26038603065E+04  0.26038603065E+04  0.00000000000E+00 0. -1.
         24    2    1    2    0    0 -0.34163876090E+03 -0.17864209267E+03 -0.30698603966E+03  0.49952815509E+03  0.81596010684E+02 0.  0.
        254    2    1    2    0    0  0.34163876090E+03  0.17864209267E+03 -0.20958436280E+04  0.23053627902E+04  0.87949249073E+03 0.  0.
         23    2    4    4    0    0  0.32370866837E+03  0.13144583450E+03 -0.21529524872E+04  0.21830488855E+04  0.91829815787E+02 0.  0.
         23    2    4    4    0    0  0.17930092527E+02  0.47196258171E+02  0.57108859157E+02  0.12231390473E+03  0.95657171676E+02 0.  0.
          2    1    3    3  502    0 -0.35792899985E+02 -0.19233463287E+02 -0.46872921197E+01  0.40902671145E+02  0.00000000000E+00 0. -1.
         -1    1    3    3    0  502 -0.30584586091E+03 -0.15940862938E+03 -0.30229874754E+03  0.45862548394E+03  0.00000000000E+00 0.  1.
         13    1    5    5    0    0  0.34461982762E+02 -0.13099557886E+02 -0.27524352244E+03  0.27770168044E+03  0.00000000000E+00 0. -1.
        -13    1    5    5    0    0  0.28924668561E+03  0.14454539239E+03 -0.18777089647E+04  0.19053472050E+04  0.00000000000E+00 0.  1.
          4    1    6    6  503    0  0.34790030403E+02 -0.15699910779E+02  0.41748723220E+01  0.38396132264E+02  0.00000000000E+00 0. -1.
         -4    1    6    6    0  503 -0.16859937876E+02  0.62896168950E+02  0.52933986835E+02  0.83917772468E+02  0.00000000000E+00 0.  1.
<mgrwt>
<rscale>  0 0.14470048E+04</rscale>
<asrwt>0</asrwt>
<pdfrwt beam="1">  1        2 0.40059388E+00 0.14470048E+04</pdfrwt>
<pdfrwt beam="2">  1       -1 0.30927791E-01 0.14470048E+04</pdfrwt>
<totfact> 0.32474800E+01</totfact>
</mgrwt>
</event>
<event>
12    7  0.1637954E-007  0.2997639E+04  0.7818608E-02  0.8244406E-01
          2   -1    0    0  501    0  0.00000000000E+00  0.00000000000E+00  0.15177754048E+04  0.15177754048E+04  0.00000000000E+00 0. -1.
         -1   -1    0    0    0  501 -0.00000000000E+00 -0.00000000000E+00 -0.14800999270E+04  0.14800999270E+04  0.00000000000E+00 0.  1.
         24    2    1    2    0    0 -0.13010885963E+04  0.57233908836E+02  0.44406038011E+03  0.13772842080E+04  0.60124144723E+02 0.  0.
        254    2    1    2    0    0  0.13010885963E+04 -0.57233908836E+02 -0.40638490234E+03  0.16205911238E+04  0.87467688093E+03 0.  0.
         23    2    4    4    0    0  0.12552851100E+04 -0.16347462858E+03 -0.57783344886E+03  0.13945479340E+04  0.91693969699E+02 0.  0.
         23    2    4    4    0    0  0.45803486271E+02  0.10624071975E+03  0.17144854653E+03  0.22604318978E+03  0.91191390234E+02 0.  0.
          4    1    3    3  502    0 -0.76322356398E+03  0.33364983833E+02  0.29168096041E+03  0.81774153217E+03  0.00000000000E+00 0. -1.
         -3    1    3    3    0  502 -0.53786503231E+03  0.23868925003E+02  0.15237941970E+03  0.55954267587E+03  0.00000000000E+00 0.  1.
         13    1    5    5    0    0  0.39247982949E+03 -0.80148190527E+02 -0.14838701492E+03  0.42718012033E+03  0.00000000000E+00 0.  1.
        -13    1    5    5    0    0  0.86280528053E+03 -0.83326438057E+02 -0.42944643394E+03  0.96736781372E+03  0.00000000000E+00 0. -1.
          1    1    6    6  503    0  0.21543544588E+01 -0.13067870315E+02  0.44560872762E+02  0.46487437647E+02  0.00000000000E+00 0. -1.
         -1    1    6    6    0  503  0.43649131812E+02  0.11930859006E+03  0.12688767376E+03  0.17955575213E+03  0.00000000000E+00 0.  1.
<mgrwt>
<rscale>  0 0.29976386E+04</rscale>
<asrwt>0</asrwt>
<pdfrwt beam="1">  1        2 0.23350391E+00 0.29976386E+04</pdfrwt>
<pdfrwt beam="2">  1       -1 0.22770768E+00 0.29976386E+04</pdfrwt>
<totfact> 0.11821216E+00</totfact>
</mgrwt>
</event>
<event>
12    7  0.1637954E-007  0.1234890E+04  0.7818608E-02  0.9082854E-01
          2   -1    0    0  501    0  0.00000000000E+00  0.00000000000E+00  0.16707841075E+04  0.16707841075E+04  0.00000000000E+00 0. -1.
         -1   -1    0    0    0  501 -0.00000000000E+00 -0.00000000000E+00 -0.22817915664E+03  0.22817915664E+03  0.00000000000E+00 0.  1.
         24    2    1    2    0    0  0.14250285069E+03  0.23564974152E+03  0.34158056781E+03  0.44593703280E+03  0.79653561054E+02 0.  0.
        254    2    1    2    0    0 -0.14250285069E+03 -0.23564974152E+03  0.11010243830E+04  0.14530262313E+04  0.90729966037E+03 0.  0.
         23    2    4    4    0    0  0.51435463141E+02 -0.46536158933E+02  0.11566413820E+04  0.11623440937E+04  0.91723958740E+02 0.  0.
         23    2    4    4    0    0 -0.19393831383E+03 -0.18911358259E+03 -0.55616999023E+02  0.29068213758E+03  0.89592621551E+02 0.  0.
          2    1    3    3  502    0  0.31540892328E+01  0.19758741384E+02  0.66791974031E+02  0.69724629328E+02  0.00000000000E+00 0. -1.
         -1    1    3    3    0  502  0.13934876145E+03  0.21589100014E+03  0.27478859378E+03  0.37621240348E+03  0.00000000000E+00 0.  1.
         13    1    5    5    0    0  0.75742590487E+02 -0.46434767595E+02  0.98352836730E+03  0.98753287385E+03  0.00000000000E+00 0. -1.
        -13    1    5    5    0    0 -0.24307127346E+02 -0.10139133880E+00  0.17311301473E+03  0.17481121986E+03  0.00000000000E+00 0.  1.
          3    1    6    6  503    0 -0.10534074019E+03 -0.15511486434E+03 -0.56333502897E+02  0.19578242064E+03  0.00000000000E+00 0. -1.
         -3    1    6    6    0  503 -0.88597573636E+02 -0.33998718247E+02  0.71650387428E+00  0.94899716935E+02  0.00000000000E+00 0.  1.
<mgrwt>
<rscale>  0 0.12348896E+04</rscale>
<asrwt>0</asrwt>
<pdfrwt beam="1">  1        2 0.25704370E+00 0.12348896E+04</pdfrwt>
<pdfrwt beam="2">  1       -1 0.35104487E-01 0.12348896E+04</pdfrwt>
<totfact> 0.88125074E+01</totfact>
</mgrwt>
</event>
<event>
12    7  0.1637954E-007  0.3235452E+04  0.7818608E-02  0.8179517E-01
          2   -1    0    0  501    0  0.00000000000E+00  0.00000000000E+00  0.16880491767E+04  0.16880491767E+04  0.00000000000E+00 0. -1.
         -1   -1    0    0    0  501 -0.00000000000E+00 -0.00000000000E+00 -0.15503321504E+04  0.15503321504E+04  0.00000000000E+00 0.  1.
         24    2    1    2    0    0 -0.95540300831E+03  0.10132468166E+04  0.59546064093E+03  0.15168036338E+04  0.81583510736E+02 0.  0.
        254    2    1    2    0    0  0.95540300831E+03 -0.10132468166E+04 -0.45774361458E+03  0.17215776932E+04  0.90268295515E+03 0.  0.
         23    2    4    4    0    0  0.16786989161E+03  0.12225067402E+03  0.72488710210E+02  0.23880108240E+03  0.92982880375E+02 0.  0.
         23    2    4    4    0    0  0.78753311670E+03 -0.11354974906E+04 -0.53023232479E+03  0.14827766108E+04  0.88978639628E+02 0.  0.
          4    1    3    3  502    0 -0.85508283289E+03  0.92516873331E+03  0.56010328812E+03  0.13787021178E+04  0.00000000000E+00 0. -1.
         -3    1    3    3    0  502 -0.10032017542E+03  0.88078083238E+02  0.35357352802E+02  0.13810151607E+03  0.00000000000E+00 0.  1.
         13    1    5    5    0    0  0.16763059159E+03  0.98603859466E+02  0.84771897300E+02  0.21215327221E+03  0.00000000000E+00 0. -1.
        -13    1    5    5    0    0  0.23930001852E+00  0.23646814549E+02 -0.12283187090E+02  0.26647810190E+02  0.00000000000E+00 0.  1.
          3    1    6    6  503    0  0.72097551730E+01 -0.28742068877E+02 -0.38301731428E+01  0.29879044819E+02  0.00000000000E+00 0.  1.
         -3    1    6    6    0  503  0.78032336153E+03 -0.11067554217E+04 -0.52640215164E+03  0.14528975660E+04  0.00000000000E+00 0. -1.
<mgrwt>
<rscale>  0 0.32354517E+04</rscale>
<asrwt>0</asrwt>
<pdfrwt beam="1">  1        2 0.25969987E+00 0.32354517E+04</pdfrwt>
<pdfrwt beam="2">  1       -1 0.23851264E+00 0.32354517E+04</pdfrwt>
<totfact> 0.78909883E-01</totfact>
</mgrwt>
</event>
<event>
12    7  0.1637954E-007  0.1147611E+04  0.7818608E-02  0.9159990E-01
          2   -1    0    0  501    0  0.00000000000E+00  0.00000000000E+00  0.32285759194E+04  0.32285759194E+04  0.00000000000E+00 0. -1.
         -1   -1    0    0    0  501 -0.00000000000E+00 -0.00000000000E+00 -0.10198077470E+03  0.10198077470E+03  0.00000000000E+00 0.  1.
         24    2    1    2    0    0  0.60746900760E+02  0.10195222918E+03  0.12018641078E+03  0.18901473004E+03  0.84837207940E+02 0.  0.
        254    2    1    2    0    0 -0.60746900760E+02 -0.10195222918E+03  0.30064087339E+04  0.31415419640E+04  0.90371897931E+03 0.  0.
         23    2    4    4    0    0  0.19129101934E+03 -0.19626742871E+02  0.12992183947E+03  0.25109281999E+03  0.95866870011E+02 0.  0.
         23    2    4    4    0    0 -0.25203792010E+03 -0.82325486307E+02  0.28764868944E+04  0.28904491440E+04  0.10108808852E+03 0.  0.
          4    1    3    3  502    0 -0.96237582146E+01 -0.83545448077E+01  0.24051924704E+01  0.12969197814E+02  0.00000000000E+00 0. -1.
         -3    1    3    3    0  502  0.70370658975E+02  0.11030677399E+03  0.11778121831E+03  0.17604553223E+03  0.00000000000E+00 0.  1.
         13    1    5    5    0    0  0.39739520210E+02  0.15476490605E+02  0.74703632416E+02  0.86019671727E+02  0.00000000000E+00 0. -1.
        -13    1    5    5    0    0  0.15155149913E+03 -0.35103233476E+02  0.55218207058E+02  0.16507314827E+03  0.00000000000E+00 0.  1.
          1    1    6    6  503    0 -0.99859431915E+02 -0.78418469895E+02  0.10552262615E+04  0.10628376289E+04  0.00000000000E+00 0. -1.
         -1    1    6    6    0  503 -0.15217848818E+03 -0.39070164121E+01  0.18212606329E+04  0.18276115151E+04  0.00000000000E+00 0.  1.
<mgrwt>
<rscale>  0 0.11476109E+04</rscale>
<asrwt>0</asrwt>
<pdfrwt beam="1">  1        2 0.49670391E+00 0.11476109E+04</pdfrwt>
<pdfrwt beam="2">  1       -1 0.15689352E-01 0.11476109E+04</pdfrwt>
<totfact> 0.43765711E+01</totfact>
</mgrwt>
</event>
<event>
12    7  0.1637954E-007  0.2406204E+04  0.7818608E-02  0.8437185E-01
         -1   -1    0    0    0  501 -0.00000000000E+00  0.00000000000E+00  0.17258474183E+04  0.17258474183E+04  0.00000000000E+00 0.  1.
          2   -1    0    0  501    0  0.00000000000E+00 -0.00000000000E+00 -0.83869180827E+03  0.83869180827E+03  0.00000000000E+00 0. -1.
         24    2    1    2    0    0 -0.57875189310E+03 -0.85399335384E+03  0.28560126855E+03  0.10731161560E+04  0.75840605698E+02 0.  0.
        254    2    1    2    0    0  0.57875189310E+03  0.85399335384E+03  0.60155434151E+03  0.14914230706E+04  0.89342976646E+03 0.  0.
         23    2    4    4    0    0  0.32655163317E+03  0.21833363061E+03 -0.18613030522E+03  0.44393942009E+03  0.90178571772E+02 0.  0.
         23    2    4    4    0    0  0.25220025993E+03  0.63565972324E+03  0.78768464673E+03  0.10474836505E+04  0.95428719880E+02 0.  0.
          4    1    3    3  502    0 -0.29542541289E+03 -0.46484705014E+03  0.11690562246E+03  0.56305051209E+03  0.00000000000E+00 0. -1.
         -3    1    3    3    0  502 -0.28332648021E+03 -0.38914630370E+03  0.16869564609E+03  0.51006564390E+03  0.00000000000E+00 0.  1.
         13    1    5    5    0    0  0.41512259887E+02  0.41680312476E+02  0.30699559524E+01  0.58906203397E+02  0.00000000000E+00 0. -1.
        -13    1    5    5    0    0  0.28503937328E+03  0.17665331813E+03 -0.18920026117E+03  0.38503321669E+03  0.00000000000E+00 0.  1.
          1    1    6    6  503    0 -0.11254569186E+01  0.13111506710E+02  0.40013041787E+02  0.42121512016E+02  0.00000000000E+00 0. -1.
         -1    1    6    6    0  503  0.25332571685E+03  0.62254821653E+03  0.74767160494E+03  0.10053621385E+04  0.00000000000E+00 0.  1.
<mgrwt>
<rscale>  0 0.24062037E+04</rscale>
<asrwt>0</asrwt>
<pdfrwt beam="1">  1        2 0.12902951E+00 0.24062037E+04</pdfrwt>
<pdfrwt beam="2">  1       -1 0.26551499E+00 0.24062037E+04</pdfrwt>
<totfact> 0.18308077E+00</totfact>
</mgrwt>
</event>
<event>
12    7  0.1637954E-007  0.1312549E+04  0.7818608E-02  0.9019672E-01
         -1   -1    0    0    0  501 -0.00000000000E+00  0.00000000000E+00  0.21128360559E+03  0.21128360559E+03  0.00000000000E+00 0.  1.
          2   -1    0    0  501    0  0.00000000000E+00 -0.00000000000E+00 -0.20384750077E+04  0.20384750077E+04  0.00000000000E+00 0. -1.
         24    2    1    2    0    0  0.27375597918E+03  0.11388960808E+03 -0.25537430491E+03  0.39949236074E+03  0.80404799060E+02 0.  0.
        254    2    1    2    0    0 -0.27375597918E+03 -0.11388960808E+03 -0.15718170972E+04  0.18502662526E+04  0.93003389152E+03 0.  0.
         23    2    4    4    0    0 -0.38163485196E+03 -0.44538505488E+03 -0.11629316798E+04  0.13054775881E+04  0.88592515476E+02 0.  0.
         23    2    4    4    0    0  0.10787887278E+03  0.33149544680E+03 -0.40888541743E+03  0.54478866450E+03  0.89890610929E+02 0.  0.
          4    1    3    3  502    0  0.68516444361E+02  0.26290686000E+02 -0.22035430120E+02  0.76624170461E+02  0.00000000000E+00 0. -1.
         -3    1    3    3    0  502  0.20523953482E+03  0.87598922079E+02 -0.23333887479E+03  0.32286819028E+03  0.00000000000E+00 0.  1.
         13    1    5    5    0    0 -0.83407568173E+02 -0.83896936286E+02 -0.16542619188E+03  0.20337488367E+03  0.00000000000E+00 0.  1.
        -13    1    5    5    0    0 -0.29822728378E+03 -0.36148811860E+03 -0.99750548791E+03  0.11021027044E+04  0.00000000000E+00 0. -1.
          1    1    6    6  503    0  0.17242021369E+02  0.53798734511E+02 -0.23454436961E+02  0.61169451109E+02  0.00000000000E+00 0. -1.
         -1    1    6    6    0  503  0.90636851406E+02  0.27769671229E+03 -0.38543098047E+03  0.48361921339E+03  0.00000000000E+00 0.  1.
<mgrwt>
<rscale>  0 0.13125492E+04</rscale>
<asrwt>0</asrwt>
<pdfrwt beam="1">  1        2 0.31361153E+00 0.13125492E+04</pdfrwt>
<pdfrwt beam="2">  1       -1 0.32505171E-01 0.13125492E+04</pdfrwt>
<totfact> 0.62889855E+01</totfact>
</mgrwt>
</event>
<event>
12    7  0.1637954E-007  0.1802844E+04  0.7818608E-02  0.8704789E-01
         -1   -1    0    0    0  501 -0.00000000000E+00  0.00000000000E+00  0.45055801503E+03  0.45055801503E+03  0.00000000000E+00 0.  1.
          2   -1    0    0  501    0  0.00000000000E+00 -0.00000000000E+00 -0.18034555260E+04  0.18034555260E+04  0.00000000000E+00 0. -1.
         24    2    1    2    0    0  0.18882486002E+03 -0.48589377360E+03 -0.10376724852E+04  0.11646139251E+04  0.88395820161E+02 0.  0.
        254    2    1    2    0    0 -0.18882486002E+03  0.48589377360E+03 -0.31522502572E+03  0.10893996159E+04  0.90314844806E+03 0.  0.
         23    2    4    4    0    0 -0.79829058298E+02 -0.91659675888E+02 -0.45612209131E+03  0.47959319770E+03  0.84782653712E+02 0.  0.
         23    2    4    4    0    0 -0.10899580173E+03  0.57755344949E+03  0.14089706559E+03  0.60980641817E+03  0.81017360729E+02 0.  0.
          4    1    3    3  502    0  0.10062905524E+03 -0.35395541398E+03 -0.77046908077E+03  0.85383443727E+03  0.00000000000E+00 0. -1.
         -1    1    3    3    0  502  0.88195804786E+02 -0.13193835962E+03 -0.26720340444E+03  0.31077948785E+03  0.00000000000E+00 0.  1.
         13    1    5    5    0    0 -0.87802933853E+02 -0.48218391895E+02 -0.26167504886E+03  0.28019314715E+03  0.00000000000E+00 0.  1.
        -13    1    5    5    0    0  0.79738755545E+01 -0.43441283993E+02 -0.19444704244E+03  0.19940005055E+03  0.00000000000E+00 0. -1.
          1    1    6    6  503    0 -0.56126486803E+02  0.12460622250E+03  0.44313586970E+02  0.14366832357E+03  0.00000000000E+00 0. -1.
         -1    1    6    6    0  503 -0.52869314922E+02  0.45294722699E+03  0.96583478617E+02  0.46613809460E+03  0.00000000000E+00 0.  1.
<mgrwt>
<rscale>  0 0.18028437E+04</rscale>
<asrwt>0</asrwt>
<pdfrwt beam="1">  1        2 0.27745470E+00 0.18028437E+04</pdfrwt>
<pdfrwt beam="2">  1       -1 0.69316618E-01 0.18028437E+04</pdfrwt>
<totfact> 0.19441543E+01</totfact>
</mgrwt>
</event>
<event>
12    7  0.1637954E-007  0.1245536E+04  0.7818608E-02  0.9073906E-01
          2   -1    0    0  501    0  0.00000000000E+00  0.00000000000E+00  0.36531307128E+04  0.36531307128E+04  0.00000000000E+00 0. -1.
         -1   -1    0    0    0  501 -0.00000000000E+00 -0.00000000000E+00 -0.10616655123E+03  0.10616655123E+03  0.00000000000E+00 0.  1.
         24    2    1    2    0    0  0.12590353652E+03  0.71695596015E+01  0.69398053619E+02  0.16449856167E+03  0.79627783163E+02 0.  0.
        254    2    1    2    0    0 -0.12590353652E+03 -0.71695596015E+01  0.34775661079E+04  0.35947987023E+04  0.90178077835E+03 0.  0.
         23    2    4    4    0    0  0.32792618708E+03  0.17655735996E+03  0.10862740403E+04  0.11522923350E+04  0.95279846082E+02 0.  0.
         23    2    4    4    0    0 -0.45382972360E+03 -0.18372691956E+03  0.23912920676E+04  0.24425063673E+04  0.88558471849E+02 0.  0.
          2    1    3    3  502    0  0.13087979702E+02  0.30379462575E+02  0.82378740274E+01  0.34089140904E+02  0.00000000000E+00 0. -1.
         -1    1    3    3    0  502  0.11281555682E+03 -0.23209902974E+02  0.61160179592E+02  0.13040942077E+03  0.00000000000E+00 0.  1.
         13    1    5    5    0    0  0.31369681410E+03  0.18647849333E+03  0.10055249210E+04  0.10697010266E+04  0.00000000000E+00 0. -1.
        -13    1    5    5    0    0  0.14229372975E+02 -0.99211333683E+01  0.80749119353E+02  0.82591308374E+02  0.00000000000E+00 0.  1.
          3    1    6    6  503    0 -0.22405560054E+03 -0.98599486351E+02  0.14094462365E+04  0.14305458624E+04  0.00000000000E+00 0. -1.
         -3    1    6    6    0  503 -0.22977412306E+03 -0.85127433208E+02  0.98184583111E+03  0.10119605050E+04  0.00000000000E+00 0.  1.
<mgrwt>
<rscale>  0 0.12455365E+04</rscale>
<asrwt>0</asrwt>
<pdfrwt beam="1">  1        2 0.56202001E+00 0.12455365E+04</pdfrwt>
<pdfrwt beam="2">  1       -1 0.16333318E-01 0.12455365E+04</pdfrwt>
<totfact> 0.20822285E+01</totfact>
</mgrwt>
</event>
<event>
12    7  0.1637954E-007  0.1734424E+04  0.7818608E-02  0.8741971E-01
         -1   -1    0    0    0  501 -0.00000000000E+00  0.00000000000E+00  0.76455370295E+03  0.76455370295E+03  0.00000000000E+00 0.  1.
          2   -1    0    0  501    0  0.00000000000E+00 -0.00000000000E+00 -0.98365461122E+03  0.98365461122E+03  0.00000000000E+00 0. -1.
         24    2    1    2    0    0 -0.20647705243E+03 -0.56937988152E+03 -0.24695893749E+03  0.66079294153E+03  0.93980700771E+02 0.  0.
        254    2    1    2    0    0  0.20647705243E+03  0.56937988152E+03  0.27858029213E+02  0.10874153726E+04  0.90270144578E+03 0.  0.
         23    2    4    4    0    0  0.34398455787E+03  0.10783245179E+03  0.34232557261E+03  0.50551327547E+03  0.91671480297E+02 0.  0.
         23    2    4    4    0    0 -0.13750750544E+03  0.46154742973E+03 -0.31446754340E+03  0.58190209717E+03  0.88237582130E+02 0.  0.
          2    1    3    3  502    0 -0.13143394230E+03 -0.22614140870E+03 -0.10612048223E+03  0.28227003855E+03  0.00000000000E+00 0. -1.
         -1    1    3    3    0  502 -0.75043110135E+02 -0.34323847282E+03 -0.14083845526E+03  0.37852290298E+03  0.00000000000E+00 0.  1.
         13    1    5    5    0    0  0.69959399682E+02  0.56620595078E+02  0.11351934865E+03  0.14486839514E+03  0.00000000000E+00 0.  1.
        -13    1    5    5    0    0  0.27402515819E+03  0.51211856710E+02  0.22880622396E+03  0.36064488033E+03  0.00000000000E+00 0. -1.
          2    1    6    6  503    0 -0.12210045872E+03  0.41638298688E+03 -0.24708685777E+03  0.49933478656E+03  0.00000000000E+00 0. -1.
         -2    1    6    6    0  503 -0.15407046719E+02  0.45164442851E+02 -0.67380685629E+02  0.82567310617E+02  0.00000000000E+00 0.  1.
<mgrwt>
<rscale>  0 0.17344241E+04</rscale>
<asrwt>0</asrwt>
<pdfrwt beam="1">  1        2 0.15133148E+00 0.17344241E+04</pdfrwt>
<pdfrwt beam="2">  1       -1 0.11762365E+00 0.17344241E+04</pdfrwt>
<totfact> 0.18167920E+01</totfact>
</mgrwt>
</event>
<event>
12    7  0.1637954E-007  0.2428628E+04  0.7818608E-02  0.8428863E-01
          4   -1    0    0  501    0  0.00000000000E+00  0.00000000000E+00  0.10657311757E+04  0.10657311757E+04  0.00000000000E+00 0. -1.
         -3   -1    0    0    0  501 -0.00000000000E+00 -0.00000000000E+00 -0.13836120773E+04  0.13836120773E+04  0.00000000000E+00 0.  1.
         24    2    1    2    0    0  0.10554478469E+03 -0.10096172578E+03  0.90714185638E+03  0.92185605406E+03  0.74694478831E+02 0.  0.
        254    2    1    2    0    0 -0.10554478469E+03  0.10096172578E+03 -0.12250227579E+04  0.15274871989E+04  0.90066831516E+03 0.  0.
         23    2    4    4    0    0 -0.42565169205E+03  0.27664000834E+03 -0.86180913501E+03  0.10043409375E+04  0.90976240391E+02 0.  0.
         23    2    4    4    0    0  0.32010690736E+03 -0.17567828256E+03 -0.36321362289E+03  0.52314626148E+03  0.91796426676E+02 0.  0.
          4    1    3    3  502    0  0.35480268459E+02 -0.81141794519E+02  0.57892294198E+03  0.58565741951E+03  0.00000000000E+00 0. -1.
         -3    1    3    3    0  502  0.70064516233E+02 -0.19819931258E+02  0.32821891440E+03  0.33619863456E+03  0.00000000000E+00 0.  1.
         13    1    5    5    0    0 -0.92697675527E+02  0.10660635166E+03 -0.25856341252E+03  0.29464013908E+03  0.00000000000E+00 0.  1.
        -13    1    5    5    0    0 -0.33295401653E+03  0.17003365668E+03 -0.60324572249E+03  0.70970079838E+03  0.00000000000E+00 0. -1.
          4    1    6    6  503    0  0.24681508868E+03 -0.12623089081E+03 -0.21605397461E+03  0.35147012069E+03  0.00000000000E+00 0. -1.
         -4    1    6    6    0  503  0.73291818681E+02 -0.49447391754E+02 -0.14715964827E+03  0.17167614079E+03  0.00000000000E+00 0.  1.
<mgrwt>
<rscale>  0 0.24286280E+04</rscale>
<asrwt>0</asrwt>
<pdfrwt beam="1">  1        4 0.16395864E+00 0.24286280E+04</pdfrwt>
<pdfrwt beam="2">  1       -3 0.21286340E+00 0.24286280E+04</pdfrwt>
<totfact> 0.58252888E-02</totfact>
</mgrwt>
</event>
<event>
12    7  0.1637954E-007  0.1890720E+04  0.7818608E-02  0.8659489E-01
          2   -1    0    0  501    0  0.00000000000E+00  0.00000000000E+00  0.33413858316E+04  0.33413858316E+04  0.00000000000E+00 0. -1.
         -1   -1    0    0    0  501 -0.00000000000E+00 -0.00000000000E+00 -0.26746560636E+03  0.26746560636E+03  0.00000000000E+00 0.  1.
         24    2    1    2    0    0 -0.32587129291E+03 -0.58070307739E+03  0.62562035197E+03  0.91706678547E+03  0.78755955903E+02 0.  0.
        254    2    1    2    0    0  0.32587129291E+03  0.58070307739E+03  0.24482998732E+04  0.26917846524E+04  0.89895727497E+03 0.  0.
         23    2    4    4    0    0  0.43456622343E+03 -0.10887838568E+02  0.15057494062E+04  0.15698991531E+04  0.91300213963E+02 0.  0.
         23    2    4    4    0    0 -0.10869493052E+03  0.59159091595E+03  0.94255046706E+03  0.11218854994E+04  0.91822061409E+02 0.  0.
          2    1    3    3  502    0 -0.56652995784E+02 -0.15532172457E+03  0.18436574409E+03  0.24763910767E+03  0.00000000000E+00 0. -1.
         -1    1    3    3    0  502 -0.26921829713E+03 -0.42538135281E+03  0.44125460788E+03  0.66942767780E+03  0.00000000000E+00 0.  1.
         13    1    5    5    0    0  0.15327185516E+03 -0.47601598146E+02  0.53824710269E+03  0.56166548522E+03  0.00000000000E+00 0. -1.
        -13    1    5    5    0    0  0.28129436827E+03  0.36713759578E+02  0.96750230348E+03  0.10082336679E+04  0.00000000000E+00 0.  1.
          1    1    6    6  503    0  0.11466055629E+02  0.14150292945E+03  0.19885003551E+03  0.24432741577E+03  0.00000000000E+00 0. -1.
         -1    1    6    6    0  503 -0.12016098615E+03  0.45008798650E+03  0.74370043155E+03  0.87755808359E+03  0.00000000000E+00 0.  1.
<mgrwt>
<rscale>  0 0.18907203E+04</rscale>
<asrwt>0</asrwt>
<pdfrwt beam="1">  1        2 0.51405933E+00 0.18907203E+04</pdfrwt>
<pdfrwt beam="2">  1       -1 0.41148557E-01 0.18907203E+04</pdfrwt>
<totfact> 0.64818394E+00</totfact>
</mgrwt>
</event>
<event>
12    7  0.1637954E-007  0.1742004E+04  0.7818608E-02  0.8737764E-01
          2   -1    0    0  501    0  0.00000000000E+00  0.00000000000E+00  0.73702852609E+03  0.73702852609E+03  0.00000000000E+00 0. -1.
         -1   -1    0    0    0  501 -0.00000000000E+00 -0.00000000000E+00 -0.10293285882E+04  0.10293285882E+04  0.00000000000E+00 0.  1.
         24    2    1    2    0    0  0.54327150319E+03  0.20369002129E+03 -0.39774801384E+03  0.70806534776E+03  0.80743440780E+02 0.  0.
        254    2    1    2    0    0 -0.54327150319E+03 -0.20369002129E+03  0.10544795170E+03  0.10582917666E+04  0.87876540767E+03 0.  0.
         23    2    4    4    0    0 -0.28738586572E+03  0.25635903052E+03 -0.20027581967E+03  0.44293592777E+03  0.88154658521E+02 0.  0.
         23    2    4    4    0    0 -0.25588563747E+03 -0.46004905181E+03  0.30572377137E+03  0.61535583880E+03  0.89850956775E+02 0.  0.
          4    1    3    3  502    0  0.11439361625E+03  0.75549976782E+02 -0.75336574473E+02  0.15642665337E+03  0.00000000000E+00 0. -1.
         -3    1    3    3    0  502  0.42887788694E+03  0.12814004451E+03 -0.32241143937E+03  0.55163869439E+03  0.00000000000E+00 0.  1.
         13    1    5    5    0    0 -0.10466857529E+03  0.14926531105E+03 -0.77167115513E+02  0.19796567241E+03  0.00000000000E+00 0. -1.
        -13    1    5    5    0    0 -0.18271729043E+03  0.10709371947E+03 -0.12310870416E+03  0.24497025536E+03  0.00000000000E+00 0.  1.
          1    1    6    6  503    0 -0.24876655055E+03 -0.44000782245E+03  0.26816244717E+03  0.57219120804E+03  0.00000000000E+00 0. -1.
         -1    1    6    6    0  503 -0.71190869181E+01 -0.20041229357E+02  0.37561324200E+02  0.43164630757E+02  0.00000000000E+00 0.  1.
<mgrwt>
<rscale>  0 0.17420041E+04</rscale>
<asrwt>0</asrwt>
<pdfrwt beam="1">  1        2 0.11338901E+00 0.17420041E+04</pdfrwt>
<pdfrwt beam="2">  1       -1 0.15835824E+00 0.17420041E+04</pdfrwt>
<totfact> 0.12492844E+01</totfact>
</mgrwt>
</event>
<event>
12    7  0.1637954E-007  0.1566603E+04  0.7818608E-02  0.8841332E-01
         -1   -1    0    0    0  501 -0.00000000000E+00  0.00000000000E+00  0.14848639030E+04  0.14848639030E+04  0.00000000000E+00 0.  1.
          2   -1    0    0  501    0  0.00000000000E+00 -0.00000000000E+00 -0.41321058813E+03  0.41321058813E+03  0.00000000000E+00 0. -1.
         24    2    1    2    0    0  0.39253226713E+03  0.98253025954E+02 -0.29749919929E+02  0.41270369550E+03  0.75525126248E+02 0.  0.
        254    2    1    2    0    0 -0.39253226713E+03 -0.98253025954E+02  0.11014032348E+04  0.14853707956E+04  0.91077004619E+03 0.  0.
         23    2    4    4    0    0 -0.11222391530E+03 -0.35010987167E+01 -0.14248483544E+03  0.20340688126E+03  0.92010685010E+02 0.  0.
         23    2    4    4    0    0 -0.28030835183E+03 -0.94751927238E+02  0.12438880703E+04  0.12819639144E+04  0.92861437924E+02 0.  0.
          4    1    3    3  502    0  0.24982312490E+03  0.93456044979E+02 -0.39224089198E+02  0.26959999119E+03  0.00000000000E+00 0. -1.
         -3    1    3    3    0  502  0.14270914223E+03  0.47969809758E+01  0.94741692695E+01  0.14310370431E+03  0.00000000000E+00 0.  1.
         13    1    5    5    0    0 -0.66138382822E+00  0.22308850685E+02 -0.23576224117E+01  0.22442830279E+02  0.00000000000E+00 0.  1.
        -13    1    5    5    0    0 -0.11156253148E+03 -0.25809949402E+02 -0.14012721302E+03  0.18096405098E+03  0.00000000000E+00 0. -1.
          4    1    6    6  503    0 -0.94266368394E+02  0.40274803703E+01  0.50019262240E+03  0.50901378008E+03  0.00000000000E+00 0. -1.
         -4    1    6    6    0  503 -0.18604198344E+03 -0.98779407608E+02  0.74369544785E+03  0.77295013430E+03  0.00000000000E+00 0.  1.
<mgrwt>
<rscale>  0 0.15666033E+04</rscale>
<asrwt>0</asrwt>
<pdfrwt beam="1">  1        2 0.63570861E-01 0.15666033E+04</pdfrwt>
<pdfrwt beam="2">  1       -1 0.22844060E+00 0.15666033E+04</pdfrwt>
<totfact> 0.81480215E+00</totfact>
</mgrwt>
</event>
<event>
12    7  0.1637954E-007  0.2041557E+04  0.7818608E-02  0.8587434E-01
          2   -1    0    0  501    0  0.00000000000E+00  0.00000000000E+00  0.11653283848E+04  0.11653283848E+04  0.00000000000E+00 0. -1.
         -1   -1    0    0    0  501 -0.00000000000E+00 -0.00000000000E+00 -0.89415875779E+03  0.89415875779E+03  0.00000000000E+00 0.  1.
         24    2    1    2    0    0  0.41598303143E+03  0.70480838244E+03  0.11445218436E+03  0.83027776019E+03  0.80405958479E+02 0.  0.
        254    2    1    2    0    0 -0.41598303143E+03 -0.70480838244E+03  0.15671744262E+03  0.12292093824E+04  0.90365845898E+03 0.  0.
         23    2    4    4    0    0 -0.65953141699E+03 -0.28015670260E+03  0.10724252610E+03  0.73030986338E+03  0.91553640792E+02 0.  0.
         23    2    4    4    0    0  0.24354838556E+03 -0.42465167985E+03  0.49474916517E+02  0.49889951899E+03  0.82511195476E+02 0.  0.
          2    1    3    3  502    0  0.29696350251E+03  0.47493056928E+03  0.11298232709E+03  0.57141173745E+03  0.00000000000E+00 0. -1.
         -1    1    3    3    0  502  0.11901952892E+03  0.22987781316E+03  0.14698572742E+01  0.25886602274E+03  0.00000000000E+00 0.  1.
         13    1    5    5    0    0 -0.42400366562E+02 -0.65381683276E+01  0.26508638339E+02  0.50430612095E+02  0.00000000000E+00 0. -1.
        -13    1    5    5    0    0 -0.61713105043E+03 -0.27361853427E+03  0.80733887764E+02  0.67987925129E+03  0.00000000000E+00 0.  1.
          4    1    6    6  503    0  0.51625467820E+02 -0.16060494056E+03  0.34097333867E+02  0.17210974417E+03  0.00000000000E+00 0. -1.
         -4    1    6    6    0  503  0.19192291774E+03 -0.26404673928E+03  0.15377582650E+02  0.32678977482E+03  0.00000000000E+00 0.  1.
<mgrwt>
<rscale>  0 0.20415568E+04</rscale>
<asrwt>0</asrwt>
<pdfrwt beam="1">  1        2 0.17928129E+00 0.20415568E+04</pdfrwt>
<pdfrwt beam="2">  1       -1 0.13756288E+00 0.20415568E+04</pdfrwt>
<totfact> 0.92075366E+00</totfact>
</mgrwt>
</event>
<event>
12    7  0.1637954E-007  0.2689878E+04  0.7818608E-02  0.8338297E-01
         -1   -1    0    0    0  501 -0.00000000000E+00  0.00000000000E+00  0.15880236981E+04  0.15880236981E+04  0.00000000000E+00 0.  1.
          2   -1    0    0  501    0  0.00000000000E+00 -0.00000000000E+00 -0.11390640203E+04  0.11390640203E+04  0.00000000000E+00 0. -1.
         24    2    1    2    0    0 -0.60978535257E+03  0.71307546282E+03 -0.55614693061E+03  0.10938136166E+04  0.82547123091E+02 0.  0.
        254    2    1    2    0    0  0.60978535257E+03 -0.71307546282E+03  0.10051066084E+04  0.16332741018E+04  0.88149316815E+03 0.  0.
         23    2    4    4    0    0  0.53185888748E+03 -0.90172618602E+03  0.91611865277E+03  0.13937222331E+04  0.84878067394E+02 0.  0.
         23    2    4    4    0    0  0.77926465086E+02  0.18865072320E+03  0.88987955643E+02  0.23955186872E+03  0.88343716419E+02 0.  0.
          2    1    3    3  502    0 -0.57561318653E+03  0.67590989459E+03 -0.54617883273E+03  0.10423512093E+04  0.00000000000E+00 0. -1.
         -1    1    3    3    0  502 -0.34172166039E+02  0.37165568227E+02 -0.99680978811E+01  0.51462407336E+02  0.00000000000E+00 0.  1.
         13    1    5    5    0    0  0.11826417173E+03 -0.19175939119E+03  0.24479684975E+03  0.33269141269E+03  0.00000000000E+00 0. -1.
        -13    1    5    5    0    0  0.41359471575E+03 -0.70996679483E+03  0.67132180302E+03  0.10610308204E+04  0.00000000000E+00 0.  1.
          1    1    6    6  503    0  0.18284577666E+02 -0.38396089273E+01 -0.13063550777E+01  0.18728986644E+02  0.00000000000E+00 0. -1.
         -1    1    6    6    0  503  0.59641887420E+02  0.19249033213E+03  0.90294310721E+02  0.22082288207E+03  0.00000000000E+00 0.  1.
<mgrwt>
<rscale>  0 0.26898778E+04</rscale>
<asrwt>0</asrwt>
<pdfrwt beam="1">  1        2 0.17524062E+00 0.26898778E+04</pdfrwt>
<pdfrwt beam="2">  1       -1 0.24431134E+00 0.26898778E+04</pdfrwt>
<totfact> 0.15668885E+00</totfact>
</mgrwt>
</event>
<event>
12    7  0.1637954E-007  0.2583649E+04  0.7818608E-02  0.8373776E-01
         -1   -1    0    0    0  501 -0.00000000000E+00  0.00000000000E+00  0.24867279309E+04  0.24867279309E+04  0.00000000000E+00 0.  1.
          2   -1    0    0  501    0  0.00000000000E+00 -0.00000000000E+00 -0.67108712810E+03  0.67108712810E+03  0.00000000000E+00 0. -1.
         24    2    1    2    0    0 -0.62837401743E+03 -0.32405184315E+03 -0.25630466234E+03  0.75622902260E+03  0.79540881620E+02 0.  0.
        254    2    1    2    0    0  0.62837401743E+03  0.32405184315E+03  0.20719454651E+04  0.24015860364E+04  0.98731655354E+03 0.  0.
         23    2    4    4    0    0  0.42720377136E+03  0.64091452166E+03  0.10262076368E+04  0.12863693970E+04  0.91485657454E+02 0.  0.
         23    2    4    4    0    0  0.20117024608E+03 -0.31686267851E+03  0.10457378283E+04  0.11152166393E+04  0.96276280097E+02 0.  0.
          4    1    3    3  502    0 -0.62970047757E+03 -0.32566369212E+03 -0.25385025134E+03  0.75300696007E+03  0.00000000000E+00 0. -1.
         -3    1    3    3    0  502  0.13264601306E+01  0.16118489698E+01 -0.24544109990E+01  0.32220625276E+01  0.00000000000E+00 0.  1.
         13    1    5    5    0    0  0.21483012820E+03  0.26328866779E+03  0.39930603979E+03  0.52432644410E+03  0.00000000000E+00 0. -1.
        -13    1    5    5    0    0  0.21237364316E+03  0.37762585387E+03  0.62690159700E+03  0.76204295295E+03  0.00000000000E+00 0.  1.
          4    1    6    6  503    0 -0.89719051355E+01 -0.38298421111E+01  0.17500838027E+02  0.20036020163E+02  0.00000000000E+00 0. -1.
         -4    1    6    6    0  503  0.21014215121E+03 -0.31303283640E+03  0.10282369903E+04  0.10951806192E+04  0.00000000000E+00 0.  1.
<mgrwt>
<rscale>  0 0.25836494E+04</rscale>
<asrwt>0</asrwt>
<pdfrwt beam="1">  1        2 0.10324417E+00 0.25836494E+04</pdfrwt>
<pdfrwt beam="2">  1       -1 0.38257352E+00 0.25836494E+04</pdfrwt>
<totfact> 0.41038755E-01</totfact>
</mgrwt>
</event>
<event>
12    7  0.1637954E-007  0.1700200E+04  0.7818608E-02  0.8761251E-01
         -1   -1    0    0    0  501 -0.00000000000E+00  0.00000000000E+00  0.13547335604E+04  0.13547335604E+04  0.00000000000E+00 0.  1.
          2   -1    0    0  501    0  0.00000000000E+00 -0.00000000000E+00 -0.53344042172E+03  0.53344042172E+03  0.00000000000E+00 0. -1.
         24    2    1    2    0    0 -0.37579329532E+03 -0.35097539844E+03  0.65755330338E+03  0.83901321205E+03  0.84631507650E+02 0.  0.
        254    2    1    2    0    0  0.37579329532E+03  0.35097539844E+03  0.16373983526E+03  0.10491607700E+04  0.89973510357E+03 0.  0.
         23    2    4    4    0    0  0.62178364100E+03  0.42362432957E+03  0.77144448618E+02  0.76147832986E+03  0.88461924434E+02 0.  0.
         23    2    4    4    0    0 -0.24599034568E+03 -0.72648931126E+02  0.86595386640E+02  0.28768244017E+03  0.97330920242E+02 0.  0.
          4    1    3    3  502    0 -0.91458585379E+02 -0.10185204487E+03  0.12125544398E+03  0.18286988429E+03  0.00000000000E+00 0. -1.
         -1    1    3    3    0  502 -0.28433470995E+03 -0.24912335357E+03  0.53629785940E+03  0.65614332776E+03  0.00000000000E+00 0.  1.
         13    1    5    5    0    0  0.55326683050E+03  0.37063143607E+03  0.39719308374E+02  0.66712028195E+03  0.00000000000E+00 0. -1.
        -13    1    5    5    0    0  0.68516810501E+02  0.52992893498E+02  0.37425140244E+02  0.94358047907E+02  0.00000000000E+00 0.  1.
          3    1    6    6  503    0 -0.23974078534E+03 -0.82153175105E+02  0.97869066008E+02  0.27166733778E+03  0.00000000000E+00 0. -1.
         -3    1    6    6    0  503 -0.62495603324E+01  0.95042439789E+01 -0.11273679368E+02  0.16015102387E+02  0.00000000000E+00 0.  1.
<mgrwt>
<rscale>  0 0.17001996E+04</rscale>
<asrwt>0</asrwt>
<pdfrwt beam="1">  1        2 0.82067758E-01 0.17001996E+04</pdfrwt>
<pdfrwt beam="2">  1       -1 0.20842055E+00 0.17001996E+04</pdfrwt>
<totfact> 0.81776258E+00</totfact>
</mgrwt>
</event>
<event>
12    7  0.1637954E-007  0.1259242E+04  0.7818608E-02  0.9062526E-01
         -1   -1    0    0    0  501 -0.00000000000E+00  0.00000000000E+00  0.35335628565E+03  0.35335628565E+03  0.00000000000E+00 0.  1.
          2   -1    0    0  501    0  0.00000000000E+00 -0.00000000000E+00 -0.11218775010E+04  0.11218775010E+04  0.00000000000E+00 0. -1.
         24    2    1    2    0    0 -0.16778061953E+03 -0.50594887852E+02 -0.47340828373E+03  0.51113855466E+03  0.80231165960E+02 0.  0.
        254    2    1    2    0    0  0.16778061953E+03  0.50594887852E+02 -0.29511293157E+03  0.96409523194E+03  0.90093162610E+03 0.  0.
         23    2    4    4    0    0  0.65737437497E+01 -0.19139040397E+03  0.25652706170E+03  0.33373480090E+03  0.94336011728E+02 0.  0.
         23    2    4    4    0    0  0.16120687579E+03  0.24198529182E+03 -0.55163999327E+03  0.63036043104E+03  0.92211998058E+02 0.  0.
          4    1    3    3  502    0 -0.16766262130E+03 -0.63901665152E+02 -0.44021131233E+03  0.47537372340E+03  0.00000000000E+00 0. -1.
         -3    1    3    3    0  502 -0.11799823744E+00  0.13306777299E+02 -0.33196971396E+02  0.35764831267E+02  0.00000000000E+00 0.  1.
         13    1    5    5    0    0 -0.31922649227E+02 -0.10499196290E+03  0.88759714739E+02  0.14114054969E+03  0.00000000000E+00 0.  1.
        -13    1    5    5    0    0  0.38496392976E+02 -0.86398441070E+02  0.16776734696E+03  0.19259425121E+03  0.00000000000E+00 0. -1.
          2    1    6    6  503    0  0.13497525830E+03  0.17766661813E+03 -0.33209232345E+03  0.40008631424E+03  0.00000000000E+00 0.  1.
         -2    1    6    6    0  503  0.26231617484E+02  0.64318673687E+02 -0.21954766983E+03  0.23027411680E+03  0.00000000000E+00 0. -1.
<mgrwt>
<rscale>  0 0.12592418E+04</rscale>
<asrwt>0</asrwt>
<pdfrwt beam="1">  1        2 0.17259654E+00 0.12592418E+04</pdfrwt>
<pdfrwt beam="2">  1       -1 0.54362506E-01 0.12592418E+04</pdfrwt>
<totfact> 0.80889781E+01</totfact>
</mgrwt>
</event>
<event>
12    7  0.1637954E-007  0.2845437E+04  0.7818608E-02  0.8289299E-01
          2   -1    0    0  501    0  0.00000000000E+00  0.00000000000E+00  0.31846811266E+04  0.31846811266E+04  0.00000000000E+00 0. -1.
         -1   -1    0    0    0  501 -0.00000000000E+00 -0.00000000000E+00 -0.63558275027E+03  0.63558275027E+03  0.00000000000E+00 0.  1.
         24    2    1    2    0    0  0.79182640019E+03 -0.28432829880E+02 -0.20067799229E+03  0.82114687394E+03  0.78822954391E+02 0.  0.
        254    2    1    2    0    0 -0.79182640019E+03  0.28432829880E+02  0.27497763686E+04  0.29991170029E+04  0.89757186117E+03 0.  0.
         23    2    4    4    0    0 -0.83112379345E+03  0.18845809162E+03  0.26545940119E+04  0.27895079951E+04  0.90566406869E+02 0.  0.
         23    2    4    4    0    0  0.39297393257E+02 -0.16002526174E+03  0.95182356713E+02  0.20960900788E+03  0.87885639574E+02 0.  0.
          2    1    3    3  502    0  0.79969522385E+02 -0.20139016179E+02 -0.39552879552E+01  0.82561182077E+02  0.00000000000E+00 0. -1.
         -1    1    3    3    0  502  0.71185687781E+03 -0.82938137012E+01 -0.19672270433E+03  0.73858569187E+03  0.00000000000E+00 0.  1.
         13    1    5    5    0    0 -0.21111912654E+03  0.87053231660E+02  0.74672050833E+03  0.78085918596E+03  0.00000000000E+00 0.  1.
        -13    1    5    5    0    0 -0.62000466691E+03  0.10140485996E+03  0.19078735036E+04  0.20086488091E+04  0.00000000000E+00 0. -1.
          3    1    6    6  503    0  0.37227811227E+02 -0.16042888905E+03  0.61406142732E+02  0.17576704110E+03  0.00000000000E+00 0. -1.
         -3    1    6    6    0  503  0.20695820302E+01  0.40362731187E+00  0.33776213981E+02  0.33841966782E+02  0.00000000000E+00 0.  1.
<mgrwt>
<rscale>  0 0.28454373E+04</rscale>
<asrwt>0</asrwt>
<pdfrwt beam="1">  1        2 0.48995094E+00 0.28454373E+04</pdfrwt>
<pdfrwt beam="2">  1       -1 0.97781963E-01 0.28454373E+04</pdfrwt>
<totfact> 0.13107815E+00</totfact>
</mgrwt>
</event>
<event>
12    7  0.1637954E-007  0.5123650E+04  0.7818608E-02  0.7809711E-01
          2   -1    0    0  501    0  0.00000000000E+00  0.00000000000E+00  0.26987312586E+04  0.26987312586E+04  0.00000000000E+00 0. -1.
         -1   -1    0    0    0  501 -0.00000000000E+00 -0.00000000000E+00 -0.24318637987E+04  0.24318637987E+04  0.00000000000E+00 0.  1.
         24    2    1    2    0    0 -0.17638832083E+04 -0.16990259590E+04 -0.27384168694E+03  0.24657122795E+04  0.82307922607E+02 0.  0.
        254    2    1    2    0    0  0.17638832083E+04  0.16990259590E+04  0.54070914677E+03  0.26648827778E+04  0.90070009214E+03 0.  0.
         23    2    4    4    0    0  0.15448377399E+04  0.12300782269E+04  0.10045507533E+03  0.19794404912E+04  0.92072521246E+02 0.  0.
         23    2    4    4    0    0  0.21904546835E+03  0.46894773212E+03  0.44025407143E+03  0.68544228653E+03  0.90081008516E+02 0.  0.
          4    1    3    3  502    0 -0.91230426264E+03 -0.92392345030E+03 -0.11988352055E+03  0.13039576942E+04  0.00000000000E+00 0. -1.
         -3    1    3    3    0  502 -0.85157894563E+03 -0.77510250871E+03 -0.15395816639E+03  0.11617545854E+04  0.00000000000E+00 0.  1.
         13    1    5    5    0    0  0.11698981031E+04  0.96912531677E+03  0.51843139114E+02  0.15200503815E+04  0.00000000000E+00 0.  1.
        -13    1    5    5    0    0  0.37493963685E+03  0.26095291012E+03  0.48611936220E+02  0.45939010974E+03  0.00000000000E+00 0. -1.
          4    1    6    6  503    0  0.19414211757E+02  0.74795495760E+01  0.76937096398E+01  0.22182165089E+02  0.00000000000E+00 0. -1.
         -4    1    6    6    0  503  0.19963125659E+03  0.46146818254E+03  0.43256036179E+03  0.66326012144E+03  0.00000000000E+00 0.  1.
<mgrwt>
<rscale>  0 0.51236498E+04</rscale>
<asrwt>0</asrwt>
<pdfrwt beam="1">  1        2 0.41518943E+00 0.51236498E+04</pdfrwt>
<pdfrwt beam="2">  1       -1 0.37413289E+00 0.51236498E+04</pdfrwt>
<totfact> 0.23383680E-02</totfact>
</mgrwt>
</event>
<event>
12    7  0.1637954E-007  0.1597794E+04  0.7818608E-02  0.8821904E-01
         -1   -1    0    0    0  501 -0.00000000000E+00  0.00000000000E+00  0.35441415037E+03  0.35441415037E+03  0.00000000000E+00 0.  1.
          2   -1    0    0  501    0  0.00000000000E+00 -0.00000000000E+00 -0.18008205697E+04  0.18008205697E+04  0.00000000000E+00 0. -1.
         24    2    1    2    0    0 -0.21916482112E+03 -0.45889970705E+03 -0.73195217914E+03  0.89514439940E+03  0.83110428156E+02 0.  0.
        254    2    1    2    0    0  0.21916482112E+03  0.45889970705E+03 -0.71445424016E+03  0.12600903206E+04  0.90485390808E+03 0.  0.
         23    2    4    4    0    0 -0.26914853003E+03 -0.87484104363E+02 -0.16961806041E+03  0.34234752371E+03  0.91307945119E+02 0.  0.
         23    2    4    4    0    0  0.48831335115E+03  0.54638381142E+03 -0.54483617975E+03  0.91774279694E+03  0.91761540318E+02 0.  0.
          2    1    3    3  502    0 -0.21362523652E+03 -0.45816294504E+03 -0.70434942499E+03  0.86698162516E+03  0.00000000000E+00 0. -1.
         -1    1    3    3    0  502 -0.55395845966E+01 -0.73676201836E+00 -0.27602754157E+02  0.28162774239E+02  0.00000000000E+00 0.  1.
         13    1    5    5    0    0 -0.20453038844E+03 -0.64500698520E+02 -0.17015403524E+03  0.27376160362E+03  0.00000000000E+00 0. -1.
        -13    1    5    5    0    0 -0.64618141583E+02 -0.22983405843E+02  0.53597483333E+00  0.68585920091E+02  0.00000000000E+00 0.  1.
          4    1    6    6  503    0  0.28415580598E+03  0.32280667173E+03 -0.26299253862E+03  0.50409695967E+03  0.00000000000E+00 0. -1.
         -4    1    6    6    0  503  0.20415754516E+03  0.22357713969E+03 -0.28184364113E+03  0.41364583726E+03  0.00000000000E+00 0.  1.
<mgrwt>
<rscale>  0 0.15977938E+04</rscale>
<asrwt>0</asrwt>
<pdfrwt beam="1">  1        2 0.27704932E+00 0.15977938E+04</pdfrwt>
<pdfrwt beam="2">  1       -1 0.54525254E-01 0.15977938E+04</pdfrwt>
<totfact> 0.31998383E+01</totfact>
</mgrwt>
</event>
<event>
12    7  0.1637954E-007  0.2063739E+04  0.7818608E-02  0.8577387E-01
         -1   -1    0    0    0  501 -0.00000000000E+00  0.00000000000E+00  0.66110199720E+03  0.66110199720E+03  0.00000000000E+00 0.  1.
          2   -1    0    0  501    0  0.00000000000E+00 -0.00000000000E+00 -0.16105747145E+04  0.16105747145E+04  0.00000000000E+00 0. -1.
         24    2    1    2    0    0 -0.82906134043E+03 -0.73931283658E+02 -0.38079261395E+03  0.91916624633E+03  0.83994241819E+02 0.  0.
        254    2    1    2    0    0  0.82906134043E+03  0.73931283658E+02 -0.56868010331E+03  0.13525104653E+04  0.90170890981E+03 0.  0.
         23    2    4    4    0    0  0.28918112591E+01 -0.16036939563E+03 -0.44308799303E+03  0.47969567122E+03  0.89745539076E+02 0.  0.
         23    2    4    4    0    0  0.82616952917E+03  0.23430067929E+03 -0.12559211028E+03  0.87281479412E+03  0.92624982728E+02 0.  0.
          4    1    3    3  502    0 -0.81346942139E+03 -0.81059378014E+02 -0.36303011048E+03  0.89447972779E+03  0.00000000000E+00 0. -1.
         -3    1    3    3    0  502 -0.15591919035E+02  0.71280943566E+01 -0.17762503467E+02  0.24686518543E+02  0.00000000000E+00 0.  1.
         13    1    5    5    0    0  0.26772083606E+02 -0.58416152889E+01 -0.62940232122E+02  0.68646498450E+02  0.00000000000E+00 0. -1.
        -13    1    5    5    0    0 -0.23880272347E+02 -0.15452778034E+03 -0.38014776091E+03  0.41104917277E+03  0.00000000000E+00 0.  1.
          3    1    6    6  503    0  0.41987608884E+02  0.12895544247E+02 -0.28152749580E+02  0.52171176622E+02  0.00000000000E+00 0. -1.
         -3    1    6    6    0  503  0.78418192028E+03  0.22140513504E+03 -0.97439360700E+02  0.82064361749E+03  0.00000000000E+00 0.  1.
<mgrwt>
<rscale>  0 0.20637385E+04</rscale>
<asrwt>0</asrwt>
<pdfrwt beam="1">  1        2 0.24778072E+00 0.20637385E+04</pdfrwt>
<pdfrwt beam="2">  1       -1 0.10170800E+00 0.20637385E+04</pdfrwt>
<totfact> 0.10616951E+01</totfact>
</mgrwt>
</event>
<event>
12    7  0.1637954E-007  0.3363600E+04  0.7818608E-02  0.8146898E-01
          2   -1    0    0  501    0  0.00000000000E+00  0.00000000000E+00  0.14073588378E+04  0.14073588378E+04  0.00000000000E+00 0. -1.
         -1   -1    0    0    0  501 -0.00000000000E+00 -0.00000000000E+00 -0.20097585510E+04  0.20097585510E+04  0.00000000000E+00 0.  1.
         24    2    1    2    0    0  0.35203551511E+03 -0.13212253105E+03  0.12584468020E+04  0.13157840116E+04  0.78827942659E+02 0.  0.
        254    2    1    2    0    0 -0.35203551511E+03  0.13212253105E+03 -0.18608465152E+04  0.21013333772E+04  0.90081454347E+03 0.  0.
         23    2    4    4    0    0  0.83521522593E+02  0.17561562513E+03 -0.28899807004E+02  0.21552211389E+03  0.88305663494E+02 0.  0.
         23    2    4    4    0    0 -0.43555703771E+03 -0.43493094078E+02 -0.18319467082E+04  0.18858112633E+04  0.93025784999E+02 0.  0.
          4    1    3    3  502    0  0.27495366988E+03 -0.69430718371E+02  0.97640821204E+03  0.10167561860E+04  0.00000000000E+00 0. -1.
         -3    1    3    3    0  502  0.77081845235E+02 -0.62691812680E+02  0.28203859001E+03  0.29902782562E+03  0.00000000000E+00 0.  1.
         13    1    5    5    0    0  0.73933704726E+02  0.55589949904E+02 -0.21002710242E+02  0.94855411350E+02  0.00000000000E+00 0. -1.
        -13    1    5    5    0    0  0.95878178669E+01  0.12002567522E+03 -0.78970967620E+01  0.12066670254E+03  0.00000000000E+00 0.  1.
          2    1    6    6  503    0 -0.14577032895E+02 -0.91239751887E+01 -0.26321498745E+02  0.31441343919E+02  0.00000000000E+00 0. -1.
         -2    1    6    6    0  503 -0.42098000481E+03 -0.34369118889E+02 -0.18056252095E+04  0.18543699194E+04  0.00000000000E+00 0.  1.
<mgrwt>
<rscale>  0 0.33636001E+04</rscale>
<asrwt>0</asrwt>
<pdfrwt beam="1">  1        2 0.21651675E+00 0.33636001E+04</pdfrwt>
<pdfrwt beam="2">  1       -1 0.30919362E+00 0.33636001E+04</pdfrwt>
<totfact> 0.39019867E-01</totfact>
</mgrwt>
</event>
<event>
12    7  0.1637954E-007  0.1820584E+04  0.7818608E-02  0.8695429E-01
         -1   -1    0    0    0  501 -0.00000000000E+00  0.00000000000E+00  0.52147981964E+03  0.52147981964E+03  0.00000000000E+00 0.  1.
          2   -1    0    0  501    0  0.00000000000E+00 -0.00000000000E+00 -0.15890008841E+04  0.15890008841E+04  0.00000000000E+00 0. -1.
         24    2    1    2    0    0  0.19204439675E+03  0.37517918617E+03 -0.10277964135E+04  0.11136565655E+04  0.78898708920E+02 0.  0.
        254    2    1    2    0    0 -0.19204439675E+03 -0.37517918617E+03 -0.39724650912E+02  0.99682413817E+03  0.90246320838E+03 0.  0.
         23    2    4    4    0    0 -0.25050973435E+03 -0.62780872518E+03 -0.15494575631E+03  0.69923827619E+03  0.89593845122E+02 0.  0.
         23    2    4    4    0    0  0.58465337598E+02  0.25262953901E+03  0.11522110539E+03  0.29758586198E+03  0.89674759221E+02 0.  0.
          4    1    3    3  502    0  0.19202511087E+03  0.34562664846E+03 -0.98726007131E+03  0.10634913595E+04  0.00000000000E+00 0. -1.
         -3    1    3    3    0  502  0.19285876710E-01  0.29552537707E+02 -0.40536342191E+02  0.50165206021E+02  0.00000000000E+00 0.  1.
         13    1    5    5    0    0 -0.21339358403E+03 -0.59095101097E+03 -0.13148310386E+03  0.64190943728E+03  0.00000000000E+00 0.  1.
        -13    1    5    5    0    0 -0.37116150320E+02 -0.36857714209E+02 -0.23462652445E+02  0.57328838912E+02  0.00000000000E+00 0. -1.
          1    1    6    6  503    0  0.78471245316E+02  0.17956867868E+03  0.10118085317E+03  0.22054526010E+03  0.00000000000E+00 0. -1.
         -1    1    6    6    0  503 -0.20005907718E+02  0.73060860323E+02  0.14040252226E+02  0.77040601875E+02  0.00000000000E+00 0.  1.
<mgrwt>
<rscale>  0 0.18205844E+04</rscale>
<asrwt>0</asrwt>
<pdfrwt beam="1">  1        2 0.24446167E+00 0.18205844E+04</pdfrwt>
<pdfrwt beam="2">  1       -1 0.80227665E-01 0.18205844E+04</pdfrwt>
<totfact> 0.18831311E+01</totfact>
</mgrwt>
</event>
<event>
12    7  0.1637954E-007  0.1476528E+04  0.7818608E-02  0.8900213E-01
         -1   -1    0    0    0  501 -0.00000000000E+00  0.00000000000E+00  0.49419161387E+03  0.49419161387E+03  0.00000000000E+00 0.  1.
          2   -1    0    0  501    0  0.00000000000E+00 -0.00000000000E+00 -0.11028795730E+04  0.11028795730E+04  0.00000000000E+00 0. -1.
         24    2    1    2    0    0  0.11138699502E+03  0.41119041784E+03 -0.38708699927E+03  0.58208714858E+03  0.86628408487E+02 0.  0.
        254    2    1    2    0    0 -0.11138699502E+03 -0.41119041784E+03 -0.22160095986E+03  0.10149840383E+04  0.89420410991E+03 0.  0.
         23    2    4    4    0    0 -0.14174286814E+03 -0.67742152220E+03 -0.21932946512E+03  0.73180987818E+03  0.91920205183E+02 0.  0.
         23    2    4    4    0    0  0.30355873118E+02  0.26623110437E+03 -0.22714947453E+01  0.28317416010E+03  0.91553073655E+02 0.  0.
          4    1    3    3  502    0  0.75096027861E+02  0.36411249242E+03 -0.30579717657E+03  0.48138262717E+03  0.00000000000E+00 0. -1.
         -3    1    3    3    0  502  0.36290967162E+02  0.47077925415E+02 -0.81289822698E+02  0.10070452141E+03  0.00000000000E+00 0.  1.
         13    1    5    5    0    0 -0.70589053219E+02 -0.51822309599E+03 -0.14933927645E+03  0.54391195164E+03  0.00000000000E+00 0.  1.
        -13    1    5    5    0    0 -0.71153814921E+02 -0.15919842622E+03 -0.69990188667E+02  0.18789792654E+03  0.00000000000E+00 0. -1.
          4    1    6    6  503    0  0.52034639178E+02  0.12391478228E+03  0.24874025063E+02  0.13667916471E+03  0.00000000000E+00 0. -1.
         -4    1    6    6    0  503 -0.21678766061E+02  0.14231632209E+03 -0.27145519808E+02  0.14649499540E+03  0.00000000000E+00 0.  1.
<mgrwt>
<rscale>  0 0.14765281E+04</rscale>
<asrwt>0</asrwt>
<pdfrwt beam="1">  1        2 0.16967378E+00 0.14765281E+04</pdfrwt>
<pdfrwt beam="2">  1       -1 0.76029480E-01 0.14765281E+04</pdfrwt>
<totfact> 0.41622160E+01</totfact>
</mgrwt>
</event>
<event>
12    7  0.1637954E-007  0.1150605E+04  0.7818608E-02  0.9157226E-01
          2   -1    0    0  501    0  0.00000000000E+00  0.00000000000E+00  0.66789054265E+03  0.66789054265E+03  0.00000000000E+00 0. -1.
         -1   -1    0    0    0  501 -0.00000000000E+00 -0.00000000000E+00 -0.49554973960E+03  0.49554973960E+03  0.00000000000E+00 0.  1.
         24    2    1    2    0    0  0.75416947732E+02  0.72778836045E+02  0.22562301237E+03  0.26326002794E+03  0.86114015236E+02 0.  0.
        254    2    1    2    0    0 -0.75416947732E+02 -0.72778836045E+02 -0.53282209323E+02  0.90018025431E+03  0.89246905909E+03 0.  0.
         23    2    4    4    0    0  0.21426289288E+03 -0.22200842364E+03 -0.33121361706E+03  0.46203923700E+03  0.92636218461E+02 0.  0.
         23    2    4    4    0    0 -0.28967984061E+03  0.14922958760E+03  0.27793140774E+03  0.43814101731E+03  0.92400236848E+02 0.  0.
          4    1    3    3  502    0  0.65715413258E+02  0.45635456252E+02  0.21972475600E+03  0.23383771896E+03  0.00000000000E+00 0. -1.
         -3    1    3    3    0  502  0.97015344734E+01  0.27143379793E+02  0.58982563655E+01  0.29422308983E+02  0.00000000000E+00 0.  1.
         13    1    5    5    0    0  0.85060177762E+02 -0.14331910956E+03 -0.21057923086E+03  0.26855020662E+03  0.00000000000E+00 0.  1.
        -13    1    5    5    0    0  0.12920271512E+03 -0.78689314077E+02 -0.12063438620E+03  0.19348903038E+03  0.00000000000E+00 0. -1.
          4    1    6    6  503    0 -0.28480737370E+03  0.12583065285E+03  0.27217882849E+03  0.41355762354E+03  0.00000000000E+00 0. -1.
         -4    1    6    6    0  503 -0.48724669172E+01  0.23398934748E+02  0.57525792419E+01  0.24583393768E+02  0.00000000000E+00 0.  1.
<mgrwt>
<rscale>  0 0.11506050E+04</rscale>
<asrwt>0</asrwt>
<pdfrwt beam="1">  1        2 0.10275239E+00 0.11506050E+04</pdfrwt>
<pdfrwt beam="2">  1       -1 0.76238421E-01 0.11506050E+04</pdfrwt>
<totfact> 0.84948044E+01</totfact>
</mgrwt>
</event>
<event>
12    7  0.1637954E-007  0.1160095E+04  0.7818608E-02  0.9148520E-01
          2   -1    0    0  501    0  0.00000000000E+00  0.00000000000E+00  0.26093863258E+04  0.26093863258E+04  0.00000000000E+00 0. -1.
         -1   -1    0    0    0  501 -0.00000000000E+00 -0.00000000000E+00 -0.12894038869E+03  0.12894038869E+03  0.00000000000E+00 0.  1.
         24    2    1    2    0    0 -0.46999375337E+01  0.20647621082E+03  0.74033482873E+03  0.77156915545E+03  0.67592810004E+02 0.  0.
        254    2    1    2    0    0  0.46999375337E+01 -0.20647621082E+03  0.17401111083E+04  0.19667575590E+04  0.89302525803E+03 0.  0.
         23    2    4    4    0    0  0.27876686743E+03  0.16463545985E+03  0.29662607653E+03  0.44866987961E+03  0.92205371749E+02 0.  0.
         23    2    4    4    0    0 -0.27406692989E+03 -0.37111167066E+03  0.14434850318E+04  0.15180876794E+04  0.90025613506E+02 0.  0.
          4    1    3    3  502    0  0.21443200003E+02  0.11296690604E+03  0.48375004167E+03  0.49722775013E+03  0.00000000000E+00 0. -1.
         -3    1    3    3    0  502 -0.26143137537E+02  0.93509304783E+02  0.25658478706E+03  0.27434140532E+03  0.00000000000E+00 0.  1.
         13    1    5    5    0    0  0.87347070910E+02  0.10122531018E+03  0.13760407517E+03  0.19186181414E+03  0.00000000000E+00 0.  1.
        -13    1    5    5    0    0  0.19141979652E+03  0.63410149662E+02  0.15902200135E+03  0.25680806547E+03  0.00000000000E+00 0. -1.
          2    1    6    6  503    0 -0.62599612484E+02 -0.59174145227E+02  0.17917580678E+03  0.19880709414E+03  0.00000000000E+00 0.  1.
         -2    1    6    6    0  503 -0.21146731741E+03 -0.31193752544E+03  0.12643092250E+04  0.13192805853E+04  0.00000000000E+00 0. -1.
<mgrwt>
<rscale>  0 0.11600953E+04</rscale>
<asrwt>0</asrwt>
<pdfrwt beam="1">  1        2 0.40144401E+00 0.11600953E+04</pdfrwt>
<pdfrwt beam="2">  1       -1 0.19836985E-01 0.11600953E+04</pdfrwt>
<totfact> 0.70840444E+01</totfact>
</mgrwt>
</event>
<event>
12    7  0.1637954E-007  0.2048770E+04  0.7818608E-02  0.8584153E-01
         -1   -1    0    0    0  501 -0.00000000000E+00  0.00000000000E+00  0.30166515838E+03  0.30166515838E+03  0.00000000000E+00 0.  1.
          2   -1    0    0  501    0  0.00000000000E+00 -0.00000000000E+00 -0.34785730548E+04  0.34785730548E+04  0.00000000000E+00 0. -1.
         24    2    1    2    0    0 -0.29809699854E+03 -0.54569756308E+03 -0.29049669265E+03  0.69098754323E+03  0.80173596413E+02 0.  0.
        254    2    1    2    0    0  0.29809699854E+03  0.54569756308E+03 -0.28864112037E+04  0.30892506699E+04  0.90854411766E+03 0.  0.
         23    2    4    4    0    0  0.37567989967E+02 -0.43096075467E+02 -0.19321146231E+04  0.19351637423E+04  0.92320999135E+02 0.  0.
         23    2    4    4    0    0  0.26052900857E+03  0.58879363855E+03 -0.95429658060E+03  0.11540869277E+04  0.81739584938E+02 0.  0.
          4    1    3    3  502    0 -0.90659439048E+02 -0.24810800980E+03 -0.11804393418E+03  0.28932868647E+03  0.00000000000E+00 0. -1.
         -3    1    3    3    0  502 -0.20743755949E+03 -0.29758955328E+03 -0.17245275847E+03  0.40165885676E+03  0.00000000000E+00 0.  1.
         13    1    5    5    0    0  0.22774832737E+01 -0.31144425505E+02 -0.16819292012E+04  0.16822190702E+04  0.00000000000E+00 0.  1.
        -13    1    5    5    0    0  0.35290506694E+02 -0.11951649962E+02 -0.25018542191E+03  0.25294467208E+03  0.00000000000E+00 0. -1.
          3    1    6    6  503    0  0.55530269285E+02  0.13108980662E+03 -0.15480561616E+03  0.21031625472E+03  0.00000000000E+00 0. -1.
         -3    1    6    6    0  503  0.20499873928E+03  0.45770383193E+03 -0.79949096444E+03  0.94377067293E+03  0.00000000000E+00 0.  1.
<mgrwt>
<rscale>  0 0.20487697E+04</rscale>
<asrwt>0</asrwt>
<pdfrwt beam="1">  1        2 0.53516503E+00 0.20487697E+04</pdfrwt>
<pdfrwt beam="2">  1       -1 0.46410029E-01 0.20487697E+04</pdfrwt>
<totfact> 0.41166585E+00</totfact>
</mgrwt>
</event>
<event>
12    7  0.1637954E-007  0.2045052E+04  0.7818608E-02  0.8585842E-01
         -3   -1    0    0    0  501 -0.00000000000E+00  0.00000000000E+00  0.33567682143E+03  0.33567682143E+03  0.00000000000E+00 0.  1.
          2   -1    0    0  501    0  0.00000000000E+00 -0.00000000000E+00 -0.31147787862E+04  0.31147787862E+04  0.00000000000E+00 0. -1.
         24    2    1    2    0    0 -0.48373577360E+03 -0.37741343998E+03 -0.20521747805E+04  0.21434443261E+04  0.80567028548E+02 0.  0.
        254    2    1    2    0    0  0.48373577360E+03  0.37741343998E+03 -0.72692718430E+03  0.13070112815E+04  0.89633372996E+03 0.  0.
         23    2    4    4    0    0  0.49314371059E+02 -0.61855988093E+02  0.17440049523E+03  0.21066918751E+03  0.87794665979E+02 0.  0.
         23    2    4    4    0    0  0.43442140254E+03  0.43926942808E+03 -0.90132767953E+03  0.10963420940E+04  0.88852776209E+02 0.  0.
          2    1    3    3  502    0 -0.44956485577E+03 -0.34761655721E+03 -0.19600156491E+04  0.20407369196E+04  0.00000000000E+00 0. -1.
         -1    1    3    3    0  502 -0.34170917829E+02 -0.29796882779E+02 -0.92159131440E+02  0.10270740653E+03  0.00000000000E+00 0.  1.
         13    1    5    5    0    0  0.23364351869E+02  0.20650978128E+02  0.55146347727E+02  0.63351996839E+02  0.00000000000E+00 0.  1.
        -13    1    5    5    0    0  0.25950019190E+02 -0.82506966220E+02  0.11925414750E+03  0.14731719067E+03  0.00000000000E+00 0. -1.
          4    1    6    6  503    0  0.35715010370E+03  0.33411245664E+03 -0.65330631023E+03  0.81608606485E+03  0.00000000000E+00 0. -1.
         -4    1    6    6    0  503  0.77271298842E+02  0.10515697143E+03 -0.24802136930E+03  0.28025602918E+03  0.00000000000E+00 0.  1.
<mgrwt>
<rscale>  0 0.20450516E+04</rscale>
<asrwt>0</asrwt>
<pdfrwt beam="1">  1        2 0.47919674E+00 0.20450516E+04</pdfrwt>
<pdfrwt beam="2">  1       -3 0.51642587E-01 0.20450516E+04</pdfrwt>
<totfact> 0.32743350E+00</totfact>
</mgrwt>
</event>
<event>
12    7  0.1637954E-007  0.1845811E+04  0.7818608E-02  0.8682310E-01
          2   -1    0    0  501    0  0.00000000000E+00  0.00000000000E+00  0.12017320298E+04  0.12017320298E+04  0.00000000000E+00 0. -1.
         -1   -1    0    0    0  501 -0.00000000000E+00 -0.00000000000E+00 -0.70877221867E+03  0.70877221867E+03  0.00000000000E+00 0.  1.
         24    2    1    2    0    0  0.51889484414E+03  0.13990081717E+03 -0.27952870115E+03  0.61082662575E+03  0.78414118875E+02 0.  0.
        254    2    1    2    0    0 -0.51889484414E+03 -0.13990081717E+03  0.77248851230E+03  0.12996776227E+04  0.89643701591E+03 0.  0.
         23    2    4    4    0    0 -0.76052956711E+03 -0.15881503318E+03  0.62015624129E+03  0.99815107616E+03  0.89913124795E+02 0.  0.
         23    2    4    4    0    0  0.24163472297E+03  0.18914216008E+02  0.15233227101E+03  0.30152654658E+03  0.94699791904E+02 0.  0.
          4    1    3    3  502    0  0.85594708591E+02  0.48883988518E+02 -0.70635807018E+02  0.12126630078E+03  0.00000000000E+00 0. -1.
         -3    1    3    3    0  502  0.43330013555E+03  0.91016828651E+02 -0.20889289414E+03  0.48956032497E+03  0.00000000000E+00 0.  1.
         13    1    5    5    0    0 -0.55987063551E+03 -0.15511874365E+03  0.47578581374E+03  0.75092549144E+03  0.00000000000E+00 0.  1.
        -13    1    5    5    0    0 -0.20065893161E+03 -0.36962895247E+01  0.14437042754E+03  0.24722558472E+03  0.00000000000E+00 0. -1.
          4    1    6    6  503    0  0.30778540327E+02 -0.79980795437E+01  0.63749088255E+02  0.71240677105E+02  0.00000000000E+00 0. -1.
         -4    1    6    6    0  503  0.21085618265E+03  0.26912295551E+02  0.88583182759E+02  0.23028586947E+03  0.00000000000E+00 0.  1.
<mgrwt>
<rscale>  0 0.18458107E+04</rscale>
<asrwt>0</asrwt>
<pdfrwt beam="1">  1        2 0.18488185E+00 0.18458107E+04</pdfrwt>
<pdfrwt beam="2">  1       -1 0.10904188E+00 0.18458107E+04</pdfrwt>
<totfact> 0.15791594E+01</totfact>
</mgrwt>
</event>
<event>
12    7  0.1637954E-007  0.1579030E+04  0.7818608E-02  0.8833535E-01
          2   -1    0    0  501    0  0.00000000000E+00  0.00000000000E+00  0.20342403810E+04  0.20342403810E+04  0.00000000000E+00 0. -1.
         -1   -1    0    0    0  501 -0.00000000000E+00 -0.00000000000E+00 -0.30642100856E+03  0.30642100856E+03  0.00000000000E+00 0.  1.
         24    2    1    2    0    0 -0.98293636663E+02 -0.49117420684E+03  0.34873330766E+03  0.61634254070E+03  0.85729033178E+02 0.  0.
        254    2    1    2    0    0  0.98293636663E+02  0.49117420684E+03  0.13790860648E+04  0.17243188489E+04  0.90580537535E+03 0.  0.
         23    2    4    4    0    0  0.48731740986E+03  0.21685619035E+03  0.84122647482E+03  0.10002828201E+04  0.91645365169E+02 0.  0.
         23    2    4    4    0    0 -0.38902377320E+03  0.27431801649E+03  0.53785959001E+03  0.72403602883E+03  0.91352953947E+02 0.  0.
          4    1    3    3  502    0 -0.57876299583E+02 -0.12141925750E+03  0.11564237018E+03  0.17738506117E+03  0.00000000000E+00 0. -1.
         -3    1    3    3    0  502 -0.40417337080E+02 -0.36975494935E+03  0.23309093748E+03  0.43895747953E+03  0.00000000000E+00 0.  1.
         13    1    5    5    0    0  0.49057274259E+03  0.21547524380E+03  0.84035942875E+03  0.99664194471E+03  0.00000000000E+00 0.  1.
        -13    1    5    5    0    0 -0.32553327292E+01  0.13809465496E+01  0.86704606709E+00  0.36408753663E+01  0.00000000000E+00 0. -1.
          3    1    6    6  503    0 -0.74388197188E+02  0.17399876885E+02  0.62063792642E+02  0.98429030035E+02  0.00000000000E+00 0. -1.
         -3    1    6    6    0  503 -0.31463557601E+03  0.25691813961E+03  0.47579579737E+03  0.62560699880E+03  0.00000000000E+00 0.  1.
<mgrwt>
<rscale>  0 0.15790301E+04</rscale>
<asrwt>0</asrwt>
<pdfrwt beam="1">  1        2 0.31296005E+00 0.15790301E+04</pdfrwt>
<pdfrwt beam="2">  1       -1 0.47141695E-01 0.15790301E+04</pdfrwt>
<totfact> 0.31404073E+01</totfact>
</mgrwt>
</event>
<event>
12    7  0.1637954E-007  0.2327174E+04  0.7818608E-02  0.8467283E-01
          2   -1    0    0  501    0  0.00000000000E+00  0.00000000000E+00  0.21486641619E+04  0.21486641619E+04  0.00000000000E+00 0. -1.
         -1   -1    0    0    0  501 -0.00000000000E+00 -0.00000000000E+00 -0.63012852350E+03  0.63012852350E+03  0.00000000000E+00 0.  1.
         24    2    1    2    0    0  0.33831947979E+03 -0.80078758585E+03  0.11398533500E+04  0.14358669298E+04  0.82020440405E+02 0.  0.
        254    2    1    2    0    0 -0.33831947979E+03  0.80078758585E+03  0.37868228845E+03  0.13429257556E+04  0.95096187171E+03 0.  0.
         23    2    4    4    0    0 -0.62311513992E+03  0.55530692127E+03  0.63787569091E+02  0.84199554745E+03  0.90826172132E+02 0.  0.
         23    2    4    4    0    0  0.28479566013E+03  0.24548066458E+03  0.31489471936E+03  0.50093020816E+03  0.10199541388E+03 0.  0.
          2    1    3    3  502    0  0.32716267233E+03 -0.74027919689E+03  0.10298378387E+04  0.13098147493E+04  0.00000000000E+00 0. -1.
         -1    1    3    3    0  502  0.11156807458E+02 -0.60508388963E+02  0.11001551131E+03  0.12605218053E+03  0.00000000000E+00 0.  1.
         13    1    5    5    0    0 -0.60720875246E+03  0.51719263237E+03  0.53355964464E+02  0.79939824054E+03  0.00000000000E+00 0.  1.
        -13    1    5    5    0    0 -0.15906387462E+02  0.38114288902E+02  0.10431604627E+02  0.42597306907E+02  0.00000000000E+00 0. -1.
          4    1    6    6  503    0  0.27429914977E+02  0.64432275359E+02  0.29047502336E+02  0.75813427146E+02  0.00000000000E+00 0. -1.
         -4    1    6    6    0  503  0.25736574516E+03  0.18104838922E+03  0.28584721702E+03  0.42511678101E+03  0.00000000000E+00 0.  1.
<mgrwt>
<rscale>  0 0.23271739E+04</rscale>
<asrwt>0</asrwt>
<pdfrwt beam="1">  1        2 0.33056371E+00 0.23271739E+04</pdfrwt>
<pdfrwt beam="2">  1       -1 0.96942851E-01 0.23271739E+04</pdfrwt>
<totfact> 0.58101300E+00</totfact>
</mgrwt>
</event>
<event>
12    7  0.1637954E-007  0.1946305E+04  0.7818608E-02  0.8632145E-01
          2   -1    0    0  501    0  0.00000000000E+00  0.00000000000E+00  0.12364623705E+04  0.12364623705E+04  0.00000000000E+00 0. -1.
         -1   -1    0    0    0  501 -0.00000000000E+00 -0.00000000000E+00 -0.76591541743E+03  0.76591541743E+03  0.00000000000E+00 0.  1.
         24    2    1    2    0    0  0.45772671603E+03 -0.60466277855E+03  0.17253662097E+03  0.78189767603E+03  0.80400670939E+02 0.  0.
        254    2    1    2    0    0 -0.45772671603E+03  0.60466277855E+03  0.29801033205E+03  0.12204801118E+04  0.90864224152E+03 0.  0.
         23    2    4    4    0    0 -0.30432845226E+03  0.35811143730E+03 -0.28919253181E+03  0.55933220294E+03  0.91436231389E+02 0.  0.
         23    2    4    4    0    0 -0.15339826376E+03  0.24655134124E+03  0.58720286386E+03  0.66114790890E+03  0.89391067396E+02 0.  0.
          2    1    3    3  502    0  0.11534584309E+03 -0.99966127251E+02  0.40004838288E+02  0.15779187939E+03  0.00000000000E+00 0. -1.
         -1    1    3    3    0  502  0.34238087294E+03 -0.50469665129E+03  0.13253178268E+03  0.62410579664E+03  0.00000000000E+00 0.  1.
         13    1    5    5    0    0 -0.15815803994E+03  0.25434660681E+03 -0.18187038806E+03  0.35040405255E+03  0.00000000000E+00 0. -1.
        -13    1    5    5    0    0 -0.14617041232E+03  0.10376483049E+03 -0.10732214374E+03  0.20892815039E+03  0.00000000000E+00 0.  1.
          2    1    6    6  503    0 -0.43369563966E+02  0.60401013197E+02  0.24778658591E+03  0.25870329266E+03  0.00000000000E+00 0. -1.
         -2    1    6    6    0  503 -0.11002869980E+03  0.18615032805E+03  0.33941627795E+03  0.40244461625E+03  0.00000000000E+00 0.  1.
<mgrwt>
<rscale>  0 0.19463048E+04</rscale>
<asrwt>0</asrwt>
<pdfrwt beam="1">  1        2 0.19022498E+00 0.19463048E+04</pdfrwt>
<pdfrwt beam="2">  1       -1 0.11783314E+00 0.19463048E+04</pdfrwt>
<totfact> 0.12406785E+01</totfact>
</mgrwt>
</event>
<event>
12    7  0.1637954E-007  0.1134857E+04  0.7818608E-02  0.9171869E-01
         -1   -1    0    0    0  501 -0.00000000000E+00  0.00000000000E+00  0.33090529695E+03  0.33090529695E+03  0.00000000000E+00 0.  1.
          2   -1    0    0  501    0  0.00000000000E+00 -0.00000000000E+00 -0.97301233621E+03  0.97301233621E+03  0.00000000000E+00 0. -1.
         24    2    1    2    0    0  0.29020428477E+02  0.73168323015E+01  0.10400045105E+03  0.13536692094E+03  0.81316592174E+02 0.  0.
        254    2    1    2    0    0 -0.29020428477E+02 -0.73168323015E+01 -0.74610749031E+03  0.11685507122E+04  0.89885408082E+03 0.  0.
         23    2    4    4    0    0  0.11442181147E+03  0.41668721219E+03 -0.39048413181E+03  0.58950140623E+03  0.91178215659E+02 0.  0.
         23    2    4    4    0    0 -0.14344223995E+03 -0.42400404449E+03 -0.35562335851E+03  0.57904930599E+03  0.92059870238E+02 0.  0.
          4    1    3    3  502    0  0.49692488268E+02  0.27936332667E+02  0.75091266694E+02  0.94278737831E+02  0.00000000000E+00 0. -1.
         -3    1    3    3    0  502 -0.20672059791E+02 -0.20619500365E+02  0.28909184359E+02  0.41088183114E+02  0.00000000000E+00 0.  1.
         13    1    5    5    0    0  0.50508280808E+02  0.71331356882E+02 -0.51880348034E+02  0.10164063861E+03  0.00000000000E+00 0.  1.
        -13    1    5    5    0    0  0.63913530660E+02  0.34535585531E+03 -0.33860378377E+03  0.48786076762E+03  0.00000000000E+00 0. -1.
          4    1    6    6  503    0 -0.78022766145E+02 -0.33709625829E+03 -0.29389128383E+03  0.45397524833E+03  0.00000000000E+00 0. -1.
         -4    1    6    6    0  503 -0.65419473801E+02 -0.86907786203E+02 -0.61732074678E+02  0.12507405766E+03  0.00000000000E+00 0.  1.
<mgrwt>
<rscale>  0 0.11348567E+04</rscale>
<asrwt>0</asrwt>
<pdfrwt beam="1">  1        2 0.14969420E+00 0.11348567E+04</pdfrwt>
<pdfrwt beam="2">  1       -1 0.50908509E-01 0.11348567E+04</pdfrwt>
<totfact> 0.11490276E+02</totfact>
</mgrwt>
</event>
<event>
12    7  0.1637954E-007  0.1431059E+04  0.7818608E-02  0.8931638E-01
         -1   -1    0    0    0  501 -0.00000000000E+00  0.00000000000E+00  0.24820948426E+03  0.24820948426E+03  0.00000000000E+00 0.  1.
          2   -1    0    0  501    0  0.00000000000E+00 -0.00000000000E+00 -0.20627040870E+04  0.20627040870E+04  0.00000000000E+00 0. -1.
         24    2    1    2    0    0 -0.73585799258E+02  0.26109279268E+03 -0.17649210475E+02  0.28466982511E+03  0.84505020309E+02 0.  0.
        254    2    1    2    0    0  0.73585799258E+02 -0.26109279268E+03 -0.17968453923E+04  0.20262437462E+04  0.89634035886E+03 0.  0.
         23    2    4    4    0    0  0.24669677638E+03 -0.51986733960E+03 -0.89584459115E+03  0.10685250193E+04  0.89926831771E+02 0.  0.
         23    2    4    4    0    0 -0.17311097712E+03  0.25877454693E+03 -0.90100080114E+03  0.95771872691E+03  0.92146837581E+02 0.  0.
          2    1    3    3  502    0 -0.24323877734E+02  0.61754063877E+02 -0.40994779199E+02  0.78011456562E+02  0.00000000000E+00 0. -1.
         -1    1    3    3    0  502 -0.49261921525E+02  0.19933872880E+03  0.23345568724E+02  0.20665836855E+03  0.00000000000E+00 0.  1.
         13    1    5    5    0    0  0.15041535769E+03 -0.40114648428E+03 -0.68888443231E+03  0.81123673657E+03  0.00000000000E+00 0. -1.
        -13    1    5    5    0    0  0.96281418689E+02 -0.11872085532E+03 -0.20696015884E+03  0.25728828271E+03  0.00000000000E+00 0.  1.
          3    1    6    6  503    0 -0.11468929539E+03  0.18844618093E+03 -0.50127040461E+03  0.54766560611E+03  0.00000000000E+00 0. -1.
         -3    1    6    6    0  503 -0.58421681730E+02  0.70328365994E+02 -0.39973039653E+03  0.41005312079E+03  0.00000000000E+00 0.  1.
<mgrwt>
<rscale>  0 0.14310594E+04</rscale>
<asrwt>0</asrwt>
<pdfrwt beam="1">  1        2 0.31733909E+00 0.14310594E+04</pdfrwt>
<pdfrwt beam="2">  1       -1 0.38186075E-01 0.14310594E+04</pdfrwt>
<totfact> 0.45242743E+01</totfact>
</mgrwt>
</event>
<event>
12    7  0.1637954E-007  0.1954230E+04  0.7818608E-02  0.8628324E-01
         -1   -1    0    0    0  501 -0.00000000000E+00  0.00000000000E+00  0.16007431012E+04  0.16007431012E+04  0.00000000000E+00 0.  1.
          2   -1    0    0  501    0  0.00000000000E+00 -0.00000000000E+00 -0.59644427795E+03  0.59644427795E+03  0.00000000000E+00 0. -1.
         24    2    1    2    0    0  0.11974691975E+03  0.39568864847E+03 -0.34793421731E+03  0.54631101156E+03  0.80552283991E+02 0.  0.
        254    2    1    2    0    0 -0.11974691975E+03 -0.39568864847E+03  0.13522330405E+04  0.16508763675E+04  0.85202685036E+03 0.  0.
         23    2    4    4    0    0 -0.37822770363E+03 -0.15155036363E+03  0.11679921638E+04  0.12404412753E+04  0.92006272836E+02 0.  0.
         23    2    4    4    0    0  0.25848078388E+03 -0.24413828485E+03  0.18424087667E+03  0.41043509221E+03  0.89980256296E+02 0.  0.
          2    1    3    3  502    0  0.11669215285E+03  0.39062303182E+03 -0.32142746462E+03  0.51915221905E+03  0.00000000000E+00 0. -1.
         -1    1    3    3    0  502  0.30547669031E+01  0.50656166500E+01 -0.26506752682E+02  0.27158792510E+02  0.00000000000E+00 0.  1.
         13    1    5    5    0    0 -0.18430530048E+03 -0.75497460598E+02  0.43503933674E+03  0.47846372365E+03  0.00000000000E+00 0.  1.
        -13    1    5    5    0    0 -0.19392240314E+03 -0.76052903029E+02  0.73295282711E+03  0.76197755168E+03  0.00000000000E+00 0. -1.
          1    1    6    6  503    0  0.24902678621E+03 -0.24811809379E+03  0.16435301430E+03  0.38805778181E+03  0.00000000000E+00 0. -1.
         -1    1    6    6    0  503  0.94539976700E+01  0.39798089476E+01  0.19887862365E+02  0.22377310398E+02  0.00000000000E+00 0.  1.
<mgrwt>
<rscale>  0 0.19542303E+04</rscale>
<asrwt>0</asrwt>
<pdfrwt beam="1">  1        2 0.91760659E-01 0.19542303E+04</pdfrwt>
<pdfrwt beam="2">  1       -1 0.24626817E+00 0.19542303E+04</pdfrwt>
<totfact> 0.39234496E+00</totfact>
</mgrwt>
</event>
<event>
12    7  0.1637954E-007  0.1752648E+04  0.7818608E-02  0.8731894E-01
          2   -1    0    0  501    0  0.00000000000E+00  0.00000000000E+00  0.13555496633E+04  0.13555496633E+04  0.00000000000E+00 0. -1.
         -1   -1    0    0    0  501 -0.00000000000E+00 -0.00000000000E+00 -0.56651829328E+03  0.56651829328E+03  0.00000000000E+00 0.  1.
         24    2    1    2    0    0 -0.62668331150E+03 -0.13746894842E+03  0.40648207957E+03  0.76369021336E+03  0.79783308187E+02 0.  0.
        254    2    1    2    0    0  0.62668331150E+03  0.13746894842E+03  0.38254929040E+03  0.11583777432E+04  0.88536170666E+03 0.  0.
         23    2    4    4    0    0  0.54061365386E+03  0.42151197424E+03  0.35131264799E+02  0.69236129962E+03  0.90523457032E+02 0.  0.
         23    2    4    4    0    0  0.86069657646E+02 -0.28404302582E+03  0.34741802561E+03  0.46601644357E+03  0.91562081007E+02 0.  0.
          4    1    3    3  502    0 -0.61114313002E+03 -0.12010782968E+03  0.39656747397E+03  0.73836818562E+03  0.00000000000E+00 0. -1.
         -3    1    3    3    0  502 -0.15540181481E+02 -0.17361118743E+02  0.99146056041E+01  0.25322027738E+02  0.00000000000E+00 0.  1.
         13    1    5    5    0    0  0.24479166814E+03  0.13565389138E+03  0.53995780459E+01  0.27991801386E+03  0.00000000000E+00 0. -1.
        -13    1    5    5    0    0  0.29582198571E+03  0.28585808287E+03  0.29731686754E+02  0.41244328576E+03  0.00000000000E+00 0.  1.
          1    1    6    6  503    0  0.45916205006E+02 -0.18362045969E+03  0.28196123323E+03  0.33959815686E+03  0.00000000000E+00 0. -1.
         -1    1    6    6    0  503  0.40153452639E+02 -0.10042256612E+03  0.65456792378E+02  0.12641828671E+03  0.00000000000E+00 0.  1.
<mgrwt>
<rscale>  0 0.17526479E+04</rscale>
<asrwt>0</asrwt>
<pdfrwt beam="1">  1        2 0.20854610E+00 0.17526479E+04</pdfrwt>
<pdfrwt beam="2">  1       -1 0.87156661E-01 0.17526479E+04</pdfrwt>
<totfact> 0.21491344E+01</totfact>
</mgrwt>
</event>
<event>
12    7  0.1637954E-007  0.1897541E+04  0.7818608E-02  0.8656081E-01
         -1   -1    0    0    0  501 -0.00000000000E+00  0.00000000000E+00  0.47247789125E+03  0.47247789125E+03  0.00000000000E+00 0.  1.
          2   -1    0    0  501    0  0.00000000000E+00 -0.00000000000E+00 -0.19052017507E+04  0.19052017507E+04  0.00000000000E+00 0. -1.
         24    2    1    2    0    0 -0.50306703888E+03 -0.52032978469E+03 -0.41272228810E+03  0.83707724577E+03  0.80864688522E+02 0.  0.
        254    2    1    2    0    0  0.50306703888E+03  0.52032978469E+03 -0.10200015713E+04  0.15406023961E+04  0.89957379191E+03 0.  0.
         23    2    4    4    0    0 -0.23580614198E+03  0.16355746287E+03 -0.43470049707E+03  0.52879327561E+03  0.91116551285E+02 0.  0.
         23    2    4    4    0    0  0.73887318086E+03  0.35677232182E+03 -0.58530107424E+03  0.10118091205E+04  0.89220411803E+02 0.  0.
          4    1    3    3  502    0 -0.42254721804E+03 -0.41522263915E+03 -0.30460781897E+03  0.66613956114E+03  0.00000000000E+00 0. -1.
         -3    1    3    3    0  502 -0.80519820835E+02 -0.10510714554E+03 -0.10811446913E+03  0.17093768463E+03  0.00000000000E+00 0.  1.
         13    1    5    5    0    0 -0.13860995238E+03  0.74666888093E+02 -0.16174181066E+03  0.22571724877E+03  0.00000000000E+00 0.  1.
        -13    1    5    5    0    0 -0.97196189602E+02  0.88890574777E+02 -0.27295868641E+03  0.30307602684E+03  0.00000000000E+00 0. -1.
          1    1    6    6  503    0  0.30363290793E+03  0.10912425247E+03 -0.19590899504E+03  0.37746705762E+03  0.00000000000E+00 0. -1.
         -1    1    6    6    0  503  0.43524027293E+03  0.24764806935E+03 -0.38939207920E+03  0.63434206291E+03  0.00000000000E+00 0.  1.
<mgrwt>
<rscale>  0 0.18975413E+04</rscale>
<asrwt>0</asrwt>
<pdfrwt beam="1">  1        2 0.29310796E+00 0.18975413E+04</pdfrwt>
<pdfrwt beam="2">  1       -1 0.72688907E-01 0.18975413E+04</pdfrwt>
<totfact> 0.15356521E+01</totfact>
</mgrwt>
</event>
<event>
12    7  0.1637954E-007  0.1719582E+04  0.7818608E-02  0.8750274E-01
         -1   -1    0    0    0  501 -0.00000000000E+00  0.00000000000E+00  0.32159003577E+03  0.32159003577E+03  0.00000000000E+00 0.  1.
          2   -1    0    0  501    0  0.00000000000E+00 -0.00000000000E+00 -0.22987049897E+04  0.22987049897E+04  0.00000000000E+00 0. -1.
         24    2    1    2    0    0 -0.41317974950E+02 -0.28599233003E+03  0.11552002048E+03  0.32185219623E+03  0.82129003366E+02 0.  0.
        254    2    1    2    0    0  0.41317974950E+02  0.28599233003E+03 -0.20926349744E+04  0.22984428292E+04  0.90565971271E+03 0.  0.
         23    2    4    4    0    0 -0.31895371693E+03 -0.93251100825E+02 -0.12956462960E+04  0.13406620248E+04  0.90819044989E+02 0.  0.
         23    2    4    4    0    0  0.36027169188E+03  0.37924343086E+03 -0.79698867838E+03  0.95778080445E+03  0.92367981919E+02 0.  0.
          2    1    3    3  502    0  0.17225485254E+02 -0.11219133282E+03  0.20642968394E+02  0.11536786661E+03  0.00000000000E+00 0. -1.
         -1    1    3    3    0  502 -0.58543460204E+02 -0.17380099721E+03  0.94877052090E+02  0.20648432962E+03  0.00000000000E+00 0.  1.
         13    1    5    5    0    0  0.38388493670E+01 -0.75998670317E+01 -0.15652694741E+02  0.17818574467E+02  0.00000000000E+00 0. -1.
        -13    1    5    5    0    0 -0.32279256629E+03 -0.85651233793E+02 -0.12799936013E+04  0.13228434503E+04  0.00000000000E+00 0.  1.
          1    1    6    6  503    0  0.45842961477E+00 -0.40086643110E+01 -0.15360101452E+01  0.43172762752E+01  0.00000000000E+00 0. -1.
         -1    1    6    6    0  503  0.35981326226E+03  0.38325209517E+03 -0.79545266824E+03  0.95346352817E+03  0.00000000000E+00 0.  1.
<mgrwt>
<rscale>  0 0.17195821E+04</rscale>
<asrwt>0</asrwt>
<pdfrwt beam="1">  1        2 0.35364692E+00 0.17195821E+04</pdfrwt>
<pdfrwt beam="2">  1       -1 0.49475390E-01 0.17195821E+04</pdfrwt>
<totfact> 0.20137200E+01</totfact>
</mgrwt>
</event>
<event>
12    7  0.1637954E-007  0.2377410E+04  0.7818608E-02  0.8448010E-01
         -1   -1    0    0    0  501 -0.00000000000E+00  0.00000000000E+00  0.10452763423E+04  0.10452763423E+04  0.00000000000E+00 0.  1.
          2   -1    0    0  501    0  0.00000000000E+00 -0.00000000000E+00 -0.13518143026E+04  0.13518143026E+04  0.00000000000E+00 0. -1.
         24    2    1    2    0    0 -0.31883148117E+03  0.94715153323E+03  0.77459385902E+02  0.10053462021E+04  0.77275412002E+02 0.  0.
        254    2    1    2    0    0  0.31883148117E+03 -0.94715153323E+03 -0.38399734621E+03  0.13917444428E+04  0.88924073901E+03 0.  0.
         23    2    4    4    0    0  0.38108699956E+03 -0.13409392727E+02 -0.57267656302E+02  0.39606520152E+03  0.90448583986E+02 0.  0.
         23    2    4    4    0    0 -0.62255518397E+02 -0.93374214050E+03 -0.32672968991E+03  0.99567924129E+03  0.94205768188E+02 0.  0.
          4    1    3    3  502    0 -0.50866890141E+02  0.20477660220E+03 -0.10141043340E+02  0.21124331488E+03  0.00000000000E+00 0. -1.
         -3    1    3    3    0  502 -0.26796459103E+03  0.74237493102E+03  0.87600429242E+02  0.79410288720E+03  0.00000000000E+00 0.  1.
         13    1    5    5    0    0  0.18291287398E+03  0.23638298408E+02  0.66924938788E+01  0.18455535239E+03  0.00000000000E+00 0.  1.
        -13    1    5    5    0    0  0.19817412558E+03 -0.37047691136E+02 -0.63960150181E+02  0.21150984913E+03  0.00000000000E+00 0. -1.
          4    1    6    6  503    0 -0.63947334066E+02 -0.92838659344E+03 -0.31462299071E+03  0.98233321979E+03  0.00000000000E+00 0. -1.
         -4    1    6    6    0  503  0.16918156685E+01 -0.53555470574E+01 -0.12106699198E+02  0.13346021505E+02  0.00000000000E+00 0.  1.
<mgrwt>
<rscale>  0 0.23774099E+04</rscale>
<asrwt>0</asrwt>
<pdfrwt beam="1">  1        2 0.20797143E+00 0.23774099E+04</pdfrwt>
<pdfrwt beam="2">  1       -1 0.16081174E+00 0.23774099E+04</pdfrwt>
<totfact> 0.45624559E+00</totfact>
</mgrwt>
</event>
<event>
12    7  0.1637954E-007  0.2303740E+04  0.7818608E-02  0.8476448E-01
          2   -1    0    0  501    0  0.00000000000E+00  0.00000000000E+00  0.67754199403E+03  0.67754199403E+03  0.00000000000E+00 0. -1.
         -1   -1    0    0    0  501 -0.00000000000E+00 -0.00000000000E+00 -0.19582616564E+04  0.19582616564E+04  0.00000000000E+00 0.  1.
         24    2    1    2    0    0 -0.73111093613E+03  0.34838654358E+03 -0.12589693580E+04  0.14991153311E+04  0.80290391187E+02 0.  0.
        254    2    1    2    0    0  0.73111093613E+03 -0.34838654358E+03 -0.21750304363E+02  0.11366883193E+04  0.79730224811E+03 0.  0.
         23    2    4    4    0    0  0.54015663822E+03 -0.53120623058E+03 -0.21982995540E+03  0.79410566767E+03  0.91265266790E+02 0.  0.
         23    2    4    4    0    0  0.19095429791E+03  0.18281968700E+03  0.19807965104E+03  0.34258265163E+03  0.90778539309E+02 0.  0.
          4    1    3    3  502    0 -0.15151312419E+03  0.37523729667E+02 -0.24832849501E+03  0.29331092465E+03  0.00000000000E+00 0. -1.
         -3    1    3    3    0  502 -0.57959781194E+03  0.31086281391E+03 -0.10106408630E+04  0.12058044064E+04  0.00000000000E+00 0.  1.
         13    1    5    5    0    0  0.10576056327E+03 -0.79602758110E+02 -0.78360654471E+01  0.13260203529E+03  0.00000000000E+00 0. -1.
        -13    1    5    5    0    0  0.43439607495E+03 -0.45160347247E+03 -0.21199388995E+03  0.66150363238E+03  0.00000000000E+00 0.  1.
          1    1    6    6  503    0  0.31594198778E+02  0.87051772214E+02  0.52565927798E+02  0.10648653064E+03  0.00000000000E+00 0. -1.
         -1    1    6    6    0  503  0.15936009913E+03  0.95767914789E+02  0.14551372324E+03  0.23609612099E+03  0.00000000000E+00 0.  1.
<mgrwt>
<rscale>  0 0.23037400E+04</rscale>
<asrwt>0</asrwt>
<pdfrwt beam="1">  1        2 0.10423723E+00 0.23037400E+04</pdfrwt>
<pdfrwt beam="2">  1       -1 0.30127102E+00 0.23037400E+04</pdfrwt>
<totfact> 0.14312613E+00</totfact>
</mgrwt>
</event>
<event>
12    7  0.1637954E-007  0.1191391E+04  0.7818608E-02  0.9120426E-01
         -1   -1    0    0    0  501 -0.00000000000E+00  0.00000000000E+00  0.36774833035E+03  0.36774833035E+03  0.00000000000E+00 0.  1.
          2   -1    0    0  501    0  0.00000000000E+00 -0.00000000000E+00 -0.96493470358E+03  0.96493470358E+03  0.00000000000E+00 0. -1.
         24    2    1    2    0    0  0.91492098813E+02  0.22810672626E+03 -0.12849992220E+03  0.28855522789E+03  0.79676890153E+02 0.  0.
        254    2    1    2    0    0 -0.91492098813E+02 -0.22810672626E+03 -0.46868645103E+03  0.10441278060E+04  0.90007355436E+03 0.  0.
         23    2    4    4    0    0 -0.37933881315E+03 -0.41457046100E+03 -0.21719829411E+03  0.60916645517E+03  0.90233413149E+02 0.  0.
         23    2    4    4    0    0  0.28784671434E+03  0.18646373474E+03 -0.25148815692E+03  0.43496135086E+03  0.91217478286E+02 0.  0.
          4    1    3    3  502    0  0.36193193838E+02  0.98683040931E+02 -0.99746329406E+02  0.14490555572E+03  0.00000000000E+00 0. -1.
         -3    1    3    3    0  502  0.55298904975E+02  0.12942368533E+03 -0.28753592793E+02  0.14364967217E+03  0.00000000000E+00 0.  1.
         13    1    5    5    0    0 -0.36594816456E+03 -0.41348536025E+03 -0.19984174500E+03  0.58721795386E+03  0.00000000000E+00 0.  1.
        -13    1    5    5    0    0 -0.13390648588E+02 -0.10851007545E+01 -0.17356549106E+02  0.21948501318E+02  0.00000000000E+00 0. -1.
          1    1    6    6  503    0  0.46872901719E+02  0.61415564665E+02 -0.91830419876E+02  0.12000736025E+03  0.00000000000E+00 0. -1.
         -1    1    6    6    0  503  0.24097381262E+03  0.12504817008E+03 -0.15965773705E+03  0.31495399062E+03  0.00000000000E+00 0.  1.
<mgrwt>
<rscale>  0 0.11913910E+04</rscale>
<asrwt>0</asrwt>
<pdfrwt beam="1">  1        2 0.14845149E+00 0.11913910E+04</pdfrwt>
<pdfrwt beam="2">  1       -1 0.56576668E-01 0.11913910E+04</pdfrwt>
<totfact> 0.94525020E+01</totfact>
</mgrwt>
</event>
<event>
12    7  0.1637954E-007  0.1825205E+04  0.7818608E-02  0.8693010E-01
         -1   -1    0    0    0  501 -0.00000000000E+00  0.00000000000E+00  0.46068516376E+03  0.46068516376E+03  0.00000000000E+00 0.  1.
          2   -1    0    0  501    0  0.00000000000E+00 -0.00000000000E+00 -0.18078354097E+04  0.18078354097E+04  0.00000000000E+00 0. -1.
         24    2    1    2    0    0  0.52945085483E+03 -0.52279556610E+01  0.32775644512E+02  0.53634390437E+03  0.79025323034E+02 0.  0.
        254    2    1    2    0    0 -0.52945085483E+03  0.52279556610E+01 -0.13799258905E+04  0.17321766691E+04  0.90326906877E+03 0.  0.
         23    2    4    4    0    0 -0.74301688029E+03 -0.18619107918E+02 -0.74802254802E+03  0.10583684175E+04  0.90472201382E+02 0.  0.
         23    2    4    4    0    0  0.21356602546E+03  0.23847063579E+02 -0.63190334245E+03  0.67380825162E+03  0.92393701477E+02 0.  0.
          2    1    3    3  502    0  0.14353295949E+03  0.49774951350E+01  0.43750123457E+02  0.15013513652E+03  0.00000000000E+00 0. -1.
         -3    1    3    3    0  502  0.38591789534E+03 -0.10205450796E+02 -0.10974478945E+02  0.38620876784E+03  0.00000000000E+00 0.  1.
         13    1    5    5    0    0 -0.12429257780E+03  0.25223961222E+02 -0.15434205825E+03  0.19976577300E+03  0.00000000000E+00 0. -1.
        -13    1    5    5    0    0 -0.61872430248E+03 -0.43843069140E+02 -0.59368048978E+03  0.85860264450E+03  0.00000000000E+00 0.  1.
          3    1    6    6  503    0  0.19573880191E+02 -0.21493502934E+02 -0.14203784885E+03  0.14498226774E+03  0.00000000000E+00 0. -1.
         -3    1    6    6    0  503  0.19399214527E+03  0.45340566513E+02 -0.48986549361E+03  0.52882598388E+03  0.00000000000E+00 0.  1.
<mgrwt>
<rscale>  0 0.18252046E+04</rscale>
<asrwt>0</asrwt>
<pdfrwt beam="1">  1        2 0.27812853E+00 0.18252046E+04</pdfrwt>
<pdfrwt beam="2">  1       -1 0.70874640E-01 0.18252046E+04</pdfrwt>
<totfact> 0.18435012E+01</totfact>
</mgrwt>
</event>
<event>
12    7  0.1637954E-007  0.1742511E+04  0.7818608E-02  0.8737483E-01
         -1   -1    0    0    0  501 -0.00000000000E+00  0.00000000000E+00  0.43202705790E+03  0.43202705790E+03  0.00000000000E+00 0.  1.
          2   -1    0    0  501    0  0.00000000000E+00 -0.00000000000E+00 -0.17570342569E+04  0.17570342569E+04  0.00000000000E+00 0. -1.
         24    2    1    2    0    0  0.49334245704E+03  0.33978758608E+03 -0.75870720421E+03  0.96988599820E+03  0.78739089524E+02 0.  0.
        254    2    1    2    0    0 -0.49334245704E+03 -0.33978758608E+03 -0.56629999476E+03  0.12191753166E+04  0.89824850953E+03 0.  0.
         23    2    4    4    0    0 -0.65051078367E+03 -0.46816064273E+03 -0.58108464811E+03  0.99373127610E+03  0.86624556325E+02 0.  0.
         23    2    4    4    0    0  0.15716832663E+03  0.12837305665E+03  0.14784653355E+02  0.22544404046E+03  0.97081949060E+02 0.  0.
          2    1    3    3  502    0  0.64530941153E+01  0.72446217326E+01 -0.93320883603E+00  0.97466838689E+01  0.00000000000E+00 0. -1.
         -1    1    3    3    0  502  0.48688936293E+03  0.33254296434E+03 -0.75777399537E+03  0.96013931433E+03  0.00000000000E+00 0.  1.
         13    1    5    5    0    0 -0.37715777387E+02 -0.53333155919E+02 -0.35456715740E+02  0.74324182304E+02  0.00000000000E+00 0. -1.
        -13    1    5    5    0    0 -0.61279500629E+03 -0.41482748681E+03 -0.54562793237E+03  0.91940709380E+03  0.00000000000E+00 0.  1.
          1    1    6    6  503    0  0.66525607632E+02  0.19941942412E+02 -0.32144925816E+02  0.76528646882E+02  0.00000000000E+00 0. -1.
         -1    1    6    6    0  503  0.90642718999E+02  0.10843111424E+03  0.46929579171E+02  0.14891539358E+03  0.00000000000E+00 0.  1.
<mgrwt>
<rscale>  0 0.17425112E+04</rscale>
<asrwt>0</asrwt>
<pdfrwt beam="1">  1        2 0.27031297E+00 0.17425112E+04</pdfrwt>
<pdfrwt beam="2">  1       -1 0.66465700E-01 0.17425112E+04</pdfrwt>
<totfact> 0.22587550E+01</totfact>
</mgrwt>
</event>
<event>
12    7  0.1637954E-007  0.1437720E+04  0.7818608E-02  0.8926958E-01
          2   -1    0    0  501    0  0.00000000000E+00  0.00000000000E+00  0.13847749539E+04  0.13847749539E+04  0.00000000000E+00 0. -1.
         -1   -1    0    0    0  501 -0.00000000000E+00 -0.00000000000E+00 -0.37317240739E+03  0.37317240739E+03  0.00000000000E+00 0.  1.
         24    2    1    2    0    0 -0.13808783157E+03 -0.38999509154E+03  0.47097932736E+03  0.63226358701E+03  0.82287884987E+02 0.  0.
        254    2    1    2    0    0  0.13808783157E+03  0.38999509154E+03  0.54062321917E+03  0.11256837743E+04  0.89650770993E+03 0.  0.
         23    2    4    4    0    0  0.32330655038E+03  0.29077951370E+03 -0.91917066144E+02  0.45318200861E+03  0.88573894432E+02 0.  0.
         23    2    4    4    0    0 -0.18521871880E+03  0.99215577832E+02  0.63254028531E+03  0.67250176569E+03  0.89452264522E+02 0.  0.
          2    1    3    3  502    0 -0.42491839882E+02 -0.20732907033E+03  0.28203562612E+03  0.35261167629E+03  0.00000000000E+00 0. -1.
         -1    1    3    3    0  502 -0.95595991692E+02 -0.18266602121E+03  0.18894370124E+03  0.27965191072E+03  0.00000000000E+00 0.  1.
         13    1    5    5    0    0  0.19753000205E+03  0.15497292873E+03 -0.11401735853E+02  0.25132590381E+03  0.00000000000E+00 0.  1.
        -13    1    5    5    0    0  0.12577654833E+03  0.13580658498E+03 -0.80515330292E+02  0.20185610480E+03  0.00000000000E+00 0. -1.
          3    1    6    6  503    0 -0.12191462415E+03  0.39512237124E+02  0.48074470371E+03  0.49753378037E+03  0.00000000000E+00 0. -1.
         -3    1    6    6    0  503 -0.63304094654E+02  0.59703340708E+02  0.15179558161E+03  0.17496798532E+03  0.00000000000E+00 0.  1.
<mgrwt>
<rscale>  0 0.14377201E+04</rscale>
<asrwt>0</asrwt>
<pdfrwt beam="1">  1        2 0.21304230E+00 0.14377201E+04</pdfrwt>
<pdfrwt beam="2">  1       -1 0.57411140E-01 0.14377201E+04</pdfrwt>
<totfact> 0.50183453E+01</totfact>
</mgrwt>
</event>
<event>
12    7  0.1637954E-007  0.2076183E+04  0.7818608E-02  0.8571808E-01
         -1   -1    0    0    0  501 -0.00000000000E+00  0.00000000000E+00  0.34429808853E+03  0.34429808853E+03  0.00000000000E+00 0.  1.
          2   -1    0    0  501    0  0.00000000000E+00 -0.00000000000E+00 -0.31299446043E+04  0.31299446043E+04  0.00000000000E+00 0. -1.
         24    2    1    2    0    0 -0.79708272218E+01 -0.61026404893E+03 -0.16521687795E+03  0.63747582172E+03  0.81197678625E+02 0.  0.
        254    2    1    2    0    0  0.79708272218E+01  0.61026404893E+03 -0.26204296378E+04  0.28367668711E+04  0.89894885879E+03 0.  0.
         23    2    4    4    0    0  0.33962559562E+03  0.58420467756E+03 -0.21342060870E+04  0.22405205348E+04  0.91956483259E+02 0.  0.
         23    2    4    4    0    0 -0.33165476839E+03  0.26059371370E+02 -0.48622355080E+03  0.59624633624E+03  0.91773503189E+02 0.  0.
          2    1    3    3  502    0 -0.30907286714E+02 -0.36010237136E+03 -0.12853076019E+03  0.38360022751E+03  0.00000000000E+00 0. -1.
         -1    1    3    3    0  502  0.22936459493E+02 -0.25016167757E+03 -0.36686117763E+02  0.25387559421E+03  0.00000000000E+00 0.  1.
         13    1    5    5    0    0  0.21694933363E+01  0.48704278683E+02 -0.16955484375E+03  0.17642465390E+03  0.00000000000E+00 0. -1.
        -13    1    5    5    0    0  0.33745610228E+03  0.53550039888E+03 -0.19646512432E+04  0.20640958809E+04  0.00000000000E+00 0.  1.
          4    1    6    6  503    0 -0.13202778026E+02  0.15268174442E+01  0.13646144754E+01  0.13360639647E+02  0.00000000000E+00 0. -1.
         -4    1    6    6    0  503 -0.31845199037E+03  0.24532553926E+02 -0.48758816528E+03  0.58288569659E+03  0.00000000000E+00 0.  1.
<mgrwt>
<rscale>  0 0.20761830E+04</rscale>
<asrwt>0</asrwt>
<pdfrwt beam="1">  1        2 0.48152991E+00 0.20761830E+04</pdfrwt>
<pdfrwt beam="2">  1       -1 0.52968940E-01 0.20761830E+04</pdfrwt>
<totfact> 0.54505601E+00</totfact>
</mgrwt>
</event>
<event>
12    7  0.1637954E-007  0.2242689E+04  0.7818608E-02  0.8500867E-01
         -1   -1    0    0    0  501 -0.00000000000E+00  0.00000000000E+00  0.59633421766E+03  0.59633421766E+03  0.00000000000E+00 0.  1.
          2   -1    0    0  501    0  0.00000000000E+00 -0.00000000000E+00 -0.21085713861E+04  0.21085713861E+04  0.00000000000E+00 0. -1.
         24    2    1    2    0    0 -0.83370347357E+03  0.12308998676E+03 -0.13412620693E+03  0.85675495534E+03  0.76332086444E+02 0.  0.
        254    2    1    2    0    0  0.83370347357E+03 -0.12308998676E+03 -0.13781109615E+04  0.18481506484E+04  0.89791891077E+03 0.  0.
         23    2    4    4    0    0 -0.61783734219E+02  0.98394444561E+02 -0.65778263574E+03  0.67420646611E+03  0.91529593757E+02 0.  0.
         23    2    4    4    0    0  0.89548720779E+03 -0.22148443132E+03 -0.72032832578E+03  0.11739441823E+04  0.91210490757E+02 0.  0.
          2    1    3    3  502    0 -0.70540924567E+02  0.26009688169E+02  0.33392904890E+01  0.75257403479E+02  0.00000000000E+00 0. -1.
         -1    1    3    3    0  502 -0.76316254901E+03  0.97080298595E+02 -0.13746549742E+03  0.78149755186E+03  0.00000000000E+00 0.  1.
         13    1    5    5    0    0  0.22439163589E+02  0.77178180438E+01 -0.88387291014E+02  0.91517178664E+02  0.00000000000E+00 0. -1.
        -13    1    5    5    0    0 -0.84222897808E+02  0.90676626517E+02 -0.56939534472E+03  0.58268928745E+03  0.00000000000E+00 0.  1.
          1    1    6    6  503    0  0.39891135732E+03 -0.10767054191E+03 -0.26656967153E+03  0.49171394771E+03  0.00000000000E+00 0. -1.
         -1    1    6    6    0  503  0.49657585047E+03 -0.11381388942E+03 -0.45375865425E+03  0.68223023460E+03  0.00000000000E+00 0.  1.
<mgrwt>
<rscale>  0 0.22426888E+04</rscale>
<asrwt>0</asrwt>
<pdfrwt beam="1">  1        2 0.32439559E+00 0.22426888E+04</pdfrwt>
<pdfrwt beam="2">  1       -1 0.91743727E-01 0.22426888E+04</pdfrwt>
<totfact> 0.69730746E+00</totfact>
</mgrwt>
</event>
<event>
12    7  0.1637954E-007  0.1403892E+04  0.7818608E-02  0.8951006E-01
          2   -1    0    0  501    0  0.00000000000E+00  0.00000000000E+00  0.12216994830E+04  0.12216994830E+04  0.00000000000E+00 0. -1.
         -1   -1    0    0    0  501 -0.00000000000E+00 -0.00000000000E+00 -0.40331384823E+03  0.40331384823E+03  0.00000000000E+00 0.  1.
         24    2    1    2    0    0  0.27862556863E+03  0.29886081666E+03  0.24231532570E+03  0.48136799226E+03  0.77771663694E+02 0.  0.
        254    2    1    2    0    0 -0.27862556863E+03 -0.29886081666E+03  0.57607030906E+03  0.11436453390E+04  0.89950968039E+03 0.  0.
         23    2    4    4    0    0  0.30409541995E+03 -0.88200624773E+02  0.67467559426E+02  0.33677489108E+03  0.92801298696E+02 0.  0.
         23    2    4    4    0    0 -0.58272098858E+03 -0.21066019188E+03  0.50860274963E+03  0.80687044788E+03  0.91769797577E+02 0.  0.
          4    1    3    3  502    0  0.22204900801E+03  0.26347064445E+03  0.17451712614E+03  0.38623667583E+03  0.00000000000E+00 0. -1.
         -3    1    3    3    0  502  0.56576560621E+02  0.35390172210E+02  0.67798199563E+02  0.95131316424E+02  0.00000000000E+00 0.  1.
         13    1    5    5    0    0  0.19119404856E+03 -0.35695529832E+02  0.82668801942E+02  0.21133732720E+03  0.00000000000E+00 0. -1.
        -13    1    5    5    0    0  0.11290137140E+03 -0.52505094941E+02 -0.15201242516E+02  0.12543756388E+03  0.00000000000E+00 0.  1.
          3    1    6    6  503    0 -0.52013126236E+03 -0.15980444012E+03  0.42249743633E+03  0.68889627149E+03  0.00000000000E+00 0. -1.
         -3    1    6    6    0  503 -0.62589726223E+02 -0.50855751759E+02  0.86105313306E+02  0.11797417639E+03  0.00000000000E+00 0.  1.
<mgrwt>
<rscale>  0 0.14038922E+04</rscale>
<asrwt>0</asrwt>
<pdfrwt beam="1">  1        2 0.18795376E+00 0.14038922E+04</pdfrwt>
<pdfrwt beam="2">  1       -1 0.62048285E-01 0.14038922E+04</pdfrwt>
<totfact> 0.53732193E+01</totfact>
</mgrwt>
</event>
<event>
12    7  0.1637954E-007  0.2059624E+04  0.7818608E-02  0.8579241E-01
         -1   -1    0    0    0  501 -0.00000000000E+00  0.00000000000E+00  0.13328115293E+04  0.13328115293E+04  0.00000000000E+00 0.  1.
          2   -1    0    0  501    0  0.00000000000E+00 -0.00000000000E+00 -0.79569576278E+03  0.79569576278E+03  0.00000000000E+00 0. -1.
         24    2    1    2    0    0  0.27550839613E+03  0.71392654426E+03  0.55850838486E+03  0.95071711775E+03  0.79595446414E+02 0.  0.
        254    2    1    2    0    0 -0.27550839613E+03 -0.71392654426E+03 -0.21392618332E+02  0.11777901743E+04  0.89506204463E+03 0.  0.
         23    2    4    4    0    0  0.34315941444E+02 -0.63675517726E+03 -0.33043163719E+03  0.72409092995E+03  0.92129628091E+02 0.  0.
         23    2    4    4    0    0 -0.30982433757E+03 -0.77171366990E+02  0.30903901886E+03  0.45369924439E+03  0.91604307471E+02 0.  0.
          4    1    3    3  502    0  0.23155311084E+03  0.63953147565E+03  0.51975153000E+03  0.85601343706E+03  0.00000000000E+00 0. -1.
         -3    1    3    3    0  502  0.43955285290E+02  0.74395068606E+02  0.38756854865E+02  0.94703680693E+02  0.00000000000E+00 0.  1.
         13    1    5    5    0    0 -0.89616795613E+01 -0.10339290847E+02 -0.18386962053E+02  0.22919271571E+02  0.00000000000E+00 0. -1.
        -13    1    5    5    0    0  0.43277621006E+02 -0.62641588642E+03 -0.31204467514E+03  0.70117165838E+03  0.00000000000E+00 0.  1.
          3    1    6    6  503    0 -0.25124524289E+03 -0.78509694272E+02  0.29100486733E+03  0.39239237630E+03  0.00000000000E+00 0. -1.
         -3    1    6    6    0  503 -0.58579094681E+02  0.13383272814E+01  0.18034151533E+02  0.61306868091E+02  0.00000000000E+00 0.  1.
<mgrwt>
<rscale>  0 0.20596237E+04</rscale>
<asrwt>0</asrwt>
<pdfrwt beam="1">  1        2 0.12241473E+00 0.20596237E+04</pdfrwt>
<pdfrwt beam="2">  1       -1 0.20504793E+00 0.20596237E+04</pdfrwt>
<totfact> 0.50859388E+00</totfact>
</mgrwt>
</event>
<event>
12    7  0.1637954E-007  0.1131625E+04  0.7818608E-02  0.9174904E-01
          2   -1    0    0  501    0  0.00000000000E+00  0.00000000000E+00  0.10091170998E+04  0.10091170998E+04  0.00000000000E+00 0. -1.
         -1   -1    0    0    0  501 -0.00000000000E+00 -0.00000000000E+00 -0.31725151597E+03  0.31725151597E+03  0.00000000000E+00 0.  1.
         24    2    1    2    0    0 -0.80039744355E+02 -0.11026240590E+03 -0.29655589554E+02  0.16055682955E+03  0.79591976309E+02 0.  0.
        254    2    1    2    0    0  0.80039744355E+02  0.11026240590E+03  0.72152117338E+03  0.11658117862E+04  0.90551651472E+03 0.  0.
         23    2    4    4    0    0 -0.17700382318E+03  0.99711345911E+02 -0.13928242867E+03  0.26276152411E+03  0.91494905291E+02 0.  0.
         23    2    4    4    0    0  0.25704356753E+03  0.10551059987E+02  0.86080360205E+03  0.90305026211E+03  0.91291916976E+02 0.  0.
          2    1    3    3  502    0 -0.28467488007E+00 -0.25543278500E+01  0.18099346017E+02  0.18280917833E+02  0.00000000000E+00 0. -1.
         -1    1    3    3    0  502 -0.79755069475E+02 -0.10770807805E+03 -0.47754935571E+02  0.14227591172E+03  0.00000000000E+00 0.  1.
         13    1    5    5    0    0 -0.55867621729E+02  0.48593473376E+02 -0.10210427893E+03  0.12612612968E+03  0.00000000000E+00 0. -1.
        -13    1    5    5    0    0 -0.12113620145E+03  0.51117872535E+02 -0.37178149748E+02  0.13663539444E+03  0.00000000000E+00 0.  1.
          4    1    6    6  503    0  0.21194393316E+03  0.22247132508E+02  0.79040619655E+03  0.81863124864E+03  0.00000000000E+00 0. -1.
         -4    1    6    6    0  503  0.45099634368E+02 -0.11696072521E+02  0.70397405506E+02  0.84419013465E+02  0.00000000000E+00 0.  1.
<mgrwt>
<rscale>  0 0.11316253E+04</rscale>
<asrwt>0</asrwt>
<pdfrwt beam="1">  1        2 0.15524878E+00 0.11316253E+04</pdfrwt>
<pdfrwt beam="2">  1       -1 0.48807926E-01 0.11316253E+04</pdfrwt>
<totfact> 0.11799302E+02</totfact>
</mgrwt>
</event>
<event>
12    7  0.1637954E-007  0.1493768E+04  0.7818608E-02  0.8888608E-01
          2   -1    0    0  501    0  0.00000000000E+00  0.00000000000E+00  0.11496584131E+04  0.11496584131E+04  0.00000000000E+00 0. -1.
         -1   -1    0    0    0  501 -0.00000000000E+00 -0.00000000000E+00 -0.48521833833E+03  0.48521833833E+03  0.00000000000E+00 0.  1.
         24    2    1    2    0    0 -0.34570625028E+03  0.31387114229E+03  0.26148116752E+03  0.54112651888E+03  0.80109943340E+02 0.  0.
        254    2    1    2    0    0  0.34570625028E+03 -0.31387114229E+03  0.40295890723E+03  0.10937502325E+04  0.90326396186E+03 0.  0.
         23    2    4    4    0    0  0.46787085086E+03 -0.48112744577E+03  0.50580045984E+03  0.84508402374E+03  0.89141179319E+02 0.  0.
         23    2    4    4    0    0 -0.12216460058E+03  0.16725630348E+03 -0.10284155261E+03  0.24866620879E+03  0.91431054676E+02 0.  0.
          2    1    3    3  502    0 -0.18018903735E+03  0.17517852164E+03  0.95806645747E+02  0.26895077058E+03  0.00000000000E+00 0. -1.
         -1    1    3    3    0  502 -0.16551721293E+03  0.13869262065E+03  0.16567452178E+03  0.27217574830E+03  0.00000000000E+00 0.  1.
         13    1    5    5    0    0  0.35372416190E+02 -0.53629842631E+02  0.21717324243E+02  0.67816001209E+02  0.00000000000E+00 0. -1.
        -13    1    5    5    0    0  0.43249843467E+03 -0.42749760314E+03  0.48408313559E+03  0.77726802253E+03  0.00000000000E+00 0.  1.
          4    1    6    6  503    0  0.92412675040E+01 -0.41453930141E+00  0.43126864315E+01  0.10206475012E+02  0.00000000000E+00 0. -1.
         -4    1    6    6    0  503 -0.13140586809E+03  0.16767084278E+03 -0.10715423904E+03  0.23845973377E+03  0.00000000000E+00 0.  1.
<mgrwt>
<rscale>  0 0.14937675E+04</rscale>
<asrwt>0</asrwt>
<pdfrwt beam="1">  1        2 0.17687052E+00 0.14937675E+04</pdfrwt>
<pdfrwt beam="2">  1       -1 0.74648976E-01 0.14937675E+04</pdfrwt>
<totfact> 0.40433727E+01</totfact>
</mgrwt>
</event>
<event>
12    7  0.1637954E-007  0.1264461E+04  0.7818608E-02  0.9058232E-01
         -1   -1    0    0    0  501 -0.00000000000E+00  0.00000000000E+00  0.16164351426E+03  0.16164351426E+03  0.00000000000E+00 0.  1.
          2   -1    0    0  501    0  0.00000000000E+00 -0.00000000000E+00 -0.24728219441E+04  0.24728219441E+04  0.00000000000E+00 0. -1.
         24    2    1    2    0    0 -0.26548802950E+03 -0.13671327442E+03 -0.66933598096E+03  0.73730057206E+03  0.80168977452E+02 0.  0.
        254    2    1    2    0    0  0.26548802950E+03  0.13671327442E+03 -0.16418424489E+04  0.18971648863E+04  0.90244864990E+03 0.  0.
         23    2    4    4    0    0  0.40050477387E+03 -0.16015551377E+03 -0.14326972731E+04  0.14990544805E+04  0.92135751778E+02 0.  0.
         23    2    4    4    0    0 -0.13501674438E+03  0.29686878819E+03 -0.20914517581E+03  0.39811040581E+03  0.91594715912E+02 0.  0.
          2    1    3    3  502    0 -0.18972624757E+03 -0.11261727840E+03 -0.56177488264E+03  0.60354761136E+03  0.00000000000E+00 0. -1.
         -1    1    3    3    0  502 -0.75761781927E+02 -0.24095996017E+02 -0.10756109832E+03  0.13375296070E+03  0.00000000000E+00 0.  1.
         13    1    5    5    0    0  0.26810019808E+03 -0.80885672343E+02 -0.10422945551E+04  0.10792581469E+04  0.00000000000E+00 0. -1.
        -13    1    5    5    0    0  0.13240457579E+03 -0.79269841431E+02 -0.39040271803E+03  0.41979633360E+03  0.00000000000E+00 0.  1.
          4    1    6    6  503    0 -0.14701021938E+03  0.28944205744E+03 -0.20086372101E+03  0.38175246382E+03  0.00000000000E+00 0. -1.
         -4    1    6    6    0  503  0.11993475005E+02  0.74267307545E+01 -0.82814547978E+01  0.16357941984E+02  0.00000000000E+00 0.  1.
<mgrwt>
<rscale>  0 0.12644614E+04</rscale>
<asrwt>0</asrwt>
<pdfrwt beam="1">  1        2 0.38043414E+00 0.12644614E+04</pdfrwt>
<pdfrwt beam="2">  1       -1 0.24868234E-01 0.12644614E+04</pdfrwt>
<totfact> 0.57381928E+01</totfact>
</mgrwt>
</event>
<event>
12    7  0.1637954E-007  0.2223388E+04  0.7818608E-02  0.8508756E-01
         -1   -1    0    0    0  501 -0.00000000000E+00  0.00000000000E+00  0.76690548988E+03  0.76690548988E+03  0.00000000000E+00 0.  1.
          2   -1    0    0  501    0  0.00000000000E+00 -0.00000000000E+00 -0.16114937945E+04  0.16114937945E+04  0.00000000000E+00 0. -1.
         24    2    1    2    0    0 -0.74333675401E+03  0.56077254321E+03 -0.43231353016E+03  0.10296374154E+04  0.79011669028E+02 0.  0.
        254    2    1    2    0    0  0.74333675401E+03 -0.56077254321E+03 -0.41227477447E+03  0.13487618689E+04  0.88440528853E+03 0.  0.
         23    2    4    4    0    0  0.34855931902E+03 -0.48501055134E+03 -0.63770138182E+03  0.87893363169E+03  0.95563815022E+02 0.  0.
         23    2    4    4    0    0  0.39477743499E+03 -0.75761991866E+02  0.22542660735E+03  0.46982823726E+03  0.91281513086E+02 0.  0.
          2    1    3    3  502    0 -0.15427391383E+03  0.13160945943E+03 -0.12823656474E+03  0.23992937885E+03  0.00000000000E+00 0. -1.
         -1    1    3    3    0  502 -0.58906284018E+03  0.42916308378E+03 -0.30407696542E+03  0.78970803659E+03  0.00000000000E+00 0.  1.
         13    1    5    5    0    0  0.19584820418E+03 -0.20300702829E+03 -0.33498039688E+03  0.43792720732E+03  0.00000000000E+00 0.  1.
        -13    1    5    5    0    0  0.15271111484E+03 -0.28200352305E+03 -0.30272098494E+03  0.44100642436E+03  0.00000000000E+00 0. -1.
          3    1    6    6  503    0  0.34438606213E+03 -0.32711391538E+02  0.18862845505E+03  0.39402092455E+03  0.00000000000E+00 0. -1.
         -3    1    6    6    0  503  0.50391372860E+02 -0.43050600327E+02  0.36798152303E+02  0.75807312709E+02  0.00000000000E+00 0.  1.
<mgrwt>
<rscale>  0 0.22233879E+04</rscale>
<asrwt>0</asrwt>
<pdfrwt beam="1">  1        2 0.24792212E+00 0.22233879E+04</pdfrwt>
<pdfrwt beam="2">  1       -1 0.11798546E+00 0.22233879E+04</pdfrwt>
<totfact> 0.73665917E+00</totfact>
</mgrwt>
</event>
<event>
12    7  0.1637954E-007  0.1673612E+04  0.7818608E-02  0.8776559E-01
          2   -1    0    0  501    0  0.00000000000E+00  0.00000000000E+00  0.18498819618E+04  0.18498819618E+04  0.00000000000E+00 0. -1.
         -1   -1    0    0    0  501 -0.00000000000E+00 -0.00000000000E+00 -0.37853478947E+03  0.37853478947E+03  0.00000000000E+00 0.  1.
         24    2    1    2    0    0  0.42681905036E+03 -0.23295817133E+03  0.98860068103E+03  0.11044579740E+04  0.77795234800E+02 0.  0.
        254    2    1    2    0    0 -0.42681905036E+03  0.23295817133E+03  0.48274649127E+03  0.11239587772E+04  0.89095182061E+03 0.  0.
         23    2    4    4    0    0 -0.29849209147E+03 -0.31232231198E+03  0.14444545452E+03  0.46443173781E+03  0.90496378532E+02 0.  0.
         23    2    4    4    0    0 -0.12832695888E+03  0.54528048331E+03  0.33830103675E+03  0.65952703938E+03  0.82034811821E+02 0.  0.
          4    1    3    3  502    0  0.42070956396E+03 -0.21543567844E+03  0.96402063286E+03  0.10736595593E+04  0.00000000000E+00 0. -1.
         -3    1    3    3    0  502  0.61094863975E+01 -0.17522492888E+02  0.24580048171E+02  0.30798414718E+02  0.00000000000E+00 0.  1.
         13    1    5    5    0    0 -0.12377904720E+03 -0.17934774448E+03  0.10284556199E+03  0.24096488457E+03  0.00000000000E+00 0. -1.
        -13    1    5    5    0    0 -0.17471304427E+03 -0.13297456750E+03  0.41599892534E+02  0.22346685324E+03  0.00000000000E+00 0.  1.
          2    1    6    6  503    0 -0.20961110137E+01 -0.16178404367E+01  0.76521460627E+01  0.80973099499E+01  0.00000000000E+00 0. -1.
         -2    1    6    6    0  503 -0.12623084787E+03  0.54689832375E+03  0.33064889069E+03  0.65142972943E+03  0.00000000000E+00 0.  1.
<mgrwt>
<rscale>  0 0.16736125E+04</rscale>
<asrwt>0</asrwt>
<pdfrwt beam="1">  1        2 0.28459722E+00 0.16736125E+04</pdfrwt>
<pdfrwt beam="2">  1       -1 0.58236122E-01 0.16736125E+04</pdfrwt>
<totfact> 0.26269343E+01</totfact>
</mgrwt>
</event>
<event>
12    7  0.1637954E-007  0.1053853E+04  0.7818608E-02  0.9251375E-01
          2   -1    0    0  501    0  0.00000000000E+00  0.00000000000E+00  0.68619437190E+03  0.68619437190E+03  0.00000000000E+00 0. -1.
         -1   -1    0    0    0  501 -0.00000000000E+00 -0.00000000000E+00 -0.40462513594E+03  0.40462513594E+03  0.00000000000E+00 0.  1.
         24    2    1    2    0    0 -0.66838452619E+02  0.10069917821E+03 -0.20749796384E+02  0.14794757817E+03  0.82766107777E+02 0.  0.
        254    2    1    2    0    0  0.66838452619E+02 -0.10069917821E+03  0.30231903234E+03  0.94287192967E+03  0.88487455337E+03 0.  0.
         23    2    4    4    0    0 -0.36989787421E+03 -0.17944856108E+03  0.24522046575E+03  0.48641366127E+03  0.86249345664E+02 0.  0.
         23    2    4    4    0    0  0.43673632683E+03  0.78749382874E+02  0.57098566586E+02  0.45645826839E+03  0.90298504974E+02 0.  0.
          4    1    3    3  502    0 -0.29710547781E+02 -0.86939664033E+01 -0.49666712324E+01  0.31352344799E+02  0.00000000000E+00 0. -1.
         -3    1    3    3    0  502 -0.37127904838E+02  0.10939314461E+03 -0.15783125152E+02  0.11659523337E+03  0.00000000000E+00 0.  1.
         13    1    5    5    0    0  0.74903310664E+00 -0.11408813513E+02  0.29997337802E+00  0.11437310016E+02  0.00000000000E+00 0. -1.
        -13    1    5    5    0    0 -0.37064690732E+03 -0.16803974757E+03  0.24492049237E+03  0.47497635126E+03  0.00000000000E+00 0.  1.
          2    1    6    6  503    0  0.53309107059E+02  0.24984721340E+02  0.35346676440E+02  0.68669387147E+02  0.00000000000E+00 0. -1.
         -2    1    6    6    0  503  0.38342721977E+03  0.53764661534E+02  0.21751890145E+02  0.38778888125E+03  0.00000000000E+00 0.  1.
<mgrwt>
<rscale>  0 0.10538529E+04</rscale>
<asrwt>0</asrwt>
<pdfrwt beam="1">  1        2 0.10556836E+00 0.10538529E+04</pdfrwt>
<pdfrwt beam="2">  1       -1 0.62250021E-01 0.10538529E+04</pdfrwt>
<totfact> 0.12507016E+02</totfact>
</mgrwt>
</event>
<event>
12    7  0.1637954E-007  0.3844802E+04  0.7818608E-02  0.8036608E-01
          2   -1    0    0  501    0  0.00000000000E+00  0.00000000000E+00  0.36158462190E+04  0.36158462190E+04  0.00000000000E+00 0. -1.
         -1   -1    0    0    0  501 -0.00000000000E+00 -0.00000000000E+00 -0.10220638097E+04  0.10220638097E+04  0.00000000000E+00 0.  1.
         24    2    1    2    0    0  0.79144840216E+02 -0.32783575641E+03 -0.92836265359E+03  0.99073974957E+03  0.77251834084E+02 0.  0.
        254    2    1    2    0    0 -0.79144840216E+02  0.32783575641E+03  0.35221450628E+04  0.36471702791E+04  0.88464965531E+03 0.  0.
         23    2    4    4    0    0 -0.34754895896E+03  0.45284219484E+03  0.16276555299E+04  0.17273903043E+04  0.93586362377E+02 0.  0.
         23    2    4    4    0    0  0.26840411874E+03 -0.12500643843E+03  0.18944895330E+04  0.19197799748E+04  0.93793287128E+02 0.  0.
          4    1    3    3  502    0  0.37487243278E+02 -0.85481743682E+02 -0.17615213693E+03  0.19935394969E+03  0.00000000000E+00 0. -1.
         -3    1    3    3    0  502  0.41657596938E+02 -0.24235401273E+03 -0.75221051667E+03  0.79138579988E+03  0.00000000000E+00 0.  1.
         13    1    5    5    0    0 -0.12528414899E+03  0.13073885869E+03  0.63701624672E+03  0.66225256945E+03  0.00000000000E+00 0. -1.
        -13    1    5    5    0    0 -0.22226480997E+03  0.32210333615E+03  0.99063928314E+03  0.10651377349E+04  0.00000000000E+00 0.  1.
          3    1    6    6  503    0  0.95734836179E+02 -0.23861569696E+02  0.40179384524E+03  0.41373038013E+03  0.00000000000E+00 0. -1.
         -3    1    6    6    0  503  0.17266928256E+03 -0.10114486873E+03  0.14926956877E+04  0.15060495947E+04  0.00000000000E+00 0.  1.
<mgrwt>
<rscale>  0 0.38448020E+04</rscale>
<asrwt>0</asrwt>
<pdfrwt beam="1">  1        2 0.55628403E+00 0.38448020E+04</pdfrwt>
<pdfrwt beam="2">  1       -1 0.15724059E+00 0.38448020E+04</pdfrwt>
<totfact> 0.18659829E-01</totfact>
</mgrwt>
</event>
<event>
12    7  0.1637954E-007  0.2503552E+04  0.7818608E-02  0.8401721E-01
         -1   -1    0    0    0  501 -0.00000000000E+00  0.00000000000E+00  0.64594930734E+03  0.64594930734E+03  0.00000000000E+00 0.  1.
          2   -1    0    0  501    0  0.00000000000E+00 -0.00000000000E+00 -0.24257988441E+04  0.24257988441E+04  0.00000000000E+00 0. -1.
         24    2    1    2    0    0 -0.24788434197E+03  0.10336295621E+04 -0.47880528910E+03  0.11683484379E+04  0.77115813771E+02 0.  0.
        254    2    1    2    0    0  0.24788434197E+03 -0.10336295621E+04 -0.13010442477E+04  0.19033997136E+04  0.89463826015E+03 0.  0.
         23    2    4    4    0    0 -0.47876405721E+02  0.10201382885E+03  0.60905927177E+01  0.14438712415E+03  0.90064281483E+02 0.  0.
         23    2    4    4    0    0  0.29576074769E+03 -0.11356433910E+04 -0.13071348404E+04  0.17590125894E+04  0.91451995343E+02 0.  0.
          2    1    3    3  502    0 -0.13393544236E+03  0.48331508746E+03 -0.26342249990E+03  0.56650118265E+03  0.00000000000E+00 0. -1.
         -1    1    3    3    0  502 -0.11394889961E+03  0.55031447467E+03 -0.21538278920E+03  0.60184725524E+03  0.00000000000E+00 0.  1.
         13    1    5    5    0    0 -0.13014680723E+02  0.59733066435E+02 -0.39767881456E+02  0.72930827059E+02  0.00000000000E+00 0.  1.
        -13    1    5    5    0    0 -0.34861724998E+02  0.42280762413E+02  0.45858474174E+02  0.71456297089E+02  0.00000000000E+00 0. -1.
          3    1    6    6  503    0  0.76852498724E+02 -0.27685756895E+03 -0.38043429213E+03  0.47674591836E+03  0.00000000000E+00 0. -1.
         -3    1    6    6    0  503  0.21890824896E+03 -0.85878582203E+03 -0.92670054827E+03  0.12822666711E+04  0.00000000000E+00 0.  1.
<mgrwt>
<rscale>  0 0.25035519E+04</rscale>
<asrwt>0</asrwt>
<pdfrwt beam="1">  1        2 0.37319982E+00 0.25035519E+04</pdfrwt>
<pdfrwt beam="2">  1       -1 0.99376817E-01 0.25035519E+04</pdfrwt>
<totfact> 0.37666132E+00</totfact>
</mgrwt>
</event>
<event>
12    7  0.1637954E-007  0.2144028E+04  0.7818608E-02  0.8542093E-01
          2   -1    0    0  501    0  0.00000000000E+00  0.00000000000E+00  0.18935022474E+04  0.18935022474E+04  0.00000000000E+00 0. -1.
         -1   -1    0    0    0  501 -0.00000000000E+00 -0.00000000000E+00 -0.60692483504E+03  0.60692483504E+03  0.00000000000E+00 0.  1.
         24    2    1    2    0    0  0.62619257185E+03  0.57307443239E+03  0.25676222657E+03  0.89049307969E+03  0.80744299339E+02 0.  0.
        254    2    1    2    0    0 -0.62619257185E+03 -0.57307443239E+03  0.10298151858E+04  0.16099340028E+04  0.90046473237E+03 0.  0.
         23    2    4    4    0    0  0.21543178195E+02 -0.54247188947E+03  0.29142867928E+03  0.62295296677E+03  0.91650773590E+02 0.  0.
         23    2    4    4    0    0 -0.64773575004E+03 -0.30602542923E+02  0.73838650651E+03  0.98698103600E+03  0.91754100159E+02 0.  0.
          4    1    3    3  502    0  0.14978423759E+03  0.17810225828E+03  0.90615345810E+02  0.24973360433E+03  0.00000000000E+00 0. -1.
         -3    1    3    3    0  502  0.47640833426E+03  0.39497217411E+03  0.16614688076E+03  0.64075947536E+03  0.00000000000E+00 0.  1.
         13    1    5    5    0    0  0.12790779296E+02 -0.15288399790E+03  0.13024192247E+03  0.20124631479E+03  0.00000000000E+00 0. -1.
        -13    1    5    5    0    0  0.87523988985E+01 -0.38958789157E+03  0.16118675681E+03  0.42170665197E+03  0.00000000000E+00 0.  1.
          4    1    6    6  503    0 -0.12795761238E+03  0.27873920880E+02  0.16919909169E+03  0.21395896490E+03  0.00000000000E+00 0.  1.
         -4    1    6    6    0  503 -0.51977813766E+03 -0.58476463803E+02  0.56918741483E+03  0.77302207110E+03  0.00000000000E+00 0. -1.
<mgrwt>
<rscale>  0 0.21440276E+04</rscale>
<asrwt>0</asrwt>
<pdfrwt beam="1">  1        2 0.29130804E+00 0.21440276E+04</pdfrwt>
<pdfrwt beam="2">  1       -1 0.93373052E-01 0.21440276E+04</pdfrwt>
<totfact> 0.89088377E+00</totfact>
</mgrwt>
</event>
<event>
12    7  0.1637954E-007  0.1453264E+04  0.7818608E-02  0.8916141E-01
          2   -1    0    0  501    0  0.00000000000E+00  0.00000000000E+00  0.58609056019E+03  0.58609056019E+03  0.00000000000E+00 0. -1.
         -1   -1    0    0    0  501 -0.00000000000E+00 -0.00000000000E+00 -0.90087443079E+03  0.90087443079E+03  0.00000000000E+00 0.  1.
         24    2    1    2    0    0  0.23229967821E+03 -0.40718348728E+02  0.27833210315E+03  0.37344713474E+03  0.79830309915E+02 0.  0.
        254    2    1    2    0    0 -0.23229967821E+03  0.40718348728E+02 -0.59311597375E+03  0.11135178562E+04  0.91242223418E+03 0.  0.
         23    2    4    4    0    0  0.29607691323E+03 -0.12585643850E+03 -0.61398353819E+02  0.34016718688E+03  0.91883488821E+02 0.  0.
         23    2    4    4    0    0 -0.52837659144E+03  0.16657478723E+03 -0.53171761993E+03  0.77335066935E+03  0.91753192445E+02 0.  0.
          4    1    3    3  502    0  0.19984465206E+03 -0.53745380127E+01  0.23750808477E+03  0.31044622876E+03  0.00000000000E+00 0. -1.
         -3    1    3    3    0  502  0.32455026146E+02 -0.35343810715E+02  0.40824018379E+02  0.63000905982E+02  0.00000000000E+00 0.  1.
         13    1    5    5    0    0  0.28900637238E+03 -0.96969754115E+02 -0.55832588170E+02  0.30991142991E+03  0.00000000000E+00 0. -1.
        -13    1    5    5    0    0  0.70705408587E+01 -0.28886684384E+02 -0.55657656496E+01  0.30255756973E+02  0.00000000000E+00 0.  1.
          1    1    6    6  503    0 -0.37619826294E+03  0.90443605692E+02 -0.32268527063E+03  0.50381639784E+03  0.00000000000E+00 0. -1.
         -1    1    6    6    0  503 -0.15217832850E+03  0.76131181534E+02 -0.20903234930E+03  0.26953427152E+03  0.00000000000E+00 0.  1.
<mgrwt>
<rscale>  0 0.14532639E+04</rscale>
<asrwt>0</asrwt>
<pdfrwt beam="1">  1        2 0.90167779E-01 0.14532639E+04</pdfrwt>
<pdfrwt beam="2">  1       -1 0.13859607E+00 0.14532639E+04</pdfrwt>
<totfact> 0.24333127E+01</totfact>
</mgrwt>
</event>
<event>
12    7  0.1637954E-007  0.1227033E+04  0.7818608E-02  0.9089518E-01
         -1   -1    0    0    0  501 -0.00000000000E+00  0.00000000000E+00  0.57935777951E+03  0.57935777951E+03  0.00000000000E+00 0.  1.
          2   -1    0    0  501    0  0.00000000000E+00 -0.00000000000E+00 -0.64968898429E+03  0.64968898429E+03  0.00000000000E+00 0. -1.
         24    2    1    2    0    0  0.26754760153E+03 -0.67129441419E+02 -0.12894631562E+03  0.31553908329E+03  0.82762792281E+02 0.  0.
        254    2    1    2    0    0 -0.26754760153E+03  0.67129441419E+02  0.58615110847E+02  0.91350768051E+03  0.86889151805E+03 0.  0.
         23    2    4    4    0    0 -0.36485372063E+03 -0.66029299978E+02  0.38121336951E+03  0.53948453039E+03  0.90784467448E+02 0.  0.
         23    2    4    4    0    0  0.97306119106E+02  0.13315874140E+03 -0.32259825866E+03  0.37402315011E+03  0.92865220094E+02 0.  0.
          4    1    3    3  502    0  0.11397662944E+03 -0.47731460932E+02 -0.97936643640E+02  0.15767228859E+03  0.00000000000E+00 0. -1.
         -3    1    3    3    0  502  0.15357097209E+03 -0.19397980487E+02 -0.31009671983E+02  0.15786679471E+03  0.00000000000E+00 0.  1.
         13    1    5    5    0    0 -0.30794610745E+03 -0.26593678606E+02  0.33726623942E+03  0.45747846407E+03  0.00000000000E+00 0.  1.
        -13    1    5    5    0    0 -0.56907613186E+02 -0.39435621373E+02  0.43947130085E+02  0.82006066326E+02  0.00000000000E+00 0. -1.
          1    1    6    6  503    0  0.14811442710E+02  0.19353036152E+01  0.12534848430E+01  0.14989845212E+02  0.00000000000E+00 0. -1.
         -1    1    6    6    0  503  0.82494676396E+02  0.13122343778E+03 -0.32385174350E+03  0.35903330490E+03  0.00000000000E+00 0.  1.
<mgrwt>
<rscale>  0 0.12270328E+04</rscale>
<asrwt>0</asrwt>
<pdfrwt beam="1">  1        2 0.99952151E-01 0.12270328E+04</pdfrwt>
<pdfrwt beam="2">  1       -1 0.89131966E-01 0.12270328E+04</pdfrwt>
<totfact> 0.62513949E+01</totfact>
</mgrwt>
</event>
<event>
12    7  0.1637954E-007  0.1397493E+04  0.7818608E-02  0.8955635E-01
          2   -1    0    0  501    0  0.00000000000E+00  0.00000000000E+00  0.12287077029E+04  0.12287077029E+04  0.00000000000E+00 0. -1.
         -1   -1    0    0    0  501 -0.00000000000E+00 -0.00000000000E+00 -0.39736580388E+03  0.39736580388E+03  0.00000000000E+00 0.  1.
         24    2    1    2    0    0  0.21002984079E+03  0.34255509734E+03  0.23933647830E+03  0.47470553830E+03  0.81282651929E+02 0.  0.
        254    2    1    2    0    0 -0.21002984079E+03 -0.34255509734E+03  0.59200542073E+03  0.11513679685E+04  0.90206499322E+03 0.  0.
         23    2    4    4    0    0  0.17868830958E+03 -0.12037666413E+03 -0.15081191807E+03  0.27878453003E+03  0.92501493524E+02 0.  0.
         23    2    4    4    0    0 -0.38871815037E+03 -0.22217843322E+03  0.74281733881E+03  0.87258343848E+03  0.95703718096E+02 0.  0.
          2    1    3    3  502    0  0.13869502226E+02  0.13946690651E+02 -0.54520239674E+01  0.20410728489E+02  0.00000000000E+00 0. -1.
         -1    1    3    3    0  502  0.19616033857E+03  0.32860840669E+03  0.24478850227E+03  0.45429480981E+03  0.00000000000E+00 0.  1.
         13    1    5    5    0    0  0.87815511025E+02 -0.34379884350E+02 -0.11484689402E+03  0.14860467520E+03  0.00000000000E+00 0.  1.
        -13    1    5    5    0    0  0.90872798555E+02 -0.85996779777E+02 -0.35965024054E+02  0.13017985483E+03  0.00000000000E+00 0. -1.
          3    1    6    6  503    0 -0.35156950700E+02 -0.25225369363E+01  0.10683577878E+03  0.11250003557E+03  0.00000000000E+00 0. -1.
         -3    1    6    6    0  503 -0.35356119967E+03 -0.21965589628E+03  0.63598156002E+03  0.76008340291E+03  0.00000000000E+00 0.  1.
<mgrwt>
<rscale>  0 0.13974926E+04</rscale>
<asrwt>0</asrwt>
<pdfrwt beam="1">  1        2 0.18903195E+00 0.13974926E+04</pdfrwt>
<pdfrwt beam="2">  1       -1 0.61133201E-01 0.13974926E+04</pdfrwt>
<totfact> 0.54843194E+01</totfact>
</mgrwt>
</event>
<event>
12    7  0.1637954E-007  0.1713829E+04  0.7818608E-02  0.8753516E-01
         -1   -1    0    0    0  501 -0.00000000000E+00  0.00000000000E+00  0.30811292140E+03  0.30811292140E+03  0.00000000000E+00 0.  1.
          2   -1    0    0  501    0  0.00000000000E+00 -0.00000000000E+00 -0.23832254278E+04  0.23832254278E+04  0.00000000000E+00 0. -1.
         24    2    1    2    0    0  0.44612961882E+03  0.38625640688E+03 -0.10554854826E+04  0.12118720418E+04  0.79740786087E+02 0.  0.
        254    2    1    2    0    0 -0.44612961882E+03 -0.38625640688E+03 -0.10196270238E+04  0.14794663074E+04  0.89496124974E+03 0.  0.
         23    2    4    4    0    0 -0.37550655091E+03  0.20106122001E+03 -0.62640434749E+03  0.76236957316E+03  0.85989392172E+02 0.  0.
         23    2    4    4    0    0 -0.70623067908E+02 -0.58731762689E+03 -0.39322267629E+03  0.71709673426E+03  0.98356700635E+02 0.  0.
          2    1    3    3  502    0  0.27460833637E+03  0.20214154800E+03 -0.66513988718E+03  0.74745034173E+03  0.00000000000E+00 0. -1.
         -1    1    3    3    0  502  0.17152128244E+03  0.18411485888E+03 -0.39034559545E+03  0.46442170005E+03  0.00000000000E+00 0.  1.
         13    1    5    5    0    0 -0.33529880552E+03  0.20496699985E+03 -0.55040002097E+03  0.67629649053E+03  0.00000000000E+00 0. -1.
        -13    1    5    5    0    0 -0.40207745385E+02 -0.39057798451E+01 -0.76004326516E+02  0.86073082635E+02  0.00000000000E+00 0.  1.
          1    1    6    6  503    0 -0.16011915127E+02 -0.13766658434E+03 -0.14501471101E+03  0.20059346021E+03  0.00000000000E+00 0. -1.
         -1    1    6    6    0  503 -0.54611152781E+02 -0.44965104255E+03 -0.24820796528E+03  0.51650327405E+03  0.00000000000E+00 0.  1.
<mgrwt>
<rscale>  0 0.17138291E+04</rscale>
<asrwt>0</asrwt>
<pdfrwt beam="1">  1        2 0.36665008E+00 0.17138291E+04</pdfrwt>
<pdfrwt beam="2">  1       -1 0.47401987E-01 0.17138291E+04</pdfrwt>
<totfact> 0.19560785E+01</totfact>
</mgrwt>
</event>
<event>
12    7  0.1637954E-007  0.1694097E+04  0.7818608E-02  0.8764738E-01
         -1   -1    0    0    0  501 -0.00000000000E+00  0.00000000000E+00  0.47740980194E+03  0.47740980194E+03  0.00000000000E+00 0.  1.
          2   -1    0    0  501    0  0.00000000000E+00 -0.00000000000E+00 -0.15028836685E+04  0.15028836685E+04  0.00000000000E+00 0. -1.
         24    2    1    2    0    0  0.55210023714E+03 -0.19601512120E+03 -0.30990290652E+03  0.66759761263E+03  0.80063483148E+02 0.  0.
        254    2    1    2    0    0 -0.55210023714E+03  0.19601512120E+03 -0.71557096001E+03  0.13126958578E+04  0.93160722230E+03 0.  0.
         23    2    4    4    0    0 -0.42029415125E+03 -0.33517956848E+03 -0.34796313364E+03  0.64734706518E+03  0.94801707382E+02 0.  0.
         23    2    4    4    0    0 -0.13180608589E+03  0.53119468968E+03 -0.36760782637E+03  0.66534879261E+03  0.89514575336E+02 0.  0.
          4    1    3    3  502    0  0.33244486149E+03 -0.13560110937E+03 -0.22898245205E+03  0.42584059240E+03  0.00000000000E+00 0. -1.
         -3    1    3    3    0  502  0.21965537565E+03 -0.60414011830E+02 -0.80920454471E+02  0.24175702023E+03  0.00000000000E+00 0.  1.
         13    1    5    5    0    0 -0.23826826050E+03 -0.19947301766E+03 -0.14541194606E+03  0.34308290950E+03  0.00000000000E+00 0. -1.
        -13    1    5    5    0    0 -0.18202589075E+03 -0.13570655082E+03 -0.20255118759E+03  0.30426415568E+03  0.00000000000E+00 0.  1.
          2    1    6    6  503    0 -0.87457168414E+02  0.37240286207E+03 -0.30406199073E+03  0.48865769430E+03  0.00000000000E+00 0. -1.
         -2    1    6    6    0  503 -0.44348917480E+02  0.15879182761E+03 -0.63545835635E+02  0.17669109831E+03  0.00000000000E+00 0.  1.
<mgrwt>
<rscale>  0 0.16940973E+04</rscale>
<asrwt>0</asrwt>
<pdfrwt beam="1">  1        2 0.23121287E+00 0.16940973E+04</pdfrwt>
<pdfrwt beam="2">  1       -1 0.73447663E-01 0.16940973E+04</pdfrwt>
<totfact> 0.25622618E+01</totfact>
</mgrwt>
</event>
<event>
12    7  0.1637954E-007  0.2682343E+04  0.7818608E-02  0.8340757E-01
          2   -1    0    0  501    0  0.00000000000E+00  0.00000000000E+00  0.11460177580E+04  0.11460177580E+04  0.00000000000E+00 0. -1.
         -1   -1    0    0    0  501 -0.00000000000E+00 -0.00000000000E+00 -0.15695575210E+04  0.15695575210E+04  0.00000000000E+00 0.  1.
         24    2    1    2    0    0  0.11193277261E+04 -0.35324844296E+03 -0.35169131324E+03  0.12278872255E+04  0.79631888787E+02 0.  0.
        254    2    1    2    0    0 -0.11193277261E+04  0.35324844296E+03 -0.71848449709E+02  0.14876880535E+04  0.91124888137E+03 0.  0.
         23    2    4    4    0    0 -0.61709817692E+03  0.60272036978E+03 -0.22921517271E+03  0.89750094272E+03  0.94267399866E+02 0.  0.
         23    2    4    4    0    0 -0.50222954922E+03 -0.24947192682E+03  0.15736672300E+03  0.59018711077E+03  0.95319346533E+02 0.  0.
          4    1    3    3  502    0  0.42045746422E+03 -0.10473422380E+03 -0.15867089047E+03  0.46144359172E+03  0.00000000000E+00 0. -1.
         -3    1    3    3    0  502  0.69887026193E+03 -0.24851421915E+03 -0.19302042277E+03  0.76644363376E+03  0.00000000000E+00 0.  1.
         13    1    5    5    0    0 -0.51955617870E+02  0.24246626156E+02 -0.15635496490E+01  0.57356166153E+02  0.00000000000E+00 0. -1.
        -13    1    5    5    0    0 -0.56514255905E+03  0.57847374362E+03 -0.22765162306E+03  0.84014477657E+03  0.00000000000E+00 0.  1.
          3    1    6    6  503    0 -0.83364548109E+02 -0.79257174697E+01  0.80034835026E+01  0.84122057910E+02  0.00000000000E+00 0. -1.
         -3    1    6    6    0  503 -0.41886500111E+03 -0.24154620935E+03  0.14936323950E+03  0.50606505286E+03  0.00000000000E+00 0.  1.
<mgrwt>
<rscale>  0 0.26823429E+04</rscale>
<asrwt>0</asrwt>
<pdfrwt beam="1">  1        2 0.17631043E+00 0.26823429E+04</pdfrwt>
<pdfrwt beam="2">  1       -1 0.24147039E+00 0.26823429E+04</pdfrwt>
<totfact> 0.16207083E+00</totfact>
</mgrwt>
</event>
<event>
12    7  0.1637954E-007  0.1536675E+04  0.7818608E-02  0.8860424E-01
         -1   -1    0    0    0  501 -0.00000000000E+00  0.00000000000E+00  0.50349659227E+03  0.50349659227E+03  0.00000000000E+00 0.  1.
          2   -1    0    0  501    0  0.00000000000E+00 -0.00000000000E+00 -0.11724862842E+04  0.11724862842E+04  0.00000000000E+00 0. -1.
         24    2    1    2    0    0  0.30641126160E+03  0.22746444880E+03 -0.58225708901E+03  0.70072872328E+03  0.79809079916E+02 0.  0.
        254    2    1    2    0    0 -0.30641126160E+03 -0.22746444880E+03 -0.86732602947E+02  0.97525415321E+03  0.89329176770E+03 0.  0.
         23    2    4    4    0    0 -0.11128847516E+03 -0.54735460071E+03  0.44197529606E+02  0.56776164329E+03  0.91747906498E+02 0.  0.
         23    2    4    4    0    0 -0.19512278644E+03  0.31989015191E+03 -0.13093013255E+03  0.40749250992E+03  0.92221662059E+02 0.  0.
          2    1    3    3  502    0  0.16658422483E+03  0.90380860175E+02 -0.33973500306E+03  0.38902297638E+03  0.00000000000E+00 0. -1.
         -1    1    3    3    0  502  0.13982703677E+03  0.13708358862E+03 -0.24252208595E+03  0.31170574690E+03  0.00000000000E+00 0.  1.
         13    1    5    5    0    0 -0.12499065287E+03 -0.51344085180E+03  0.32811628657E+02  0.52945327894E+03  0.00000000000E+00 0. -1.
        -13    1    5    5    0    0  0.13702177708E+02 -0.33913748910E+02  0.11385900948E+02  0.38308364354E+02  0.00000000000E+00 0.  1.
          1    1    6    6  503    0 -0.46246667453E+02  0.16370349168E+03 -0.57288655032E+02  0.17949812654E+03  0.00000000000E+00 0. -1.
         -1    1    6    6    0  503 -0.14887611898E+03  0.15618666024E+03 -0.73641477521E+02  0.22799438338E+03  0.00000000000E+00 0.  1.
<mgrwt>
<rscale>  0 0.15366754E+04</rscale>
<asrwt>0</asrwt>
<pdfrwt beam="1">  1        2 0.18038251E+00 0.15366754E+04</pdfrwt>
<pdfrwt beam="2">  1       -1 0.77461014E-01 0.15366754E+04</pdfrwt>
<totfact> 0.36118361E+01</totfact>
</mgrwt>
</event>
<event>
12    7  0.1637954E-007  0.1600023E+04  0.7818608E-02  0.8820534E-01
         -1   -1    0    0    0  501 -0.00000000000E+00  0.00000000000E+00  0.15165159080E+04  0.15165159080E+04  0.00000000000E+00 0.  1.
          2   -1    0    0  501    0  0.00000000000E+00 -0.00000000000E+00 -0.42203231733E+03  0.42203231733E+03  0.00000000000E+00 0. -1.
         24    2    1    2    0    0 -0.28200963933E+03 -0.94126453426E+02 -0.12409519933E+03  0.33201872948E+03  0.80296901053E+02 0.  0.
        254    2    1    2    0    0  0.28200963933E+03  0.94126453426E+02  0.12185787900E+04  0.16065294958E+04  0.10037995456E+04 0.  0.
         23    2    4    4    0    0  0.58027322409E+03  0.88488270674E+02  0.11383188500E+04  0.12839692282E+04  0.90884465545E+02 0.  0.
         23    2    4    4    0    0 -0.29826358476E+03  0.56381827523E+01  0.80259939944E+02  0.32256026760E+03  0.92792850913E+02 0.  0.
          4    1    3    3  502    0 -0.13721169262E+03 -0.79827141002E+01 -0.36914716715E+02  0.14231468170E+03  0.00000000000E+00 0. -1.
         -3    1    3    3    0  502 -0.14479794671E+03 -0.86143739326E+02 -0.87180482614E+02  0.18970404778E+03  0.00000000000E+00 0.  1.
         13    1    5    5    0    0  0.55975326503E+02  0.36816428887E+02  0.11981015265E+03  0.13727038753E+03  0.00000000000E+00 0.  1.
        -13    1    5    5    0    0  0.52429789758E+03  0.51671841787E+02  0.10185086974E+04  0.11466988407E+04  0.00000000000E+00 0. -1.
          3    1    6    6  503    0 -0.29690990853E+03  0.20055768729E+02  0.73236092712E+02  0.30646574510E+03  0.00000000000E+00 0. -1.
         -3    1    6    6    0  503 -0.13536762244E+01 -0.14417585977E+02  0.70238472316E+01  0.16094522504E+02  0.00000000000E+00 0.  1.
<mgrwt>
<rscale>  0 0.16000234E+04</rscale>
<asrwt>0</asrwt>
<pdfrwt beam="1">  1        2 0.64928049E-01 0.16000234E+04</pdfrwt>
<pdfrwt beam="2">  1       -1 0.23331014E+00 0.16000234E+04</pdfrwt>
<totfact> 0.73655727E+00</totfact>
</mgrwt>
</event>
<event>
12    7  0.1637954E-007  0.1904398E+04  0.7818608E-02  0.8652670E-01
         -1   -1    0    0    0  501 -0.00000000000E+00  0.00000000000E+00  0.44883211456E+03  0.44883211456E+03  0.00000000000E+00 0.  1.
          2   -1    0    0  501    0  0.00000000000E+00 -0.00000000000E+00 -0.20200938655E+04  0.20200938655E+04  0.00000000000E+00 0. -1.
         24    2    1    2    0    0  0.65191327391E+03 -0.20393433006E+03 -0.96906909358E+03  0.11882566894E+04  0.79239662359E+02 0.  0.
        254    2    1    2    0    0 -0.65191327391E+03  0.20393433006E+03 -0.60219265740E+03  0.12806692907E+04  0.90049858848E+03 0.  0.
         23    2    4    4    0    0 -0.47647774515E+03  0.36034531023E+03 -0.76878754706E+03  0.97807809294E+03  0.93395284444E+02 0.  0.
         23    2    4    4    0    0 -0.17543552876E+03 -0.15641098017E+03  0.16659488966E+03  0.30259119776E+03  0.92550290297E+02 0.  0.
          2    1    3    3  502    0  0.17847202877E+03 -0.46292146727E+02 -0.20542129330E+03  0.27603104108E+03  0.00000000000E+00 0. -1.
         -1    1    3    3    0  502  0.47344124514E+03 -0.15764218333E+03 -0.76364780028E+03  0.91222564832E+03  0.00000000000E+00 0.  1.
         13    1    5    5    0    0 -0.27376080690E+03  0.22976771892E+03 -0.52563828574E+03  0.63563652467E+03  0.00000000000E+00 0. -1.
        -13    1    5    5    0    0 -0.20271693825E+03  0.13057759131E+03 -0.24314926131E+03  0.34244156827E+03  0.00000000000E+00 0.  1.
          2    1    6    6  503    0 -0.84094531362E+02 -0.10898513654E+03  0.13989315931E+03  0.19626448027E+03  0.00000000000E+00 0. -1.
         -2    1    6    6    0  503 -0.91340997402E+02 -0.47425843626E+02  0.26701730344E+02  0.10632671750E+03  0.00000000000E+00 0.  1.
<mgrwt>
<rscale>  0 0.19043981E+04</rscale>
<asrwt>0</asrwt>
<pdfrwt beam="1">  1        2 0.31078368E+00 0.19043981E+04</pdfrwt>
<pdfrwt beam="2">  1       -1 0.69051093E-01 0.19043981E+04</pdfrwt>
<totfact> 0.14728792E+01</totfact>
</mgrwt>
</event>
<event>
12    7  0.1637954E-007  0.1435181E+04  0.7818608E-02  0.8928739E-01
          2   -1    0    0  501    0  0.00000000000E+00  0.00000000000E+00  0.24672587029E+04  0.24672587029E+04  0.00000000000E+00 0. -1.
         -1   -1    0    0    0  501 -0.00000000000E+00 -0.00000000000E+00 -0.20870785504E+03  0.20870785504E+03  0.00000000000E+00 0.  1.
         24    2    1    2    0    0 -0.35187008485E+03  0.96636413551E+02  0.15760751818E+04  0.16197995331E+04  0.81156611545E+02 0.  0.
        254    2    1    2    0    0  0.35187008485E+03 -0.96636413551E+02  0.68247566610E+03  0.10561670249E+04  0.71872428418E+03 0.  0.
         23    2    4    4    0    0  0.34586516080E+02 -0.36150041713E+03  0.39600984798E+03  0.54495478491E+03  0.90956798660E+02 0.  0.
         23    2    4    4    0    0  0.31728356877E+03  0.26486400358E+03  0.28646581812E+03  0.51121224001E+03  0.91942840840E+02 0.  0.
          2    1    3    3  502    0 -0.15071289639E+03  0.10488239801E+02  0.53181653328E+03  0.55285911893E+03  0.00000000000E+00 0. -1.
         -1    1    3    3    0  502 -0.20115718845E+03  0.86148173750E+02  0.10442586485E+04  0.10669404141E+04  0.00000000000E+00 0.  1.
         13    1    5    5    0    0 -0.18048876761E+02 -0.26497027552E+02  0.16666453421E+02  0.36133434532E+02  0.00000000000E+00 0. -1.
        -13    1    5    5    0    0  0.52635392840E+02 -0.33500338957E+03  0.37934339456E+03  0.50882135038E+03  0.00000000000E+00 0.  1.
          1    1    6    6  503    0  0.37212503562E+02  0.76907583681E+02  0.69788543266E+02  0.11031766685E+03  0.00000000000E+00 0. -1.
         -1    1    6    6    0  503  0.28007106521E+03  0.18795641989E+03  0.21667727485E+03  0.40089457315E+03  0.00000000000E+00 0.  1.
<mgrwt>
<rscale>  0 0.14351812E+04</rscale>
<asrwt>0</asrwt>
<pdfrwt beam="1">  1        2 0.37957824E+00 0.14351812E+04</pdfrwt>
<pdfrwt beam="2">  1       -1 0.32108902E-01 0.14351812E+04</pdfrwt>
<totfact> 0.36501619E+01</totfact>
</mgrwt>
</event>
<event>
12    7  0.1637954E-007  0.1270439E+04  0.7818608E-02  0.9053341E-01
         -1   -1    0    0    0  501 -0.00000000000E+00  0.00000000000E+00  0.99431403494E+03  0.99431403494E+03  0.00000000000E+00 0.  1.
          2   -1    0    0  501    0  0.00000000000E+00 -0.00000000000E+00 -0.40581142949E+03  0.40581142949E+03  0.00000000000E+00 0. -1.
         24    2    1    2    0    0  0.18326685771E+03  0.12345169886E+03 -0.92906912958E+02  0.25255138123E+03  0.79520076724E+02 0.  0.
        254    2    1    2    0    0 -0.18326685771E+03 -0.12345169886E+03  0.68140951841E+03  0.11475740832E+04  0.89653794207E+03 0.  0.
         23    2    4    4    0    0  0.83554204384E+02 -0.18624826238E+03 -0.15055421619E+03  0.26687927239E+03  0.82995504152E+02 0.  0.
         23    2    4    4    0    0 -0.26682106209E+03  0.62796563513E+02  0.83196373460E+03  0.88069481082E+03  0.91229417108E+02 0.  0.
          2    1    3    3  502    0  0.13581616788E+03  0.12099083357E+03 -0.50269044071E+02  0.18871086364E+03  0.00000000000E+00 0. -1.
         -1    1    3    3    0  502  0.47450689827E+02  0.24608652937E+01 -0.42637868887E+02  0.63840517591E+02  0.00000000000E+00 0.  1.
         13    1    5    5    0    0  0.63112840022E+02 -0.11719578223E+03 -0.47861574820E+02  0.14145250896E+03  0.00000000000E+00 0.  1.
        -13    1    5    5    0    0  0.20441364361E+02 -0.69052480145E+02 -0.10269264137E+03  0.12542676342E+03  0.00000000000E+00 0. -1.
          1    1    6    6  503    0 -0.13581348673E+03  0.48611115968E+02  0.56299372293E+03  0.58118007178E+03  0.00000000000E+00 0. -1.
         -1    1    6    6    0  503 -0.13100757536E+03  0.14185447545E+02  0.26897001167E+03  0.29951473903E+03  0.00000000000E+00 0.  1.
<mgrwt>
<rscale>  0 0.12704393E+04</rscale>
<asrwt>0</asrwt>
<pdfrwt beam="1">  1        2 0.62432528E-01 0.12704393E+04</pdfrwt>
<pdfrwt beam="2">  1       -1 0.15297139E+00 0.12704393E+04</pdfrwt>
<totfact> 0.29090801E+01</totfact>
</mgrwt>
</event>
<event>
12    7  0.1637954E-007  0.1777163E+04  0.7818608E-02  0.8718539E-01
         -1   -1    0    0    0  501 -0.00000000000E+00  0.00000000000E+00  0.81443389492E+03  0.81443389492E+03  0.00000000000E+00 0.  1.
          2   -1    0    0  501    0  0.00000000000E+00 -0.00000000000E+00 -0.96947949130E+03  0.96947949130E+03  0.00000000000E+00 0. -1.
         24    2    1    2    0    0  0.10633003317E+03 -0.65735513354E+03  0.15793344601E+02  0.67069869362E+03  0.78520445406E+02 0.  0.
        254    2    1    2    0    0 -0.10633003317E+03  0.65735513354E+03 -0.17083894097E+03  0.11132146926E+04  0.87557932851E+03 0.  0.
         23    2    4    4    0    0 -0.27091446591E+03  0.76897165077E+03 -0.28302010172E+03  0.86785375865E+03  0.91420571469E+02 0.  0.
         23    2    4    4    0    0  0.16458443275E+03 -0.11161651723E+03  0.11218116074E+03  0.24536093395E+03  0.89839260147E+02 0.  0.
          4    1    3    3  502    0  0.10929717657E+03 -0.53452073086E+03 -0.75388446905E+01  0.54563276909E+03  0.00000000000E+00 0. -1.
         -3    1    3    3    0  502 -0.29671434035E+01 -0.12283440268E+03  0.23332189291E+02  0.12506592453E+03  0.00000000000E+00 0.  1.
         13    1    5    5    0    0 -0.26723925716E+03  0.72513109876E+03 -0.28532904339E+03  0.82379887956E+03  0.00000000000E+00 0. -1.
        -13    1    5    5    0    0 -0.36752087558E+01  0.43840552008E+02  0.23089416715E+01  0.44054879087E+02  0.00000000000E+00 0.  1.
          2    1    6    6  503    0  0.38202748431E+02 -0.67466448802E+02  0.71441057163E+02  0.10542768304E+03  0.00000000000E+00 0.  1.
         -2    1    6    6    0  503  0.12638168432E+03 -0.44150068429E+02  0.40740103577E+02  0.13993325092E+03  0.00000000000E+00 0. -1.
<mgrwt>
<rscale>  0 0.17771629E+04</rscale>
<asrwt>0</asrwt>
<pdfrwt beam="1">  1        2 0.14915069E+00 0.17771629E+04</pdfrwt>
<pdfrwt beam="2">  1       -1 0.12529752E+00 0.17771629E+04</pdfrwt>
<totfact> 0.15828481E+01</totfact>
</mgrwt>
</event>
<event>
12    7  0.1637954E-007  0.1244332E+04  0.7818608E-02  0.9074914E-01
         -1   -1    0    0    0  501 -0.00000000000E+00  0.00000000000E+00  0.20306973993E+03  0.20306973993E+03  0.00000000000E+00 0.  1.
          2   -1    0    0  501    0  0.00000000000E+00 -0.00000000000E+00 -0.19061936934E+04  0.19061936934E+04  0.00000000000E+00 0. -1.
         24    2    1    2    0    0 -0.25598207339E+03 -0.21658060005E+02 -0.23175261573E+03  0.35598032013E+03  0.83766460850E+02 0.  0.
        254    2    1    2    0    0  0.25598207339E+03  0.21658060005E+02 -0.14713713378E+04  0.17532831132E+04  0.91818961443E+03 0.  0.
         23    2    4    4    0    0 -0.71093203410E+02 -0.28842322390E+03 -0.13466431493E+03  0.33975488890E+03  0.95166733494E+02 0.  0.
         23    2    4    4    0    0  0.32707527680E+03  0.31008128390E+03 -0.13367070228E+04  0.14135282243E+04  0.90264814449E+02 0.  0.
          4    1    3    3  502    0 -0.67852054862E+02 -0.47338898815E+01 -0.17261602123E+02  0.70173171299E+02  0.00000000000E+00 0. -1.
         -3    1    3    3    0  502 -0.18813001853E+03 -0.16924170124E+02 -0.21449101360E+03  0.28580714883E+03  0.00000000000E+00 0.  1.
         13    1    5    5    0    0 -0.82232711948E+02 -0.20920246304E+03 -0.65851458011E+02  0.23423130444E+03  0.00000000000E+00 0. -1.
        -13    1    5    5    0    0  0.11139508538E+02 -0.79220760858E+02 -0.68812856919E+02  0.10552358447E+03  0.00000000000E+00 0.  1.
          1    1    6    6  503    0  0.31474756305E+03  0.31140656445E+03 -0.13226148318E+04  0.13947580686E+04  0.00000000000E+00 0. -1.
         -1    1    6    6    0  503  0.12327713755E+02 -0.13252805535E+01 -0.14092191057E+02  0.18770155667E+02  0.00000000000E+00 0.  1.
<mgrwt>
<rscale>  0 0.12443316E+04</rscale>
<asrwt>0</asrwt>
<pdfrwt beam="1">  1        2 0.29326057E+00 0.12443316E+04</pdfrwt>
<pdfrwt beam="2">  1       -1 0.31241498E-01 0.12443316E+04</pdfrwt>
<totfact> 0.80263881E+01</totfact>
</mgrwt>
</event>
<event>
12    7  0.1637954E-007  0.1513171E+04  0.7818608E-02  0.8875741E-01
         -1   -1    0    0    0  501 -0.00000000000E+00  0.00000000000E+00  0.19202467910E+03  0.19202467910E+03  0.00000000000E+00 0.  1.
          2   -1    0    0  501    0  0.00000000000E+00 -0.00000000000E+00 -0.29809812653E+04  0.29809812653E+04  0.00000000000E+00 0. -1.
         24    2    1    2    0    0 -0.28530203901E+03 -0.73962375774E+02 -0.17159111071E+04  0.17428945633E+04  0.80391820544E+02 0.  0.
        254    2    1    2    0    0  0.28530203901E+03  0.73962375774E+02 -0.10730454792E+04  0.14301113812E+04  0.89828963907E+03 0.  0.
         23    2    4    4    0    0  0.20423882675E+03  0.23268143310E+03  0.15582407297E+02  0.32329350075E+03  0.91769976269E+02 0.  0.
         23    2    4    4    0    0  0.81063212254E+02 -0.15871905733E+03 -0.10886278865E+04  0.11068178804E+04  0.90400009263E+02 0.  0.
          2    1    3    3  502    0 -0.25799823864E+03 -0.85526929712E+02 -0.14428496237E+04  0.14682278377E+04  0.00000000000E+00 0. -1.
         -1    1    3    3    0  502 -0.27303800364E+02  0.11564553938E+02 -0.27306148337E+03  0.27466672555E+03  0.00000000000E+00 0.  1.
         13    1    5    5    0    0  0.14596903654E+03  0.13086393103E+03  0.47505332843E+02  0.20171535569E+03  0.00000000000E+00 0. -1.
        -13    1    5    5    0    0  0.58269790209E+02  0.10181750207E+03 -0.31922925546E+02  0.12157814505E+03  0.00000000000E+00 0.  1.
          2    1    6    6  503    0  0.12339986672E+02  0.84917908471E+01 -0.16398728056E+03  0.16467001539E+03  0.00000000000E+00 0. -1.
         -2    1    6    6    0  503  0.68723225582E+02 -0.16721084818E+03 -0.92464060589E+03  0.94214786501E+03  0.00000000000E+00 0.  1.
<mgrwt>
<rscale>  0 0.15131715E+04</rscale>
<asrwt>0</asrwt>
<pdfrwt beam="1">  1        2 0.45861248E+00 0.15131715E+04</pdfrwt>
<pdfrwt beam="2">  1       -1 0.29542260E-01 0.15131715E+04</pdfrwt>
<totfact> 0.20763836E+01</totfact>
</mgrwt>
</event>
<event>
12    7  0.1637954E-007  0.2803373E+04  0.7818608E-02  0.8302222E-01
          2   -1    0    0  501    0  0.00000000000E+00  0.00000000000E+00  0.15354590077E+04  0.15354590077E+04  0.00000000000E+00 0. -1.
         -1   -1    0    0    0  501 -0.00000000000E+00 -0.00000000000E+00 -0.12795687559E+04  0.12795687559E+04  0.00000000000E+00 0.  1.
         24    2    1    2    0    0 -0.21945548917E+03  0.66178881850E+03 -0.93422845328E+03  0.11684465134E+04  0.79745218272E+02 0.  0.
        254    2    1    2    0    0  0.21945548917E+03 -0.66178881850E+03  0.11901187051E+04  0.16465812501E+04  0.89928979152E+03 0.  0.
         23    2    4    4    0    0  0.55308536739E+01 -0.79995688874E+03  0.10954722749E+04  0.13597668785E+04  0.94577189478E+02 0.  0.
         23    2    4    4    0    0  0.21392463550E+03  0.13816807023E+03  0.94646430211E+02  0.28681437162E+03  0.91925903361E+02 0.  0.
          4    1    3    3  502    0 -0.42843903948E+02  0.10678865030E+03 -0.10983376873E+03  0.15906876718E+03  0.00000000000E+00 0. -1.
         -3    1    3    3    0  502 -0.17661158522E+03  0.55500016821E+03 -0.82439468455E+03  0.10093777463E+04  0.00000000000E+00 0.  1.
         13    1    5    5    0    0  0.35704768852E+02 -0.62759855868E+03  0.89455049975E+03  0.10933322359E+04  0.00000000000E+00 0.  1.
        -13    1    5    5    0    0 -0.30173915178E+02 -0.17235833006E+03  0.20092177511E+03  0.26643464266E+03  0.00000000000E+00 0. -1.
          3    1    6    6  503    0  0.61371501368E+01 -0.12588010354E+02  0.58165181556E+01  0.15164250721E+02  0.00000000000E+00 0. -1.
         -3    1    6    6    0  503  0.20778748536E+03  0.15075608059E+03  0.88829912055E+02  0.27165012090E+03  0.00000000000E+00 0.  1.
<mgrwt>
<rscale>  0 0.28033732E+04</rscale>
<asrwt>0</asrwt>
<pdfrwt beam="1">  1        2 0.23622446E+00 0.28033732E+04</pdfrwt>
<pdfrwt beam="2">  1       -1 0.19685673E+00 0.28033732E+04</pdfrwt>
<totfact> 0.19002114E+00</totfact>
</mgrwt>
</event>
<event>
12    7  0.1637954E-007  0.1957848E+04  0.7818608E-02  0.8626586E-01
         -1   -1    0    0    0  501 -0.00000000000E+00  0.00000000000E+00  0.35677575014E+03  0.35677575014E+03  0.00000000000E+00 0.  1.
          2   -1    0    0  501    0  0.00000000000E+00 -0.00000000000E+00 -0.26859798470E+04  0.26859798470E+04  0.00000000000E+00 0. -1.
         24    2    1    2    0    0  0.26285494837E+03  0.23111136399E+03  0.14281507696E+03  0.38658318550E+03  0.80902575101E+02 0.  0.
        254    2    1    2    0    0 -0.26285494837E+03 -0.23111136399E+03 -0.24720191739E+04  0.26561724117E+04  0.90656930132E+03 0.  0.
         23    2    4    4    0    0  0.26177739566E+03 -0.27755225119E+03 -0.14506238775E+04  0.15032645889E+04  0.99660088633E+02 0.  0.
         23    2    4    4    0    0 -0.52463234403E+03  0.46440887203E+02 -0.10213952964E+04  0.11529078227E+04  0.92478343052E+02 0.  0.
          4    1    3    3  502    0  0.12178103960E+02  0.13673772192E+02  0.31746530346E+02  0.36648607764E+02  0.00000000000E+00 0. -1.
         -3    1    3    3    0  502  0.25067684441E+03  0.21743759180E+03  0.11106854662E+03  0.34993457774E+03  0.00000000000E+00 0.  1.
         13    1    5    5    0    0  0.11000229119E+03 -0.66697128772E+02 -0.60968801264E+03  0.62311193522E+03  0.00000000000E+00 0. -1.
        -13    1    5    5    0    0  0.15177510447E+03 -0.21085512242E+03 -0.84093586486E+03  0.88015265369E+03  0.00000000000E+00 0.  1.
          3    1    6    6  503    0 -0.45072330439E+03  0.13283257671E+02 -0.81945241137E+03  0.93532357853E+03  0.00000000000E+00 0. -1.
         -3    1    6    6    0  503 -0.73909039646E+02  0.33157629532E+02 -0.20194288498E+03  0.21758424422E+03  0.00000000000E+00 0.  1.
<mgrwt>
<rscale>  0 0.19578483E+04</rscale>
<asrwt>0</asrwt>
<pdfrwt beam="1">  1        2 0.41322767E+00 0.19578483E+04</pdfrwt>
<pdfrwt beam="2">  1       -1 0.54888577E-01 0.19578483E+04</pdfrwt>
<totfact> 0.96479215E+00</totfact>
</mgrwt>
</event>
<event>
12    7  0.1637954E-007  0.1953647E+04  0.7818608E-02  0.8628604E-01
         -1   -1    0    0    0  501 -0.00000000000E+00  0.00000000000E+00  0.70827197438E+03  0.70827197438E+03  0.00000000000E+00 0.  1.
          2   -1    0    0  501    0  0.00000000000E+00 -0.00000000000E+00 -0.13472005727E+04  0.13472005727E+04  0.00000000000E+00 0. -1.
         24    2    1    2    0    0  0.48167834138E+03 -0.32124796635E+03 -0.78646044378E+03  0.97949856691E+03  0.75386553924E+02 0.  0.
        254    2    1    2    0    0 -0.48167834138E+03  0.32124796635E+03  0.14753184542E+03  0.10759739802E+04  0.89484081280E+03 0.  0.
         23    2    4    4    0    0  0.56240568611E+02 -0.17601824097E+03 -0.17383720004E+03  0.26988735322E+03  0.92056442469E+02 0.  0.
         23    2    4    4    0    0 -0.53791890999E+03  0.49726620732E+03  0.32136904547E+03  0.80608662699E+03  0.99333539979E+02 0.  0.
          2    1    3    3  502    0  0.27417087857E+03 -0.14000892177E+03 -0.43524831380E+03  0.53311655714E+03  0.00000000000E+00 0. -1.
         -1    1    3    3    0  502  0.20750746281E+03 -0.18123904458E+03 -0.35121212998E+03  0.44638200977E+03  0.00000000000E+00 0.  1.
         13    1    5    5    0    0  0.54879442800E+02 -0.18722845932E+03 -0.16297464655E+03  0.25421837982E+03  0.00000000000E+00 0. -1.
        -13    1    5    5    0    0  0.13611258110E+01  0.11210218354E+02 -0.10862553495E+02  0.15668973401E+02  0.00000000000E+00 0.  1.
          3    1    6    6  503    0 -0.34084142889E+03  0.36802675428E+03  0.19092390938E+03  0.53672014187E+03  0.00000000000E+00 0. -1.
         -3    1    6    6    0  503 -0.19707748110E+03  0.12923945303E+03  0.13044513609E+03  0.26936648512E+03  0.00000000000E+00 0.  1.
<mgrwt>
<rscale>  0 0.19536473E+04</rscale>
<asrwt>0</asrwt>
<pdfrwt beam="1">  1        2 0.20726163E+00 0.19536473E+04</pdfrwt>
<pdfrwt beam="2">  1       -1 0.10896492E+00 0.19536473E+04</pdfrwt>
<totfact> 0.12874602E+01</totfact>
</mgrwt>
</event>
<event>
12    7  0.1637954E-007  0.1877069E+04  0.7818608E-02  0.8666356E-01
          2   -1    0    0  501    0  0.00000000000E+00  0.00000000000E+00  0.39081847565E+03  0.39081847565E+03  0.00000000000E+00 0. -1.
         -1   -1    0    0    0  501 -0.00000000000E+00 -0.00000000000E+00 -0.22538516078E+04  0.22538516078E+04  0.00000000000E+00 0.  1.
         24    2    1    2    0    0  0.61887144530E+03 -0.14543006073E+03 -0.11995585397E+04  0.13599441416E+04  0.79722078411E+02 0.  0.
        254    2    1    2    0    0 -0.61887144530E+03  0.14543006073E+03 -0.66347459247E+03  0.12847259419E+04  0.89786994741E+03 0.  0.
         23    2    4    4    0    0  0.36593766782E+02 -0.17592565819E+03 -0.48820279412E+03  0.52826877933E+03  0.91853111265E+02 0.  0.
         23    2    4    4    0    0 -0.65546521208E+03  0.32135571892E+03 -0.17527179835E+03  0.75645716253E+03  0.92752860454E+02 0.  0.
          4    1    3    3  502    0  0.41876170331E+02 -0.28016499643E+01 -0.46009394509E+02  0.62276217509E+02  0.00000000000E+00 0. -1.
         -3    1    3    3    0  502  0.57699527497E+03 -0.14262841077E+03 -0.11535491452E+04  0.12976679241E+04  0.00000000000E+00 0.  1.
         13    1    5    5    0    0 -0.13994973899E+02 -0.11191497264E+02 -0.11296979708E+02  0.21183263581E+02  0.00000000000E+00 0. -1.
        -13    1    5    5    0    0  0.50588740681E+02 -0.16473416092E+03 -0.47690581441E+03  0.50708551575E+03  0.00000000000E+00 0.  1.
          2    1    6    6  503    0 -0.82958269822E+02  0.66530767243E+02 -0.49523504231E+02  0.11730726744E+03  0.00000000000E+00 0. -1.
         -2    1    6    6    0  503 -0.57250694226E+03  0.25482495167E+03 -0.12574829412E+03  0.63914989510E+03  0.00000000000E+00 0.  1.
<mgrwt>
<rscale>  0 0.18770688E+04</rscale>
<asrwt>0</asrwt>
<pdfrwt beam="1">  1        2 0.60125919E-01 0.18770688E+04</pdfrwt>
<pdfrwt beam="2">  1       -1 0.34674640E+00 0.18770688E+04</pdfrwt>
<totfact> 0.14327117E+00</totfact>
</mgrwt>
</event>
<event>
12    7  0.1637954E-007  0.1590152E+04  0.7818608E-02  0.8826621E-01
          2   -1    0    0  501    0  0.00000000000E+00  0.00000000000E+00  0.16111105358E+04  0.16111105358E+04  0.00000000000E+00 0. -1.
         -1   -1    0    0    0  501 -0.00000000000E+00 -0.00000000000E+00 -0.39236669382E+03  0.39236669382E+03  0.00000000000E+00 0.  1.
         24    2    1    2    0    0  0.12519008658E+03  0.42449091672E+03  0.33733053923E+02  0.45107131837E+03  0.80388551300E+02 0.  0.
        254    2    1    2    0    0 -0.12519008658E+03 -0.42449091672E+03  0.11850107881E+04  0.15524059113E+04  0.89991580124E+03 0.  0.
         23    2    4    4    0    0  0.14573366429E+03  0.49688104276E+02  0.92176479831E+03  0.93910216303E+03  0.92494976035E+02 0.  0.
         23    2    4    4    0    0 -0.27092375086E+03 -0.47417902099E+03  0.26324598979E+03  0.61330374826E+03  0.92723318283E+02 0.  0.
          4    1    3    3  502    0 -0.63474299246E+01  0.49041509366E+02  0.18996771790E+02  0.52973926096E+02  0.00000000000E+00 0. -1.
         -3    1    3    3    0  502  0.13153751650E+03  0.37544940735E+03  0.14736282133E+02  0.39809739228E+03  0.00000000000E+00 0.  1.
         13    1    5    5    0    0 -0.10050620139E+02 -0.63574202994E+01  0.10898535654E+03  0.10963229313E+03  0.00000000000E+00 0.  1.
        -13    1    5    5    0    0  0.15578428443E+03  0.56045524575E+02  0.81277944177E+03  0.82946986990E+03  0.00000000000E+00 0. -1.
          4    1    6    6  503    0 -0.42275172012E+01 -0.25019958655E+02  0.35035585544E+02  0.43259247419E+02  0.00000000000E+00 0.  1.
         -4    1    6    6    0  503 -0.26669623366E+03 -0.44915906234E+03  0.22821040425E+03  0.57004450084E+03  0.00000000000E+00 0. -1.
<mgrwt>
<rscale>  0 0.15901523E+04</rscale>
<asrwt>0</asrwt>
<pdfrwt beam="1">  1        2 0.24786316E+00 0.15901523E+04</pdfrwt>
<pdfrwt beam="2">  1       -1 0.60364107E-01 0.15901523E+04</pdfrwt>
<totfact> 0.33448224E+01</totfact>
</mgrwt>
</event>
<event>
12    7  0.1637954E-007  0.1771114E+04  0.7818608E-02  0.8721813E-01
          2   -1    0    0  501    0  0.00000000000E+00  0.00000000000E+00  0.89588285357E+03  0.89588285357E+03  0.00000000000E+00 0. -1.
         -1   -1    0    0    0  501 -0.00000000000E+00 -0.00000000000E+00 -0.87535034263E+03  0.87535034263E+03  0.00000000000E+00 0.  1.
         24    2    1    2    0    0  0.22761113190E+03  0.22945017220E+03  0.57235225576E+03  0.66208151103E+03  0.79439371165E+02 0.  0.
        254    2    1    2    0    0 -0.22761113190E+03 -0.22945017220E+03 -0.55181974482E+03  0.11091516852E+04  0.90623298387E+03 0.  0.
         23    2    4    4    0    0  0.31626413862E+03 -0.24586472801E+03 -0.24112420516E+03  0.47607129397E+03  0.89613195261E+02 0.  0.
         23    2    4    4    0    0 -0.54387527052E+03  0.16414555816E+02 -0.31069553966E+03  0.63308039120E+03  0.90494838696E+02 0.  0.
          4    1    3    3  502    0  0.21043553020E+03  0.22929759267E+03  0.56083306640E+03  0.64140020793E+03  0.00000000000E+00 0. -1.
         -3    1    3    3    0  502  0.17175601698E+02  0.15257953024E+00  0.11519189361E+02  0.20681303096E+02  0.00000000000E+00 0.  1.
         13    1    5    5    0    0  0.26926449425E+03 -0.16740683173E+03 -0.16704124257E+03  0.35837297874E+03  0.00000000000E+00 0.  1.
        -13    1    5    5    0    0  0.46999644373E+02 -0.78457896283E+02 -0.74082962593E+02  0.11769831523E+03  0.00000000000E+00 0. -1.
          4    1    6    6  503    0 -0.15191717450E+03  0.43827482430E+02 -0.10228799309E+03  0.18831492149E+03  0.00000000000E+00 0. -1.
         -4    1    6    6    0  503 -0.39195809602E+03 -0.27412926614E+02 -0.20840754657E+03  0.44476546971E+03  0.00000000000E+00 0.  1.
<mgrwt>
<rscale>  0 0.17711142E+04</rscale>
<asrwt>0</asrwt>
<pdfrwt beam="1">  1        2 0.13782813E+00 0.17711142E+04</pdfrwt>
<pdfrwt beam="2">  1       -1 0.13466928E+00 0.17711142E+04</pdfrwt>
<totfact> 0.14773948E+01</totfact>
</mgrwt>
</event>
<event>
12    7  0.1637954E-007  0.1875687E+04  0.7818608E-02  0.8667054E-01
         -1   -1    0    0    0  501 -0.00000000000E+00  0.00000000000E+00  0.31630812010E+03  0.31630812010E+03  0.00000000000E+00 0.  1.
          2   -1    0    0  501    0  0.00000000000E+00 -0.00000000000E+00 -0.27806772073E+04  0.27806772073E+04  0.00000000000E+00 0. -1.
         24    2    1    2    0    0 -0.34230500594E+03  0.42238739981E+02 -0.19899318371E+04  0.20211954902E+04  0.80284898889E+02 0.  0.
        254    2    1    2    0    0  0.34230500594E+03 -0.42238739981E+02 -0.47443725005E+03  0.10757898372E+04  0.90181829726E+03 0.  0.
         23    2    4    4    0    0  0.82389151268E+02  0.37077585267E+03 -0.42476589588E+03  0.57701031780E+03  0.90841264724E+02 0.  0.
         23    2    4    4    0    0  0.25991585467E+03 -0.41301459265E+03 -0.49671354176E+02  0.49877951937E+03  0.90423781579E+02 0.  0.
          4    1    3    3  502    0 -0.17457144417E+03 -0.89231504639E+01 -0.84268794867E+03  0.86062639430E+03  0.00000000000E+00 0. -1.
         -3    1    3    3    0  502 -0.16773356176E+03  0.51161890445E+02 -0.11472438885E+04  0.11605690959E+04  0.00000000000E+00 0.  1.
         13    1    5    5    0    0  0.33365803442E+02  0.90732688339E+02 -0.57208860503E+02  0.11233232523E+03  0.00000000000E+00 0. -1.
        -13    1    5    5    0    0  0.49023347826E+02  0.28004316433E+03 -0.36755703538E+03  0.46467799256E+03  0.00000000000E+00 0.  1.
          2    1    6    6  503    0  0.38221939222E+02 -0.33255840293E+02 -0.29406749241E+02  0.58580068730E+02  0.00000000000E+00 0. -1.
         -2    1    6    6    0  503  0.22169391545E+03 -0.37975875235E+03 -0.20264604936E+02  0.44019945064E+03  0.00000000000E+00 0.  1.
<mgrwt>
<rscale>  0 0.18756874E+04</rscale>
<asrwt>0</asrwt>
<pdfrwt beam="1">  1        2 0.42779648E+00 0.18756874E+04</pdfrwt>
<pdfrwt beam="2">  1       -1 0.48662789E-01 0.18756874E+04</pdfrwt>
<totfact> 0.10746732E+01</totfact>
</mgrwt>
</event>
<event>
12    7  0.1637954E-007  0.1344148E+04  0.7818608E-02  0.8995270E-01
         -1   -1    0    0    0  501 -0.00000000000E+00  0.00000000000E+00  0.49297344114E+03  0.49297344114E+03  0.00000000000E+00 0.  1.
          2   -1    0    0  501    0  0.00000000000E+00 -0.00000000000E+00 -0.91624330801E+03  0.91624330801E+03  0.00000000000E+00 0. -1.
         24    2    1    2    0    0  0.46184019243E+02  0.15138270194E+03 -0.45095192865E+03  0.48457219170E+03  0.80018003788E+02 0.  0.
        254    2    1    2    0    0 -0.46184019243E+02 -0.15138270194E+03  0.27682061783E+02  0.92464455746E+03  0.91057760516E+03 0.  0.
         23    2    4    4    0    0  0.32988119675E+02 -0.38777977199E+03  0.33159310202E+03  0.51941054249E+03  0.91498408432E+02 0.  0.
         23    2    4    4    0    0 -0.79172138918E+02  0.23639707005E+03 -0.30391104023E+03  0.40523401497E+03  0.98493066767E+02 0.  0.
          2    1    3    3  502    0  0.26113963455E+02  0.88745178010E+02 -0.36384841123E+03  0.37542417618E+03  0.00000000000E+00 0. -1.
         -1    1    3    3    0  502  0.20070055788E+02  0.62637523932E+02 -0.87103517424E+02  0.10914801552E+03  0.00000000000E+00 0.  1.
         13    1    5    5    0    0  0.25152007373E+02 -0.37184976071E+03  0.33523740581E+03  0.50128732905E+03  0.00000000000E+00 0.  1.
        -13    1    5    5    0    0  0.78361123022E+01 -0.15930011284E+02 -0.36443037906E+01  0.18123213446E+02  0.00000000000E+00 0. -1.
          3    1    6    6  503    0 -0.51709232161E+02  0.17232034938E+03 -0.14282893827E+03  0.22971341517E+03  0.00000000000E+00 0. -1.
         -3    1    6    6    0  503 -0.27462906757E+02  0.64076720664E+02 -0.16108210197E+03  0.17552059980E+03  0.00000000000E+00 0.  1.
<mgrwt>
<rscale>  0 0.13441482E+04</rscale>
<asrwt>0</asrwt>
<pdfrwt beam="1">  1        2 0.14096051E+00 0.13441482E+04</pdfrwt>
<pdfrwt beam="2">  1       -1 0.75842068E-01 0.13441482E+04</pdfrwt>
<totfact> 0.55700105E+01</totfact>
</mgrwt>
</event>
<event>
12    7  0.1637954E-007  0.1822475E+04  0.7818608E-02  0.8694438E-01
          2   -1    0    0  501    0  0.00000000000E+00  0.00000000000E+00  0.11049918328E+04  0.11049918328E+04  0.00000000000E+00 0. -1.
         -1   -1    0    0    0  501 -0.00000000000E+00 -0.00000000000E+00 -0.75145667833E+03  0.75145667833E+03  0.00000000000E+00 0.  1.
         24    2    1    2    0    0 -0.80373573787E+02 -0.41143038964E+03  0.69910612487E+03  0.81898084678E+03  0.79027695628E+02 0.  0.
        254    2    1    2    0    0  0.80373573787E+02  0.41143038964E+03 -0.34557097038E+03  0.10374676644E+04  0.88384669607E+03 0.  0.
         23    2    4    4    0    0  0.54864099401E+02 -0.13290524613E+03  0.19856891661E+03  0.26197226505E+03  0.92336228860E+02 0.  0.
         23    2    4    4    0    0  0.25509474386E+02  0.54433563577E+03 -0.54413988699E+03  0.77549539932E+03  0.91394092323E+02 0.  0.
          4    1    3    3  502    0 -0.80065701080E+02 -0.31046115402E+03  0.47382317155E+03  0.57210579664E+03  0.00000000000E+00 0. -1.
         -3    1    3    3    0  502 -0.30787270672E+00 -0.10096923562E+03  0.22528295332E+03  0.24687505014E+03  0.00000000000E+00 0.  1.
         13    1    5    5    0    0 -0.20542775649E+02 -0.25468377499E+02  0.74446828694E+02  0.81320195440E+02  0.00000000000E+00 0.  1.
        -13    1    5    5    0    0  0.75406875050E+02 -0.10743686863E+03  0.12412208791E+03  0.18065206961E+03  0.00000000000E+00 0. -1.
          2    1    6    6  503    0  0.20887287236E+02  0.15832038824E+03 -0.10663085240E+03  0.19202021452E+03  0.00000000000E+00 0. -1.
         -2    1    6    6    0  503  0.46221871500E+01  0.38601524753E+03 -0.43750903458E+03  0.58347518480E+03  0.00000000000E+00 0.  1.
<mgrwt>
<rscale>  0 0.18224747E+04</rscale>
<asrwt>0</asrwt>
<pdfrwt beam="1">  1        2 0.16999874E+00 0.18224747E+04</pdfrwt>
<pdfrwt beam="2">  1       -1 0.11560872E+00 0.18224747E+04</pdfrwt>
<totfact> 0.15759712E+01</totfact>
</mgrwt>
</event>
<event>
12    7  0.1637954E-007  0.1815476E+04  0.7818608E-02  0.8698113E-01
         -1   -1    0    0    0  501 -0.00000000000E+00  0.00000000000E+00  0.40299909147E+03  0.40299909147E+03  0.00000000000E+00 0.  1.
          2   -1    0    0  501    0  0.00000000000E+00 -0.00000000000E+00 -0.20446406666E+04  0.20446406666E+04  0.00000000000E+00 0. -1.
         24    2    1    2    0    0 -0.65212882753E+02  0.28031903938E+03 -0.14538503558E+04  0.14853789932E+04  0.99188772870E+02 0.  0.
        254    2    1    2    0    0  0.65212882753E+02 -0.28031903938E+03 -0.18779121932E+03  0.96226076480E+03  0.89880406847E+03 0.  0.
         23    2    4    4    0    0  0.19578712556E+03  0.21921094776E+03  0.14472335758E+03  0.34293899440E+03  0.10137191670E+03 0.  0.
         23    2    4    4    0    0 -0.13057424281E+03 -0.49952998714E+03 -0.33251457690E+03  0.61932177040E+03  0.80085395027E+02 0.  0.
          2    1    3    3  502    0 -0.20865544040E+02  0.20029910635E+03 -0.11683446569E+04  0.11855734225E+04  0.00000000000E+00 0. -1.
         -1    1    3    3    0  502 -0.44347338713E+02  0.80019933034E+02 -0.28550569890E+03  0.29980557073E+03  0.00000000000E+00 0.  1.
         13    1    5    5    0    0  0.17529553412E+03  0.19616111970E+03  0.16063067317E+03  0.30823679587E+03  0.00000000000E+00 0.  1.
        -13    1    5    5    0    0  0.20491591448E+02  0.23049828059E+02 -0.15907315590E+02  0.34702198531E+02  0.00000000000E+00 0. -1.
          3    1    6    6  503    0 -0.35447044651E+02 -0.93341094716E+02 -0.30854177013E+02  0.10450374719E+03  0.00000000000E+00 0. -1.
         -3    1    6    6    0  503 -0.95127198161E+02 -0.40618889243E+03 -0.30166039989E+03  0.51481802321E+03  0.00000000000E+00 0.  1.
<mgrwt>
<rscale>  0 0.18154761E+04</rscale>
<asrwt>0</asrwt>
<pdfrwt beam="1">  1        2 0.31456010E+00 0.18154761E+04</pdfrwt>
<pdfrwt beam="2">  1       -1 0.61999860E-01 0.18154761E+04</pdfrwt>
<totfact> 0.17876902E+01</totfact>
</mgrwt>
</event>
<event>
12    7  0.1637954E-007  0.1732072E+04  0.7818608E-02  0.8743281E-01
          2   -1    0    0  501    0  0.00000000000E+00  0.00000000000E+00  0.24883779337E+04  0.24883779337E+04  0.00000000000E+00 0. -1.
         -3   -1    0    0    0  501 -0.00000000000E+00 -0.00000000000E+00 -0.30140866544E+03  0.30140866544E+03  0.00000000000E+00 0.  1.
         24    2    1    2    0    0  0.30637806776E+03 -0.92533673283E+02  0.16746180796E+04  0.17067808345E+04  0.79530518364E+02 0.  0.
        254    2    1    2    0    0 -0.30637806776E+03  0.92533673283E+02  0.51235118862E+03  0.10830057646E+04  0.89887026016E+03 0.  0.
         23    2    4    4    0    0 -0.30252956211E+03  0.36277488042E+03  0.61432549446E+03  0.78033130833E+03  0.91604518487E+02 0.  0.
         23    2    4    4    0    0 -0.38485056572E+01 -0.27024120714E+03 -0.10197430584E+03  0.30267445628E+03  0.90376691684E+02 0.  0.
          4    1    3    3  502    0  0.25173776767E+03 -0.58213905888E+02  0.14594794668E+04  0.14821744420E+04  0.00000000000E+00 0. -1.
         -3    1    3    3    0  502  0.54640300096E+02 -0.34319767394E+02  0.21513861283E+03  0.22460639252E+03  0.00000000000E+00 0.  1.
         13    1    5    5    0    0 -0.26167162590E+03  0.34258444913E+03  0.51908579759E+03  0.67474899766E+03  0.00000000000E+00 0. -1.
        -13    1    5    5    0    0 -0.40857936206E+02  0.20190431294E+02  0.95239696866E+02  0.10558231067E+03  0.00000000000E+00 0.  1.
          2    1    6    6  503    0 -0.20717059729E+02 -0.18158698534E+03 -0.10789343766E+03  0.21223577384E+03  0.00000000000E+00 0. -1.
         -2    1    6    6    0  503  0.16868554072E+02 -0.88654221797E+02  0.59191318194E+01  0.90438682434E+02  0.00000000000E+00 0.  1.
<mgrwt>
<rscale>  0 0.17320724E+04</rscale>
<asrwt>0</asrwt>
<pdfrwt beam="1">  1        2 0.38282736E+00 0.17320724E+04</pdfrwt>
<pdfrwt beam="2">  1       -3 0.46370565E-01 0.17320724E+04</pdfrwt>
<totfact> 0.10020231E+01</totfact>
</mgrwt>
</event>
<event>
12    7  0.1637954E-007  0.2735502E+04  0.7818608E-02  0.8323577E-01
         -1   -1    0    0    0  501 -0.00000000000E+00  0.00000000000E+00  0.13396988369E+04  0.13396988369E+04  0.00000000000E+00 0.  1.
          2   -1    0    0  501    0  0.00000000000E+00 -0.00000000000E+00 -0.13963906591E+04  0.13963906591E+04  0.00000000000E+00 0. -1.
         24    2    1    2    0    0  0.60762827316E+03  0.41485022314E+03  0.93947466554E+03  0.11958262517E+04  0.77941972502E+02 0.  0.
        254    2    1    2    0    0 -0.60762827316E+03 -0.41485022314E+03 -0.99616648775E+03  0.15402632444E+04  0.91583315330E+03 0.  0.
         23    2    4    4    0    0  0.20849632851E+03  0.66522089136E+01 -0.33199880020E+03  0.40320202252E+03  0.93987747853E+02 0.  0.
         23    2    4    4    0    0 -0.81612460167E+03 -0.42150243206E+03 -0.66416768755E+03  0.11370612219E+04  0.89810018254E+02 0.  0.
          2    1    3    3  502    0  0.26434611042E+03  0.22559558924E+03  0.42345650827E+03  0.54780256514E+03  0.00000000000E+00 0. -1.
         -1    1    3    3    0  502  0.34328216274E+03  0.18925463391E+03  0.51601815726E+03  0.64802368656E+03  0.00000000000E+00 0.  1.
         13    1    5    5    0    0  0.72890423355E+02 -0.40713111422E+02 -0.99230100639E+02  0.12968108625E+03  0.00000000000E+00 0. -1.
        -13    1    5    5    0    0  0.13560590516E+03  0.47365320336E+02 -0.23276869956E+03  0.27352093627E+03  0.00000000000E+00 0.  1.
          3    1    6    6  503    0 -0.24662008747E+03 -0.82369529639E+02 -0.18040736501E+03  0.31646962620E+03  0.00000000000E+00 0. -1.
         -3    1    6    6    0  503 -0.56950451420E+03 -0.33913290242E+03 -0.48376032254E+03  0.82059159566E+03  0.00000000000E+00 0.  1.
<mgrwt>
<rscale>  0 0.27355021E+04</rscale>
<asrwt>0</asrwt>
<pdfrwt beam="1">  1        2 0.21482933E+00 0.27355021E+04</pdfrwt>
<pdfrwt beam="2">  1       -1 0.20610751E+00 0.27355021E+04</pdfrwt>
<totfact> 0.19797240E+00</totfact>
</mgrwt>
</event>
<event>
12    7  0.1637954E-007  0.3075065E+04  0.7818608E-02  0.8222615E-01
          2   -1    0    0  501    0  0.00000000000E+00  0.00000000000E+00  0.30411970994E+04  0.30411970994E+04  0.00000000000E+00 0. -1.
         -1   -1    0    0    0  501 -0.00000000000E+00 -0.00000000000E+00 -0.77732731863E+03  0.77732731863E+03  0.00000000000E+00 0.  1.
         24    2    1    2    0    0  0.21778508500E+03  0.63241058141E+02  0.27434801787E+04  0.27550215807E+04  0.10968429593E+03 0.  0.
        254    2    1    2    0    0 -0.21778508500E+03 -0.63241058141E+02 -0.47961039793E+03  0.10635028373E+04  0.92172792973E+03 0.  0.
         23    2    4    4    0    0  0.33842876307E+03 -0.31870926046E+02 -0.32183945187E+03  0.47733565827E+03  0.93375126648E+02 0.  0.
         23    2    4    4    0    0 -0.55621384807E+03 -0.31370132095E+02 -0.15777094606E+03  0.58616717902E+03  0.91336522651E+02 0.  0.
          2    1    3    3  502    0  0.21963686167E+03  0.75644606887E+02  0.26932490056E+04  0.27032485391E+04  0.00000000000E+00 0. -1.
         -1    1    3    3    0  502 -0.18517766636E+01 -0.12403548746E+02  0.50231173039E+02  0.51773041664E+02  0.00000000000E+00 0.  1.
         13    1    5    5    0    0  0.30381672664E+03 -0.31445311185E+02 -0.23991118497E+03  0.38839514371E+03  0.00000000000E+00 0.  1.
        -13    1    5    5    0    0  0.34612036430E+02 -0.42561486069E+00 -0.81928266894E+02  0.88940514559E+02  0.00000000000E+00 0. -1.
          3    1    6    6  503    0 -0.88858380132E+02  0.25051181524E+02 -0.10487877764E+02  0.92915924337E+02  0.00000000000E+00 0. -1.
         -3    1    6    6    0  503 -0.46735546794E+03 -0.56421313619E+02 -0.14728306829E+03  0.49325125469E+03  0.00000000000E+00 0.  1.
<mgrwt>
<rscale>  0 0.30750646E+04</rscale>
<asrwt>0</asrwt>
<pdfrwt beam="1">  1        2 0.46787647E+00 0.30750646E+04</pdfrwt>
<pdfrwt beam="2">  1       -1 0.11958882E+00 0.30750646E+04</pdfrwt>
<totfact> 0.98899815E-01</totfact>
</mgrwt>
</event>
<event>
12    7  0.1662291E-007  0.2732553E+04  0.7818608E-02  0.8324519E-01
          2   -1    0    0  501    0  0.00000000000E+00  0.00000000000E+00  0.16198706870E+04  0.16198706870E+04  0.00000000000E+00 0. -1.
         -1   -1    0    0    0  501 -0.00000000000E+00 -0.00000000000E+00 -0.11523833225E+04  0.11523833225E+04  0.00000000000E+00 0.  1.
         24    2    1    2    0    0 -0.23616625825E+03 -0.10217985023E+04 -0.41791263028E+03  0.11339062296E+04  0.10604569920E+03 0.  0.
        254    2    1    2    0    0  0.23616625825E+03  0.10217985023E+04  0.88539999473E+03  0.16383477798E+04  0.89465279093E+03 0.  0.
         23    2    4    4    0    0 -0.30956719384E+03  0.29824195202E+03  0.44906508536E+03  0.62825411729E+03  0.90904760897E+02 0.  0.
         23    2    4    4    0    0  0.54573345209E+03  0.72355655023E+03  0.43633490937E+03  0.10100936626E+04  0.92422788798E+02 0.  0.
          4    1    3    3  502    0 -0.13353482383E+02 -0.95686470399E+02 -0.72047566615E+02  0.12051998990E+03  0.00000000000E+00 0. -1.
         -3    1    3    3    0  502 -0.22281277587E+03 -0.92611203186E+03 -0.34586506367E+03  0.10133862397E+04  0.00000000000E+00 0.  1.
         13    1    5    5    0    0 -0.57774650957E+01  0.26679171922E+02  0.95635265396E+01  0.28924355779E+02  0.00000000000E+00 0. -1.
        -13    1    5    5    0    0 -0.30378972874E+03  0.27156278010E+03  0.43950155882E+03  0.59932976151E+03  0.00000000000E+00 0.  1.
          1    1    6    6  503    0  0.86338549482E+02  0.70655380809E+02  0.70196045760E+02  0.13181051856E+03  0.00000000000E+00 0. -1.
         -1    1    6    6    0  503  0.45939490261E+03  0.65290116942E+03  0.36613886361E+03  0.87828314399E+03  0.00000000000E+00 0.  1.
<mgrwt>
<rscale>  0 0.27325534E+04</rscale>
<asrwt>0</asrwt>
<pdfrwt beam="1">  1        2 0.24921088E+00 0.27325534E+04</pdfrwt>
<pdfrwt beam="2">  1       -1 0.17728974E+00 0.27325534E+04</pdfrwt>
<totfact> 0.23574162E+00</totfact>
</mgrwt>
</event>
<event>
12    7  0.1637954E-007  0.2142869E+04  0.7818608E-02  0.8542591E-01
         -1   -1    0    0    0  501 -0.00000000000E+00  0.00000000000E+00  0.48828171936E+03  0.48828171936E+03  0.00000000000E+00 0.  1.
          2   -1    0    0  501    0  0.00000000000E+00 -0.00000000000E+00 -0.23510439472E+04  0.23510439472E+04  0.00000000000E+00 0. -1.
         24    2    1    2    0    0 -0.40796837602E+03  0.75032541451E+03 -0.48871673511E+03  0.98912444338E+03  0.10048230599E+03 0.  0.
        254    2    1    2    0    0  0.40796837602E+03 -0.75032541451E+03 -0.13740454927E+04  0.18502012231E+04  0.89767317360E+03 0.  0.
         23    2    4    4    0    0 -0.19259588101E+03 -0.54058533178E+03 -0.51200472080E+03  0.77440689255E+03  0.90727761950E+02 0.  0.
         23    2    4    4    0    0  0.60056425703E+03 -0.20974008273E+03 -0.86204077190E+03  0.10757943306E+04  0.97728297747E+02 0.  0.
          2    1    3    3  502    0 -0.32198890278E+03  0.64025105743E+03 -0.44124851373E+03  0.84160472963E+03  0.00000000000E+00 0. -1.
         -1    1    3    3    0  502 -0.85979473239E+02  0.11007435708E+03 -0.47468221377E+02  0.14751971375E+03  0.00000000000E+00 0.  1.
         13    1    5    5    0    0 -0.13067263734E+03 -0.24905925560E+03 -0.21896910801E+03  0.35644539724E+03  0.00000000000E+00 0. -1.
        -13    1    5    5    0    0 -0.61923243673E+02 -0.29152607618E+03 -0.29303561279E+03  0.41796149531E+03  0.00000000000E+00 0.  1.
          3    1    6    6  503    0  0.49939671313E+03 -0.19110416966E+03 -0.77192918877E+03  0.93903809998E+03  0.00000000000E+00 0. -1.
         -3    1    6    6    0  503  0.10116754390E+03 -0.18635913075E+02 -0.90111583127E+02  0.13675623060E+03  0.00000000000E+00 0.  1.
<mgrwt>
<rscale>  0 0.21428689E+04</rscale>
<asrwt>0</asrwt>
<pdfrwt beam="1">  1        2 0.36169907E+00 0.21428689E+04</pdfrwt>
<pdfrwt beam="2">  1       -1 0.75120264E-01 0.21428689E+04</pdfrwt>
<totfact> 0.78973547E+00</totfact>
</mgrwt>
</event>
<event>
12    7  0.1637954E-007  0.1151510E+04  0.7818608E-02  0.9156391E-01
         -1   -1    0    0    0  501 -0.00000000000E+00  0.00000000000E+00  0.19075189054E+03  0.19075189054E+03  0.00000000000E+00 0.  1.
          2   -1    0    0  501    0  0.00000000000E+00 -0.00000000000E+00 -0.17378286474E+04  0.17378286474E+04  0.00000000000E+00 0. -1.
         24    2    1    2    0    0 -0.18491991198E+03 -0.57273840282E+02 -0.16050465879E+03  0.26402401574E+03  0.80444196591E+02 0.  0.
        254    2    1    2    0    0  0.18491991198E+03  0.57273840282E+02 -0.13865720981E+04  0.16645565222E+04  0.90038356594E+03 0.  0.
         23    2    4    4    0    0  0.24316548698E+03  0.40808241369E+02  0.10463850690E+02  0.26331434727E+03  0.91816048065E+02 0.  0.
         23    2    4    4    0    0 -0.58245575001E+02  0.16465598913E+02 -0.13970359488E+04  0.14012421749E+04  0.90036257828E+02 0.  0.
          2    1    3    3  502    0 -0.59747909743E+02 -0.50458480127E+02 -0.31985537739E+02  0.84492281066E+02  0.00000000000E+00 0. -1.
         -1    1    3    3    0  502 -0.12517200224E+03 -0.68153601554E+01 -0.12851912105E+03  0.17953173467E+03  0.00000000000E+00 0.  1.
         13    1    5    5    0    0  0.15696493532E+01 -0.14873828817E+02  0.31068723993E+01  0.15275707475E+02  0.00000000000E+00 0.  1.
        -13    1    5    5    0    0  0.24159583763E+03  0.55682070186E+02  0.73569782910E+01  0.24803863979E+03  0.00000000000E+00 0. -1.
          1    1    6    6  503    0 -0.74357170792E+02 -0.79674343337E+01 -0.11596709612E+04  0.11620796905E+04  0.00000000000E+00 0. -1.
         -1    1    6    6    0  503  0.16111595792E+02  0.24433033247E+02 -0.23736498757E+03  0.23916248443E+03  0.00000000000E+00 0.  1.
<mgrwt>
<rscale>  0 0.11515105E+04</rscale>
<asrwt>0</asrwt>
<pdfrwt beam="1">  1        2 0.26735824E+00 0.11515105E+04</pdfrwt>
<pdfrwt beam="2">  1       -1 0.29346446E-01 0.11515105E+04</pdfrwt>
<totfact> 0.11174678E+02</totfact>
</mgrwt>
</event>
<event>
12    7  0.1637954E-007  0.1529446E+04  0.7818608E-02  0.8865104E-01
          2   -1    0    0  501    0  0.00000000000E+00  0.00000000000E+00  0.78382711413E+03  0.78382711413E+03  0.00000000000E+00 0. -1.
         -1   -1    0    0    0  501 -0.00000000000E+00 -0.00000000000E+00 -0.74608477823E+03  0.74608477823E+03  0.00000000000E+00 0.  1.
         24    2    1    2    0    0  0.40928350590E+03  0.10765162640E+03  0.27185696108E+03  0.50935387885E+03  0.80207890796E+02 0.  0.
        254    2    1    2    0    0 -0.40928350590E+03 -0.10765162640E+03 -0.23411462518E+03  0.10205580135E+04  0.89868077777E+03 0.  0.
         23    2    4    4    0    0 -0.18753362117E+03  0.11466330524E+02 -0.56059385816E+03  0.59827431492E+03  0.91467733567E+02 0.  0.
         23    2    4    4    0    0 -0.22174988473E+03 -0.11911795692E+03  0.32647923298E+03  0.42228369858E+03  0.91502641929E+02 0.  0.
          2    1    3    3  502    0  0.32448629232E+03  0.52580660197E+02  0.22163814507E+03  0.39645875836E+03  0.00000000000E+00 0. -1.
         -1    1    3    3    0  502  0.84797213574E+02  0.55070966204E+02  0.50218816014E+02  0.11289512049E+03  0.00000000000E+00 0.  1.
         13    1    5    5    0    0 -0.13675764214E+02  0.24567669489E+02 -0.37373835978E+02  0.46769653908E+02  0.00000000000E+00 0.  1.
        -13    1    5    5    0    0 -0.17385785695E+03 -0.13101338966E+02 -0.52322002218E+03  0.55150466101E+03  0.00000000000E+00 0. -1.
          3    1    6    6  503    0 -0.22398217270E+03 -0.11283689073E+03  0.33020197030E+03  0.41464866910E+03  0.00000000000E+00 0. -1.
         -3    1    6    6    0  503  0.22322879639E+01 -0.62810661898E+01 -0.37227373199E+01  0.76350294817E+01  0.00000000000E+00 0.  1.
<mgrwt>
<rscale>  0 0.15294463E+04</rscale>
<asrwt>0</asrwt>
<pdfrwt beam="1">  1        2 0.12058879E+00 0.15294463E+04</pdfrwt>
<pdfrwt beam="2">  1       -1 0.11478227E+00 0.15294463E+04</pdfrwt>
<totfact> 0.26871293E+01</totfact>
</mgrwt>
</event>
<event>
12    7  0.1637954E-007  0.1596970E+04  0.7818608E-02  0.8822411E-01
          2   -1    0    0  501    0  0.00000000000E+00  0.00000000000E+00  0.11910431824E+04  0.11910431824E+04  0.00000000000E+00 0. -1.
         -1   -1    0    0    0  501 -0.00000000000E+00 -0.00000000000E+00 -0.53531098964E+03  0.53531098964E+03  0.00000000000E+00 0.  1.
         24    2    1    2    0    0  0.40651756692E+03  0.28241487793E+03  0.47145487445E+03  0.68822785230E+03  0.79832215018E+02 0.  0.
        254    2    1    2    0    0 -0.40651756692E+03 -0.28241487793E+03  0.18427731828E+03  0.10381263197E+04  0.89371887646E+03 0.  0.
         23    2    4    4    0    0 -0.53691835326E+02 -0.54455064077E+03  0.51242728721E+01  0.55474052471E+03  0.91063593413E+02 0.  0.
         23    2    4    4    0    0 -0.35282573159E+03  0.26213576284E+03  0.17915304541E+03  0.48338579499E+03  0.91459598079E+02 0.  0.
          2    1    3    3  502    0  0.34976489144E+03  0.20672523378E+03  0.39407986961E+03  0.56601214227E+03  0.00000000000E+00 0. -1.
         -1    1    3    3    0  502  0.56752675481E+02  0.75689644143E+02  0.77375004836E+02  0.12221571003E+03  0.00000000000E+00 0.  1.
         13    1    5    5    0    0  0.10316208657E+02 -0.86334648840E+02 -0.26772598611E+02  0.90977292704E+02  0.00000000000E+00 0.  1.
        -13    1    5    5    0    0 -0.64008043983E+02 -0.45821599193E+03  0.31896871484E+02  0.46376323201E+03  0.00000000000E+00 0. -1.
          3    1    6    6  503    0 -0.23335223468E+03  0.22287776557E+03  0.13921902513E+03  0.35143946957E+03  0.00000000000E+00 0. -1.
         -3    1    6    6    0  503 -0.11947349691E+03  0.39257997269E+02  0.39934020282E+02  0.13194632541E+03  0.00000000000E+00 0.  1.
<mgrwt>
<rscale>  0 0.15969703E+04</rscale>
<asrwt>0</asrwt>
<pdfrwt beam="1">  1        2 0.18323741E+00 0.15969703E+04</pdfrwt>
<pdfrwt beam="2">  1       -1 0.82355537E-01 0.15969703E+04</pdfrwt>
<totfact> 0.30748847E+01</totfact>
</mgrwt>
</event>
<event>
12    7  0.1637954E-007  0.2126432E+04  0.7818608E-02  0.8549688E-01
         -1   -1    0    0    0  501 -0.00000000000E+00  0.00000000000E+00  0.70557518320E+03  0.70557518320E+03  0.00000000000E+00 0.  1.
          2   -1    0    0  501    0  0.00000000000E+00 -0.00000000000E+00 -0.16021372852E+04  0.16021372852E+04  0.00000000000E+00 0. -1.
         24    2    1    2    0    0  0.71463034609E+03  0.36229322542E+03 -0.76052785085E+03  0.11075926149E+04  0.80036716705E+02 0.  0.
        254    2    1    2    0    0 -0.71463034609E+03 -0.36229322542E+03 -0.13603425112E+03  0.12001198534E+04  0.88307951644E+03 0.  0.
         23    2    4    4    0    0  0.16441630894E+03 -0.73350901000E+02  0.12202256471E+03  0.23516409602E+03  0.89440306536E+02 0.  0.
         23    2    4    4    0    0 -0.87904665503E+03 -0.28894232442E+03 -0.25805681583E+03  0.96495575740E+03  0.91299534425E+02 0.  0.
          4    1    3    3  502    0  0.49928935159E+03  0.21700667709E+03 -0.54069382741E+03  0.76728845261E+03  0.00000000000E+00 0. -1.
         -3    1    3    3    0  502  0.21534099450E+03  0.14528654833E+03 -0.21983402344E+03  0.34030416233E+03  0.00000000000E+00 0.  1.
         13    1    5    5    0    0  0.30758429210E+01 -0.11849211795E+02  0.44032560529E+02  0.45702636867E+02  0.00000000000E+00 0.  1.
        -13    1    5    5    0    0  0.16134046602E+03 -0.61501689205E+02  0.77990004181E+02  0.18946145915E+03  0.00000000000E+00 0. -1.
          2    1    6    6  503    0 -0.52755842148E+03 -0.13064883997E+03 -0.13088792716E+03  0.55903368140E+03  0.00000000000E+00 0. -1.
         -2    1    6    6    0  503 -0.35148823355E+03 -0.15829348445E+03 -0.12716888867E+03  0.40592207601E+03  0.00000000000E+00 0.  1.
<mgrwt>
<rscale>  0 0.21264320E+04</rscale>
<asrwt>0</asrwt>
<pdfrwt beam="1">  1        2 0.24648266E+00 0.21264320E+04</pdfrwt>
<pdfrwt beam="2">  1       -1 0.10855003E+00 0.21264320E+04</pdfrwt>
<totfact> 0.91731401E+00</totfact>
</mgrwt>
</event>
<event>
12    7  0.1637954E-007  0.1836856E+04  0.7818608E-02  0.8686942E-01
          2   -1    0    0  501    0  0.00000000000E+00  0.00000000000E+00  0.82002123537E+03  0.82002123537E+03  0.00000000000E+00 0. -1.
         -1   -1    0    0    0  501 -0.00000000000E+00 -0.00000000000E+00 -0.10286436004E+04  0.10286436004E+04  0.00000000000E+00 0.  1.
         24    2    1    2    0    0  0.35761555413E+02 -0.69469987813E+03 -0.86851138312E+02  0.70560605041E+03  0.80311696741E+02 0.  0.
        254    2    1    2    0    0 -0.35761555413E+02  0.69469987813E+03 -0.12177122669E+03  0.11430587853E+04  0.89881496738E+03 0.  0.
         23    2    4    4    0    0 -0.69071758425E+02 -0.50777207935E+02  0.26707502206E+03  0.29673848388E+03  0.96826792514E+02 0.  0.
         23    2    4    4    0    0  0.33310203012E+02  0.74547708606E+03 -0.38884624875E+03  0.84632030146E+03  0.90614524398E+02 0.  0.
          4    1    3    3  502    0  0.89122908879E+01 -0.42038123374E+03 -0.89812970530E+02  0.42996067295E+03  0.00000000000E+00 0. -1.
         -3    1    3    3    0  502  0.26849264525E+02 -0.27431864439E+03  0.29618322181E+01  0.27564537746E+03  0.00000000000E+00 0.  1.
         13    1    5    5    0    0  0.21084660539E+02 -0.71171178042E+01  0.19213415333E+02  0.29400197358E+02  0.00000000000E+00 0. -1.
        -13    1    5    5    0    0 -0.90156418964E+02 -0.43660090131E+02  0.24786160673E+03  0.26733828652E+03  0.00000000000E+00 0.  1.
          4    1    6    6  503    0 -0.30186048950E+02  0.18110687360E+03 -0.87391908326E+02  0.20334267348E+03  0.00000000000E+00 0. -1.
         -4    1    6    6    0  503  0.63496251961E+02  0.56437021246E+03 -0.30145434042E+03  0.64297762798E+03  0.00000000000E+00 0.  1.
<mgrwt>
<rscale>  0 0.18368556E+04</rscale>
<asrwt>0</asrwt>
<pdfrwt beam="1">  1        2 0.12615711E+00 0.18368556E+04</pdfrwt>
<pdfrwt beam="2">  1       -1 0.15825286E+00 0.18368556E+04</pdfrwt>
<totfact> 0.10788239E+01</totfact>
</mgrwt>
</event>
<event>
12    7  0.1637954E-007  0.1603864E+04  0.7818608E-02  0.8818178E-01
          2   -1    0    0  501    0  0.00000000000E+00  0.00000000000E+00  0.14020805798E+04  0.14020805798E+04  0.00000000000E+00 0. -1.
         -1   -1    0    0    0  501 -0.00000000000E+00 -0.00000000000E+00 -0.45867183767E+03  0.45867183767E+03  0.00000000000E+00 0.  1.
         24    2    1    2    0    0 -0.31129664476E+03  0.42538241220E+02 -0.19283655868E+03  0.37696844226E+03  0.78766522648E+02 0.  0.
        254    2    1    2    0    0  0.31129664476E+03 -0.42538241220E+02  0.11362453009E+04  0.14837839753E+04  0.90102519304E+03 0.  0.
         23    2    4    4    0    0 -0.24422583424E+03  0.29061272505E+02  0.63502859203E+02  0.26999048842E+03  0.91495546562E+02 0.  0.
         23    2    4    4    0    0  0.55552247900E+03 -0.71599513725E+02  0.10727424416E+04  0.12137934868E+04  0.93736692517E+02 0.  0.
          2    1    3    3  502    0 -0.18529352453E+03  0.31153350186E+01 -0.74715383341E+02  0.19981437399E+03  0.00000000000E+00 0. -1.
         -1    1    3    3    0  502 -0.12600312023E+03  0.39422906201E+02 -0.11812117533E+03  0.17715406827E+03  0.00000000000E+00 0.  1.
         13    1    5    5    0    0 -0.11719533654E+03 -0.18214881146E+02 -0.37894211915E+01  0.11866291972E+03  0.00000000000E+00 0. -1.
        -13    1    5    5    0    0 -0.12703049770E+03  0.47276153651E+02  0.67292280395E+02  0.15132756870E+03  0.00000000000E+00 0.  1.
          2    1    6    6  503    0  0.35631841401E+03 -0.85408006224E+02  0.64701381511E+03  0.74356184452E+03  0.00000000000E+00 0.  1.
         -2    1    6    6    0  503  0.19920406499E+03  0.13808492498E+02  0.42572862654E+03  0.47023164231E+03  0.00000000000E+00 0. -1.
<mgrwt>
<rscale>  0 0.16038639E+04</rscale>
<asrwt>0</asrwt>
<pdfrwt beam="1">  1        2 0.21570470E+00 0.16038639E+04</pdfrwt>
<pdfrwt beam="2">  1       -1 0.70564899E-01 0.16038639E+04</pdfrwt>
<totfact> 0.31997599E+01</totfact>
</mgrwt>
</event>
<event>
12    7  0.1637954E-007  0.2254787E+04  0.7818608E-02  0.8495964E-01
          2   -1    0    0  501    0  0.00000000000E+00  0.00000000000E+00  0.40935038023E+04  0.40935038023E+04  0.00000000000E+00 0. -1.
         -1   -1    0    0    0  501 -0.00000000000E+00 -0.00000000000E+00 -0.31049595304E+03  0.31049595304E+03  0.00000000000E+00 0.  1.
         24    2    1    2    0    0 -0.54795363545E+03 -0.60296671588E+03  0.25444765624E+04  0.26729568986E+04  0.80719006272E+02 0.  0.
        254    2    1    2    0    0  0.54795363545E+03  0.60296671588E+03  0.12385312868E+04  0.17310428567E+04  0.89371560148E+03 0.  0.
         23    2    4    4    0    0  0.62375705617E+02  0.31240692490E+02  0.89189639225E+03  0.89973483983E+03  0.95796127150E+02 0.  0.
         23    2    4    4    0    0  0.48557792984E+03  0.57172602339E+03  0.34663489459E+03  0.83130801691E+03  0.90888376967E+02 0.  0.
          4    1    3    3  502    0 -0.39259244859E+03 -0.37890887266E+03  0.17388476193E+04  0.18224411671E+04  0.00000000000E+00 0. -1.
         -3    1    3    3    0  502 -0.15536118687E+03 -0.22405784322E+03  0.80562894310E+03  0.85051573146E+03  0.00000000000E+00 0.  1.
         13    1    5    5    0    0  0.11161503456E+02 -0.12155509714E+02  0.59969161059E+03  0.59991863064E+03  0.00000000000E+00 0.  1.
        -13    1    5    5    0    0  0.51214202161E+02  0.43396202204E+02  0.29220478166E+03  0.29981620919E+03  0.00000000000E+00 0. -1.
          2    1    6    6  503    0  0.43185627187E+01  0.24086958253E+02  0.10475262169E+01  0.24493445103E+02  0.00000000000E+00 0. -1.
         -2    1    6    6    0  503  0.48125936712E+03  0.54763906514E+03  0.34558736837E+03  0.80681457181E+03  0.00000000000E+00 0.  1.
<mgrwt>
<rscale>  0 0.22547872E+04</rscale>
<asrwt>0</asrwt>
<pdfrwt beam="1">  1        2 0.62976978E+00 0.22547872E+04</pdfrwt>
<pdfrwt beam="2">  1       -1 0.47768611E-01 0.22547872E+04</pdfrwt>
<totfact> 0.13079815E+00</totfact>
</mgrwt>
</event>
<event>
12    7  0.1637954E-007  0.1843450E+04  0.7818608E-02  0.8683529E-01
          2   -1    0    0  501    0  0.00000000000E+00  0.00000000000E+00  0.89340859580E+03  0.89340859580E+03  0.00000000000E+00 0. -1.
         -1   -1    0    0    0  501 -0.00000000000E+00 -0.00000000000E+00 -0.95093856164E+03  0.95093856164E+03  0.00000000000E+00 0.  1.
         24    2    1    2    0    0 -0.49998710728E+03  0.39520321042E+03  0.27182306129E+03  0.69715962989E+03  0.77272814923E+02 0.  0.
        254    2    1    2    0    0  0.49998710728E+03 -0.39520321042E+03 -0.32935302713E+03  0.11471875275E+04  0.89520563108E+03 0.  0.
         23    2    4    4    0    0  0.42565698582E+03  0.94346719492E+02  0.13181531506E+03  0.46444097937E+03  0.90801833568E+02 0.  0.
         23    2    4    4    0    0  0.74330121458E+02 -0.48954992991E+03 -0.46116834219E+03  0.68274654818E+03  0.91008287422E+02 0.  0.
          2    1    3    3  502    0 -0.60025633067E+01 -0.14074187819E+01  0.98709937284E+01  0.11638217693E+02  0.00000000000E+00 0. -1.
         -1    1    3    3    0  502 -0.49398454397E+03  0.39661062920E+03  0.26195206756E+03  0.68552141219E+03  0.00000000000E+00 0.  1.
         13    1    5    5    0    0  0.10994014908E+03 -0.14410054391E+02  0.23058687956E+02  0.11325276658E+03  0.00000000000E+00 0.  1.
        -13    1    5    5    0    0  0.31571683674E+03  0.10875677388E+03  0.10875662710E+03  0.35118821279E+03  0.00000000000E+00 0. -1.
          3    1    6    6  503    0  0.68156034792E+02 -0.45031645751E+03 -0.38304823549E+03  0.59511016433E+03  0.00000000000E+00 0. -1.
         -3    1    6    6    0  503  0.61740866655E+01 -0.39233472407E+02 -0.78120106695E+02  0.87636383844E+02  0.00000000000E+00 0.  1.
<mgrwt>
<rscale>  0 0.18434497E+04</rscale>
<asrwt>0</asrwt>
<pdfrwt beam="1">  1        2 0.13744748E+00 0.18434497E+04</pdfrwt>
<pdfrwt beam="2">  1       -1 0.14629824E+00 0.18434497E+04</pdfrwt>
<totfact> 0.11867870E+01</totfact>
</mgrwt>
</event>
<event>
12    7  0.1637954E-007  0.1360226E+04  0.7818608E-02  0.8983123E-01
         -1   -1    0    0    0  501 -0.00000000000E+00  0.00000000000E+00  0.30478143469E+03  0.30478143469E+03  0.00000000000E+00 0.  1.
          2   -1    0    0  501    0  0.00000000000E+00 -0.00000000000E+00 -0.15176578388E+04  0.15176578388E+04  0.00000000000E+00 0. -1.
         24    2    1    2    0    0  0.25469652515E+03  0.22500953865E+03 -0.52984721393E+03  0.63429168084E+03  0.78027263659E+02 0.  0.
        254    2    1    2    0    0 -0.25469652515E+03 -0.22500953865E+03 -0.68302919015E+03  0.11881475926E+04  0.91086015107E+03 0.  0.
         23    2    4    4    0    0  0.10864536409E+03 -0.47881718611E+03 -0.23898050706E+03  0.55363479692E+03  0.91269341774E+02 0.  0.
         23    2    4    4    0    0 -0.36334188924E+03  0.25380764746E+03 -0.44404868309E+03  0.63451279568E+03  0.94824071557E+02 0.  0.
          4    1    3    3  502    0  0.22833525031E+03  0.21231850890E+03 -0.51357925787E+03  0.60081593677E+03  0.00000000000E+00 0. -1.
         -3    1    3    3    0  502  0.26361274838E+02  0.12691029745E+02 -0.16267956051E+02  0.33475744072E+02  0.00000000000E+00 0.  1.
         13    1    5    5    0    0  0.94624854169E+02 -0.45809554466E+03 -0.20324998506E+03  0.51001563455E+03  0.00000000000E+00 0. -1.
        -13    1    5    5    0    0  0.14020509923E+02 -0.20721641457E+02 -0.35730521999E+02  0.43619162366E+02  0.00000000000E+00 0.  1.
          3    1    6    6  503    0 -0.24630970358E+03  0.20613515129E+03 -0.27102821253E+03  0.42025761464E+03  0.00000000000E+00 0. -1.
         -3    1    6    6    0  503 -0.11703218566E+03  0.47672496171E+02 -0.17302047056E+03  0.21425518105E+03  0.00000000000E+00 0.  1.
<mgrwt>
<rscale>  0 0.13602264E+04</rscale>
<asrwt>0</asrwt>
<pdfrwt beam="1">  1        2 0.23348582E+00 0.13602264E+04</pdfrwt>
<pdfrwt beam="2">  1       -1 0.46889451E-01 0.13602264E+04</pdfrwt>
<totfact> 0.62539982E+01</totfact>
</mgrwt>
</event>
<event>
12    7  0.1637954E-007  0.2298115E+04  0.7818608E-02  0.8478665E-01
          2   -1    0    0  501    0  0.00000000000E+00  0.00000000000E+00  0.13378249719E+04  0.13378249719E+04  0.00000000000E+00 0. -1.
         -1   -1    0    0    0  501 -0.00000000000E+00 -0.00000000000E+00 -0.98692520870E+03  0.98692520870E+03  0.00000000000E+00 0.  1.
         24    2    1    2    0    0 -0.17400250927E+03 -0.64456911252E+02  0.11105620052E+04  0.11285544327E+04  0.76521718706E+02 0.  0.
        254    2    1    2    0    0  0.17400250927E+03  0.64456911252E+02 -0.75966224205E+03  0.11961957479E+04  0.90518836640E+03 0.  0.
         23    2    4    4    0    0  0.43637724351E+03  0.30688188683E+03 -0.35641393108E+03  0.64828093418E+03  0.92928403836E+02 0.  0.
         23    2    4    4    0    0 -0.26237473424E+03 -0.24242497558E+03 -0.40324831097E+03  0.54791481372E+03  0.99955354247E+02 0.  0.
          4    1    3    3  502    0 -0.52789978659E+02 -0.56683405189E+02  0.50813585147E+03  0.51400567489E+03  0.00000000000E+00 0. -1.
         -3    1    3    3    0  502 -0.12121253061E+03 -0.77735060636E+01  0.60242615374E+03  0.61454875778E+03  0.00000000000E+00 0.  1.
         13    1    5    5    0    0  0.10834291995E+01  0.10360865388E+02 -0.22134868666E+02  0.24463723373E+02  0.00000000000E+00 0. -1.
        -13    1    5    5    0    0  0.43529381431E+03  0.29652102144E+03 -0.33427906241E+03  0.62381721081E+03  0.00000000000E+00 0.  1.
          4    1    6    6  503    0 -0.63828607364E+02 -0.34418489608E+02 -0.14182763244E+03  0.15929155931E+03  0.00000000000E+00 0. -1.
         -4    1    6    6    0  503 -0.19854612688E+03 -0.20800648597E+03 -0.26142067853E+03  0.38862325441E+03  0.00000000000E+00 0.  1.
<mgrwt>
<rscale>  0 0.22981150E+04</rscale>
<asrwt>0</asrwt>
<pdfrwt beam="1">  1        2 0.20581923E+00 0.22981150E+04</pdfrwt>
<pdfrwt beam="2">  1       -1 0.15183465E+00 0.22981150E+04</pdfrwt>
<totfact> 0.54823326E+00</totfact>
</mgrwt>
</event>
<event>
12    7  0.1637954E-007  0.3251040E+04  0.7818608E-02  0.8175466E-01
          2   -1    0    0  501    0  0.00000000000E+00  0.00000000000E+00  0.13465144408E+04  0.13465144408E+04  0.00000000000E+00 0. -1.
         -1   -1    0    0    0  501 -0.00000000000E+00 -0.00000000000E+00 -0.19623373034E+04  0.19623373034E+04  0.00000000000E+00 0.  1.
         24    2    1    2    0    0  0.12023586862E+04  0.13475635250E+03  0.61916314420E+03  0.13609168735E+04  0.70043220856E+02 0.  0.
        254    2    1    2    0    0 -0.12023586862E+04 -0.13475635250E+03 -0.12349860068E+04  0.19479348707E+04  0.89745982577E+03 0.  0.
         23    2    4    4    0    0 -0.12555587614E+04 -0.31356580281E+03 -0.11069199824E+04  0.17054103203E+04  0.91658045249E+02 0.  0.
         23    2    4    4    0    0  0.53200075289E+02  0.17880945031E+03 -0.12806602443E+03  0.24252455037E+03  0.87259288275E+02 0.  0.
          2    1    3    3  502    0  0.11843466497E+04  0.13788794027E+03  0.61694122083E+03  0.13425001083E+04  0.00000000000E+00 0. -1.
         -1    1    3    3    0  502  0.18012036413E+02 -0.31315877683E+01  0.22219233653E+01  0.18416765219E+02  0.00000000000E+00 0.  1.
         13    1    5    5    0    0 -0.73831268464E+03 -0.14406524559E+03 -0.61225479048E+03  0.96990532721E+03  0.00000000000E+00 0.  1.
        -13    1    5    5    0    0 -0.51724607681E+03 -0.16950055721E+03 -0.49466519188E+03  0.73550499313E+03  0.00000000000E+00 0. -1.
          4    1    6    6  503    0  0.82651999745E+01  0.91308842505E+02 -0.10882326952E+03  0.14229589678E+03  0.00000000000E+00 0. -1.
         -4    1    6    6    0  503  0.44934875314E+02  0.87500607802E+02 -0.19242754909E+02  0.10022865360E+03  0.00000000000E+00 0.  1.
<mgrwt>
<rscale>  0 0.32510402E+04</rscale>
<asrwt>0</asrwt>
<pdfrwt beam="1">  1        2 0.20715607E+00 0.32510402E+04</pdfrwt>
<pdfrwt beam="2">  1       -1 0.30189805E+00 0.32510402E+04</pdfrwt>
<totfact> 0.47614703E-01</totfact>
</mgrwt>
</event>
<event>
12    7  0.1637954E-007  0.1489479E+04  0.7818608E-02  0.8891480E-01
          2   -1    0    0  501    0  0.00000000000E+00  0.00000000000E+00  0.17745175578E+04  0.17745175578E+04  0.00000000000E+00 0. -1.
         -1   -1    0    0    0  501 -0.00000000000E+00 -0.00000000000E+00 -0.31255637011E+03  0.31255637011E+03  0.00000000000E+00 0.  1.
         24    2    1    2    0    0  0.14323273604E+03 -0.21833561956E+02  0.10969532001E+04  0.11094063725E+04  0.80522388701E+02 0.  0.
        254    2    1    2    0    0 -0.14323273604E+03  0.21833561956E+02  0.36500798765E+03  0.97766755545E+03  0.89532714514E+03 0.  0.
         23    2    4    4    0    0 -0.32766301045E+03 -0.30213316184E+03  0.38068825705E+03  0.59348046233E+03  0.92994699950E+02 0.  0.
         23    2    4    4    0    0  0.18443027441E+03  0.32396672380E+03 -0.15680269397E+02  0.38418709311E+03  0.91569030901E+02 0.  0.
          2    1    3    3  502    0  0.14808807983E+03 -0.10076612259E+02  0.10596242599E+04  0.10699697144E+04  0.00000000000E+00 0. -1.
         -1    1    3    3    0  502 -0.48553437864E+01 -0.11756949697E+02  0.37328940123E+02  0.39436658076E+02  0.00000000000E+00 0.  1.
         13    1    5    5    0    0 -0.26724330024E+03 -0.25672499528E+03  0.26613251376E+03  0.45623811722E+03  0.00000000000E+00 0. -1.
        -13    1    5    5    0    0 -0.60419710202E+02 -0.45408166567E+02  0.11455574329E+03  0.13724234511E+03  0.00000000000E+00 0.  1.
          3    1    6    6  503    0  0.77323853945E+02  0.22344823279E+03 -0.19490069158E+02  0.23725082491E+03  0.00000000000E+00 0. -1.
         -3    1    6    6    0  503  0.10710642046E+03  0.10051849101E+03  0.38097997612E+01  0.14693626820E+03  0.00000000000E+00 0.  1.
<mgrwt>
<rscale>  0 0.14894788E+04</rscale>
<asrwt>0</asrwt>
<pdfrwt beam="1">  1        2 0.27300270E+00 0.14894788E+04</pdfrwt>
<pdfrwt beam="2">  1       -1 0.48085596E-01 0.14894788E+04</pdfrwt>
<totfact> 0.42450773E+01</totfact>
</mgrwt>
</event>
<event>
12    7  0.1637954E-007  0.1073881E+04  0.7818608E-02  0.9231030E-01
         -1   -1    0    0    0  501 -0.00000000000E+00  0.00000000000E+00  0.17116897569E+03  0.17116897569E+03  0.00000000000E+00 0.  1.
          2   -1    0    0  501    0  0.00000000000E+00 -0.00000000000E+00 -0.16843302893E+04  0.16843302893E+04  0.00000000000E+00 0. -1.
         24    2    1    2    0    0 -0.90257208083E+02  0.87297587100E+02 -0.19668858942E+03  0.24651917080E+03  0.79486275796E+02 0.  0.
        254    2    1    2    0    0  0.90257208083E+02 -0.87297587100E+02 -0.13164727242E+04  0.16089800942E+04  0.91648746727E+03 0.  0.
         23    2    4    4    0    0  0.19494039379E+03  0.21899509319E+03 -0.67016548407E+02  0.31492538603E+03  0.93413987376E+02 0.  0.
         23    2    4    4    0    0 -0.10468318571E+03 -0.30629268029E+03 -0.12494561758E+04  0.12940547081E+04  0.93075652856E+02 0.  0.
          4    1    3    3  502    0 -0.90797831680E+02  0.51800964672E+02 -0.10484966402E+03  0.14805755038E+03  0.00000000000E+00 0. -1.
         -3    1    3    3    0  502  0.54062359720E+00  0.35496622429E+02 -0.91838925404E+02  0.98461620426E+02  0.00000000000E+00 0.  1.
         13    1    5    5    0    0  0.74377572665E+02  0.15240821108E+03 -0.29041669266E+02  0.17205727149E+03  0.00000000000E+00 0.  1.
        -13    1    5    5    0    0  0.12056282113E+03  0.66586882104E+02 -0.37974879141E+02  0.14286811454E+03  0.00000000000E+00 0. -1.
          1    1    6    6  503    0 -0.52544697318E+02 -0.55975976330E+02 -0.20941337470E+03  0.22304308249E+03  0.00000000000E+00 0. -1.
         -1    1    6    6    0  503 -0.52138488390E+02 -0.25031670396E+03 -0.10400428011E+04  0.10710116257E+04  0.00000000000E+00 0.  1.
<mgrwt>
<rscale>  0 0.10738810E+04</rscale>
<asrwt>0</asrwt>
<pdfrwt beam="1">  1        2 0.25912773E+00 0.10738810E+04</pdfrwt>
<pdfrwt beam="2">  1       -1 0.26333689E-01 0.10738810E+04</pdfrwt>
<totfact> 0.14517021E+02</totfact>
</mgrwt>
</event>
<event>
12    7  0.1637954E-007  0.1952444E+04  0.7818608E-02  0.8629183E-01
         -1   -1    0    0    0  501 -0.00000000000E+00  0.00000000000E+00  0.26322954424E+03  0.26322954424E+03  0.00000000000E+00 0.  1.
          2   -1    0    0  501    0  0.00000000000E+00 -0.00000000000E+00 -0.36204498815E+04  0.36204498815E+04  0.00000000000E+00 0. -1.
         24    2    1    2    0    0 -0.70391510765E+03 -0.28388925084E+03 -0.15467670777E+04  0.17246879388E+04  0.77269064426E+02 0.  0.
        254    2    1    2    0    0  0.70391510765E+03  0.28388925084E+03 -0.18104532596E+04  0.21589914869E+04  0.89856198997E+03 0.  0.
         23    2    4    4    0    0  0.13024803865E+03  0.49154326933E+03 -0.54188832179E+03  0.74850767283E+03  0.89674108822E+02 0.  0.
         23    2    4    4    0    0  0.57366706899E+03 -0.20765401848E+03 -0.12685649378E+04  0.14104838141E+04  0.89406324768E+02 0.  0.
          2    1    3    3  502    0 -0.29758350292E+03 -0.12741336190E+03 -0.74570245891E+03  0.81293435358E+03  0.00000000000E+00 0. -1.
         -1    1    3    3    0  502 -0.40633160473E+03 -0.15647588895E+03 -0.80106461876E+03  0.91175358527E+03  0.00000000000E+00 0.  1.
         13    1    5    5    0    0  0.22981373558E+01  0.15616417267E+03 -0.14119480515E+03  0.21054335245E+03  0.00000000000E+00 0.  1.
        -13    1    5    5    0    0  0.12794990130E+03  0.33537909666E+03 -0.40069351664E+03  0.53796432038E+03  0.00000000000E+00 0. -1.
          1    1    6    6  503    0  0.31670780625E+03 -0.96005945297E+02 -0.59234833668E+03  0.67852599658E+03  0.00000000000E+00 0.  1.
         -1    1    6    6    0  503  0.25695926274E+03 -0.11164807318E+03 -0.67621660110E+03  0.73195781747E+03  0.00000000000E+00 0. -1.
<mgrwt>
<rscale>  0 0.19524440E+04</rscale>
<asrwt>0</asrwt>
<pdfrwt beam="1">  1        2 0.55699227E+00 0.19524440E+04</pdfrwt>
<pdfrwt beam="2">  1       -1 0.40496854E-01 0.19524440E+04</pdfrwt>
<totfact> 0.42492142E+00</totfact>
</mgrwt>
</event>
<event>
12    7  0.1637954E-007  0.1643075E+04  0.7818608E-02  0.8794514E-01
         -1   -1    0    0    0  501 -0.00000000000E+00  0.00000000000E+00  0.13039891708E+04  0.13039891708E+04  0.00000000000E+00 0.  1.
          2   -1    0    0  501    0  0.00000000000E+00 -0.00000000000E+00 -0.51758371212E+03  0.51758371212E+03  0.00000000000E+00 0. -1.
         24    2    1    2    0    0 -0.40688236244E+01  0.40580548604E+03  0.75915530616E+03  0.86445604855E+03  0.79201219559E+02 0.  0.
        254    2    1    2    0    0  0.40688236244E+01 -0.40580548604E+03  0.27250152559E+02  0.95711683440E+03  0.86639218375E+03 0.  0.
         23    2    4    4    0    0 -0.48431863207E+02 -0.66686634660E+03  0.20827290486E+02  0.67486879077E+03  0.89206160850E+02 0.  0.
         23    2    4    4    0    0  0.52500686831E+02  0.26106086056E+03  0.64228620732E+01  0.28224804363E+03  0.93346718954E+02 0.  0.
          2    1    3    3  502    0  0.82835175109E+01  0.16566997959E+03  0.23356869110E+03  0.28647773433E+03  0.00000000000E+00 0. -1.
         -3    1    3    3    0  502 -0.12352341135E+02  0.24013550644E+03  0.52558661506E+03  0.57797831422E+03  0.00000000000E+00 0.  1.
         13    1    5    5    0    0 -0.38277115945E+02 -0.47462677929E+03 -0.25552981023E+02  0.47685288304E+03  0.00000000000E+00 0. -1.
        -13    1    5    5    0    0 -0.10154747262E+02 -0.19223956731E+03  0.46380271509E+02  0.19801590774E+03  0.00000000000E+00 0.  1.
          2    1    6    6  503    0  0.53807012551E+02  0.13753193473E+03  0.42275843636E+02  0.15361469534E+03  0.00000000000E+00 0. -1.
         -2    1    6    6    0  503 -0.13063257195E+01  0.12352892583E+03 -0.35852981563E+02  0.12863334828E+03  0.00000000000E+00 0.  1.
<mgrwt>
<rscale>  0 0.16430746E+04</rscale>
<asrwt>0</asrwt>
<pdfrwt beam="1">  1        2 0.79628264E-01 0.16430746E+04</pdfrwt>
<pdfrwt beam="2">  1       -1 0.20061372E+00 0.16430746E+04</pdfrwt>
<totfact> 0.96273685E+00</totfact>
</mgrwt>
</event>
<event>
12    7  0.1637954E-007  0.1948378E+04  0.7818608E-02  0.8631143E-01
          2   -1    0    0  501    0  0.00000000000E+00  0.00000000000E+00  0.15324766388E+04  0.15324766388E+04  0.00000000000E+00 0. -1.
         -1   -1    0    0    0  501 -0.00000000000E+00 -0.00000000000E+00 -0.61928809689E+03  0.61928809689E+03  0.00000000000E+00 0.  1.
         24    2    1    2    0    0  0.24724619173E+03 -0.53927174881E+03 -0.17047190076E+03  0.62226032367E+03  0.78756225649E+02 0.  0.
        254    2    1    2    0    0 -0.24724619173E+03  0.53927174881E+03  0.10836604426E+04  0.15295044120E+04  0.90173116445E+03 0.  0.
         23    2    4    4    0    0  0.13795536152E+03  0.41164748105E+03  0.90606464328E+02  0.45307746669E+03  0.92651654162E+02 0.  0.
         23    2    4    4    0    0 -0.38520155325E+03  0.12762426777E+03  0.99305397831E+03  0.10764269453E+04  0.88716257655E+02 0.  0.
          4    1    3    3  502    0  0.16875070198E+03 -0.40230339499E+03 -0.91548303288E+02  0.44576441409E+03  0.00000000000E+00 0. -1.
         -3    1    3    3    0  502  0.78495489746E+02 -0.13696835382E+03 -0.78923597476E+02  0.17649590958E+03  0.00000000000E+00 0.  1.
         13    1    5    5    0    0  0.99560511778E+02  0.15365536859E+03  0.37831273087E+02  0.18695847941E+03  0.00000000000E+00 0.  1.
        -13    1    5    5    0    0  0.38394849742E+02  0.25799211246E+03  0.52775191241E+02  0.26611898728E+03  0.00000000000E+00 0. -1.
          1    1    6    6  503    0 -0.31699970747E+03  0.11832605661E+03  0.89324749726E+03  0.95518634913E+03  0.00000000000E+00 0. -1.
         -1    1    6    6    0  503 -0.68201845775E+02  0.92982111544E+01  0.99806481049E+02  0.12124059616E+03  0.00000000000E+00 0.  1.
<mgrwt>
<rscale>  0 0.19483783E+04</rscale>
<asrwt>0</asrwt>
<pdfrwt beam="1">  1        2 0.23576564E+00 0.19483783E+04</pdfrwt>
<pdfrwt beam="2">  1       -1 0.95275092E-01 0.19483783E+04</pdfrwt>
<totfact> 0.13760544E+01</totfact>
</mgrwt>
</event>
<event>
12    7  0.1637954E-007  0.2154986E+04  0.7818608E-02  0.8537401E-01
          2   -1    0    0  501    0  0.00000000000E+00  0.00000000000E+00  0.15976190304E+04  0.15976190304E+04  0.00000000000E+00 0. -1.
         -3   -1    0    0    0  501 -0.00000000000E+00 -0.00000000000E+00 -0.72670098383E+03  0.72670098383E+03  0.00000000000E+00 0.  1.
         24    2    1    2    0    0  0.58230479866E+03 -0.18656610553E+03 -0.33787538770E+03  0.70093780303E+03  0.57168486298E+02 0.  0.
        254    2    1    2    0    0 -0.58230479866E+03  0.18656610553E+03  0.12087934343E+04  0.16233822112E+04  0.89459624784E+03 0.  0.
         23    2    4    4    0    0 -0.62484481193E+02  0.47023835609E+03  0.58628042367E+03  0.75931240398E+03  0.88329891536E+02 0.  0.
         23    2    4    4    0    0 -0.51982031746E+03 -0.28367225056E+03  0.62251301062E+03  0.86406980724E+03  0.91711914182E+02 0.  0.
          4    1    3    3  502    0  0.98440061917E+02 -0.27922010750E+02 -0.81599206302E+02  0.13087595250E+03  0.00000000000E+00 0. -1.
         -3    1    3    3    0  502  0.48386473674E+03 -0.15864409478E+03 -0.25627618140E+03  0.57006185052E+03  0.00000000000E+00 0.  1.
         13    1    5    5    0    0  0.17366293963E+02  0.93896163947E+02  0.14801350740E+03  0.17614220432E+03  0.00000000000E+00 0. -1.
        -13    1    5    5    0    0 -0.79850775156E+02  0.37634219214E+03  0.43826691627E+03  0.58317019966E+03  0.00000000000E+00 0.  1.
          1    1    6    6  503    0 -0.58139734955E+02 -0.50371898172E+02  0.46531752796E+02  0.89904176346E+02  0.00000000000E+00 0. -1.
         -1    1    6    6    0  503 -0.46168058251E+03 -0.23330035238E+03  0.57598125783E+03  0.77416563089E+03  0.00000000000E+00 0.  1.
<mgrwt>
<rscale>  0 0.21549861E+04</rscale>
<asrwt>0</asrwt>
<pdfrwt beam="1">  1        2 0.24578754E+00 0.21549861E+04</pdfrwt>
<pdfrwt beam="2">  1       -3 0.11180015E+00 0.21549861E+04</pdfrwt>
<totfact> 0.43773621E+00</totfact>
</mgrwt>
</event>
<event>
12    7  0.1637954E-007  0.1154754E+04  0.7818608E-02  0.9153409E-01
          2   -1    0    0  501    0  0.00000000000E+00  0.00000000000E+00  0.25491011420E+04  0.25491011420E+04  0.00000000000E+00 0. -1.
         -1   -1    0    0    0  501 -0.00000000000E+00 -0.00000000000E+00 -0.13077721332E+03  0.13077721332E+03  0.00000000000E+00 0.  1.
         24    2    1    2    0    0  0.13681286406E+03 -0.14473385083E+03  0.27856329999E+03  0.35111865795E+03  0.77596085682E+02 0.  0.
        254    2    1    2    0    0 -0.13681286406E+03  0.14473385083E+03  0.21397606287E+04  0.23287596974E+04  0.89715134323E+03 0.  0.
         23    2    4    4    0    0  0.23331158182E+03  0.47245946981E+01  0.13796117600E+03  0.28581618945E+03  0.90559328966E+02 0.  0.
         23    2    4    4    0    0 -0.37012444588E+03  0.14000925614E+03  0.20017994527E+04  0.20429435080E+04  0.99108175881E+02 0.  0.
          4    1    3    3  502    0  0.68169907258E+02 -0.65688481103E+02  0.69942023929E+02  0.11770301405E+03  0.00000000000E+00 0. -1.
         -3    1    3    3    0  502  0.68642956804E+02 -0.79045369732E+02  0.20862127606E+03  0.23341564390E+03  0.00000000000E+00 0.  1.
         13    1    5    5    0    0  0.62450238794E+02  0.24887974536E+02  0.32510523054E+01  0.67305370834E+02  0.00000000000E+00 0. -1.
        -13    1    5    5    0    0  0.17086134302E+03 -0.20163379838E+02  0.13471012370E+03  0.21851081862E+03  0.00000000000E+00 0.  1.
          1    1    6    6  503    0 -0.62687588691E+02  0.42788130325E+01  0.50420159494E+03  0.50810165356E+03  0.00000000000E+00 0. -1.
         -1    1    6    6    0  503 -0.30743685719E+03  0.13573044310E+03  0.14975978578E+04  0.15348418544E+04  0.00000000000E+00 0.  1.
<mgrwt>
<rscale>  0 0.11547542E+04</rscale>
<asrwt>0</asrwt>
<pdfrwt beam="1">  1        2 0.39216937E+00 0.11547542E+04</pdfrwt>
<pdfrwt beam="2">  1       -1 0.20119573E-01 0.11547542E+04</pdfrwt>
<totfact> 0.75008863E+01</totfact>
</mgrwt>
</event>
<event>
12    7  0.1637954E-007  0.1707659E+04  0.7818608E-02  0.8757008E-01
         -1   -1    0    0    0  501 -0.00000000000E+00  0.00000000000E+00  0.38372477264E+03  0.38372477264E+03  0.00000000000E+00 0.  1.
          2   -1    0    0  501    0  0.00000000000E+00 -0.00000000000E+00 -0.18998632932E+04  0.18998632932E+04  0.00000000000E+00 0. -1.
         24    2    1    2    0    0  0.24790969284E+03  0.95594240658E+02 -0.12830323807E+04  0.13127284418E+04  0.80538173471E+02 0.  0.
        254    2    1    2    0    0 -0.24790969284E+03 -0.95594240658E+02 -0.23310613988E+03  0.97085962403E+03  0.90423031495E+03 0.  0.
         23    2    4    4    0    0  0.44034544757E+02 -0.37226025236E+03 -0.37133826309E+03  0.53571332447E+03  0.92627877817E+02 0.  0.
         23    2    4    4    0    0 -0.29194423759E+03  0.27666601171E+03  0.13823212322E+03  0.43514629957E+03  0.92025334764E+02 0.  0.
          2    1    3    3  502    0  0.24172177962E+03  0.72668058836E+02 -0.11285896716E+04  0.11564708005E+04  0.00000000000E+00 0. -1.
         -1    1    3    3    0  502  0.61879132138E+01  0.22926181822E+02 -0.15444270909E+03  0.15625764133E+03  0.00000000000E+00 0.  1.
         13    1    5    5    0    0  0.47209493682E+02 -0.36699374935E+03 -0.37634965392E+03  0.52778045659E+03  0.00000000000E+00 0. -1.
        -13    1    5    5    0    0 -0.31749489255E+01 -0.52665030165E+01  0.50113908250E+01  0.79328678739E+01  0.00000000000E+00 0.  1.
          4    1    6    6  503    0 -0.61646796681E+02  0.17458287509E+02  0.36761134687E+02  0.73868128224E+02  0.00000000000E+00 0.  1.
         -4    1    6    6    0  503 -0.23029744091E+03  0.25920772420E+03  0.10147098853E+03  0.36127817134E+03  0.00000000000E+00 0. -1.
<mgrwt>
<rscale>  0 0.17076588E+04</rscale>
<asrwt>0</asrwt>
<pdfrwt beam="1">  1        2 0.29228666E+00 0.17076588E+04</pdfrwt>
<pdfrwt beam="2">  1       -1 0.59034580E-01 0.17076588E+04</pdfrwt>
<totfact> 0.23925928E+01</totfact>
</mgrwt>
</event>
<event>
12    7  0.1637954E-007  0.1490648E+04  0.7818608E-02  0.8890696E-01
          2   -1    0    0  501    0  0.00000000000E+00  0.00000000000E+00  0.99545931225E+03  0.99545931225E+03  0.00000000000E+00 0. -1.
         -1   -1    0    0    0  501 -0.00000000000E+00 -0.00000000000E+00 -0.55804163717E+03  0.55804163717E+03  0.00000000000E+00 0.  1.
         24    2    1    2    0    0 -0.46128817489E+03  0.59325618164E+02  0.20858139783E+03  0.51584691945E+03  0.79281369310E+02 0.  0.
        254    2    1    2    0    0  0.46128817489E+03 -0.59325618164E+02  0.22883627725E+03  0.10376540300E+04  0.89891798006E+03 0.  0.
         23    2    4    4    0    0  0.15084898273E+03  0.91061423569E+02  0.53334326121E+03  0.56850422594E+03  0.87717855523E+02 0.  0.
         23    2    4    4    0    0  0.31043919216E+03 -0.15038704173E+03 -0.30450698396E+03  0.46914980404E+03  0.91587559168E+02 0.  0.
          2    1    3    3  502    0 -0.19341813821E+03  0.26274814056E+01  0.12193053520E+03  0.22865811873E+03  0.00000000000E+00 0. -1.
         -1    1    3    3    0  502 -0.26787003668E+03  0.56698136758E+02  0.86650862625E+02  0.28718880072E+03  0.00000000000E+00 0.  1.
         13    1    5    5    0    0  0.29054218994E+02  0.66508618414E+02  0.19901049159E+03  0.21183181944E+03  0.00000000000E+00 0.  1.
        -13    1    5    5    0    0  0.12179476373E+03  0.24552805155E+02  0.33433276963E+03  0.35667240650E+03  0.00000000000E+00 0. -1.
          3    1    6    6  503    0  0.23856660986E+03 -0.11552710408E+03 -0.28006775392E+03  0.38561442647E+03  0.00000000000E+00 0. -1.
         -3    1    6    6    0  503  0.71872582302E+02 -0.34859937655E+02 -0.24439230044E+02  0.83535377567E+02  0.00000000000E+00 0.  1.
<mgrwt>
<rscale>  0 0.14906478E+04</rscale>
<asrwt>0</asrwt>
<pdfrwt beam="1">  1        2 0.15314759E+00 0.14906478E+04</pdfrwt>
<pdfrwt beam="2">  1       -1 0.85852560E-01 0.14906478E+04</pdfrwt>
<totfact> 0.37485870E+01</totfact>
</mgrwt>
</event>
<event>
12    7  0.1637954E-007  0.1153926E+04  0.7818608E-02  0.9154170E-01
          2   -1    0    0  501    0  0.00000000000E+00  0.00000000000E+00  0.19146613050E+04  0.19146613050E+04  0.00000000000E+00 0. -1.
         -1   -1    0    0    0  501 -0.00000000000E+00 -0.00000000000E+00 -0.17386157951E+03  0.17386157951E+03  0.00000000000E+00 0.  1.
         24    2    1    2    0    0  0.46386456514E+01  0.10913742477E+03  0.61755126838E+03  0.63221871770E+03  0.79990270703E+02 0.  0.
        254    2    1    2    0    0 -0.46386456514E+01 -0.10913742477E+03  0.11232484571E+04  0.14563041668E+04  0.92043589420E+03 0.  0.
         23    2    4    4    0    0  0.44071379011E+03  0.21146421377E+02  0.59577628949E+03  0.74708636763E+03  0.92265040221E+02 0.  0.
         23    2    4    4    0    0 -0.44535243576E+03 -0.13028384614E+03  0.52747216757E+03  0.70921779913E+03  0.97212789483E+02 0.  0.
          4    1    3    3  502    0 -0.26573745652E+01  0.12031419054E+03  0.58033313867E+03  0.59267960816E+03  0.00000000000E+00 0. -1.
         -3    1    3    3    0  502  0.72960202166E+01 -0.11176765770E+02  0.37218129711E+02  0.39539109541E+02  0.00000000000E+00 0.  1.
         13    1    5    5    0    0  0.86543783677E+02  0.12164543099E+02  0.18520599928E+03  0.20479029463E+03  0.00000000000E+00 0.  1.
        -13    1    5    5    0    0  0.35417000644E+03  0.89818782776E+01  0.41057029021E+03  0.54229607301E+03  0.00000000000E+00 0. -1.
          1    1    6    6  503    0 -0.43015799155E+03 -0.14306911237E+03  0.49552886648E+03  0.67160518619E+03  0.00000000000E+00 0. -1.
         -1    1    6    6    0  503 -0.15194444216E+02  0.12785266229E+02  0.31943301090E+02  0.37612612938E+02  0.00000000000E+00 0.  1.
<mgrwt>
<rscale>  0 0.11539255E+04</rscale>
<asrwt>0</asrwt>
<pdfrwt beam="1">  1        2 0.29456326E+00 0.11539255E+04</pdfrwt>
<pdfrwt beam="2">  1       -1 0.26747937E-01 0.11539255E+04</pdfrwt>
<totfact> 0.10484447E+02</totfact>
</mgrwt>
</event>
<event>
12    7  0.1637954E-007  0.1324262E+04  0.7818608E-02  0.9010544E-01
         -1   -1    0    0    0  501 -0.00000000000E+00  0.00000000000E+00  0.38148123745E+03  0.38148123745E+03  0.00000000000E+00 0.  1.
          2   -1    0    0  501    0  0.00000000000E+00 -0.00000000000E+00 -0.11492496706E+04  0.11492496706E+04  0.00000000000E+00 0. -1.
         24    2    1    2    0    0 -0.20257192447E+03 -0.24798430190E+03 -0.43633562284E+02  0.33253451152E+03  0.78381853909E+02 0.  0.
        254    2    1    2    0    0  0.20257192447E+03  0.24798430190E+03 -0.72413487088E+03  0.11981963965E+04  0.89931734939E+03 0.  0.
         23    2    4    4    0    0 -0.51404935136E+02 -0.22342740011E+03 -0.58766448034E+03  0.63800425076E+03  0.95590857605E+02 0.  0.
         23    2    4    4    0    0  0.25397685961E+03  0.47141170201E+03 -0.13647039054E+03  0.56019214579E+03  0.91966486830E+02 0.  0.
          4    1    3    3  502    0 -0.38622728375E+02 -0.91816195759E+02  0.91853487779E+01  0.10003149296E+03  0.00000000000E+00 0. -1.
         -3    1    3    3    0  502 -0.16394919610E+03 -0.15616810614E+03 -0.52818911062E+02  0.23250301856E+03  0.00000000000E+00 0.  1.
         13    1    5    5    0    0  0.22771345357E+02 -0.97657869937E+02 -0.19947324535E+03  0.22326031743E+03  0.00000000000E+00 0. -1.
        -13    1    5    5    0    0 -0.74176280494E+02 -0.12576953018E+03 -0.38819123499E+03  0.41474393333E+03  0.00000000000E+00 0.  1.
          2    1    6    6  503    0  0.45627051228E+02  0.29036651972E+02 -0.18713360873E+02  0.57228881141E+02  0.00000000000E+00 0.  1.
         -2    1    6    6    0  503  0.20834980838E+03  0.44237505004E+03 -0.11775702967E+03  0.50296326465E+03  0.00000000000E+00 0. -1.
<mgrwt>
<rscale>  0 0.13242616E+04</rscale>
<asrwt>0</asrwt>
<pdfrwt beam="1">  1        2 0.17680764E+00 0.13242616E+04</pdfrwt>
<pdfrwt beam="2">  1       -1 0.58689423E-01 0.13242616E+04</pdfrwt>
<totfact> 0.66720968E+01</totfact>
</mgrwt>
</event>
<event>
12    7  0.1637954E-007  0.1277230E+04  0.7818608E-02  0.9047819E-01
          2   -1    0    0  501    0  0.00000000000E+00  0.00000000000E+00  0.15042840162E+04  0.15042840162E+04  0.00000000000E+00 0. -1.
         -1   -1    0    0    0  501 -0.00000000000E+00 -0.00000000000E+00 -0.27111187384E+03  0.27111187384E+03  0.00000000000E+00 0.  1.
         24    2    1    2    0    0  0.12421400853E+03  0.88501004886E+02  0.74233934836E+03  0.76212764464E+03  0.80680176178E+02 0.  0.
        254    2    1    2    0    0 -0.12421400853E+03 -0.88501004886E+02  0.49083279404E+03  0.10132682454E+04  0.87323201828E+03 0.  0.
         23    2    4    4    0    0  0.34260297793E+03 -0.89054194112E+02  0.56052732066E+02  0.36902716185E+03  0.87930014391E+02 0.  0.
         23    2    4    4    0    0 -0.46681698646E+03  0.55318922657E+00  0.43478006198E+03  0.64424108360E+03  0.89969253858E+02 0.  0.
          4    1    3    3  502    0  0.18675701196E+02  0.64881768969E+00  0.25863896579E+03  0.25931316473E+03  0.00000000000E+00 0. -1.
         -3    1    3    3    0  502  0.10553830733E+03  0.87852187196E+02  0.48370038257E+03  0.50281447991E+03  0.00000000000E+00 0.  1.
         13    1    5    5    0    0  0.14489522865E+02 -0.64443291828E+01  0.24529039125E+02  0.29208721504E+02  0.00000000000E+00 0.  1.
        -13    1    5    5    0    0  0.32811345507E+03 -0.82609864929E+02  0.31523692941E+02  0.33981844034E+03  0.00000000000E+00 0. -1.
          1    1    6    6  503    0 -0.41948480607E+03  0.25222120139E+02  0.36675084556E+03  0.55777221210E+03  0.00000000000E+00 0. -1.
         -1    1    6    6    0  503 -0.47332180389E+02 -0.24668930912E+02  0.68029216416E+02  0.86468871502E+02  0.00000000000E+00 0.  1.
<mgrwt>
<rscale>  0 0.12772302E+04</rscale>
<asrwt>0</asrwt>
<pdfrwt beam="1">  1        2 0.23142831E+00 0.12772302E+04</pdfrwt>
<pdfrwt beam="2">  1       -1 0.41709520E-01 0.12772302E+04</pdfrwt>
<totfact> 0.79605610E+01</totfact>
</mgrwt>
</event>
<event>
12    7  0.1637954E-007  0.1491397E+04  0.7818608E-02  0.8890194E-01
          2   -1    0    0  501    0  0.00000000000E+00  0.00000000000E+00  0.16358136749E+04  0.16358136749E+04  0.00000000000E+00 0. -1.
         -1   -1    0    0    0  501 -0.00000000000E+00 -0.00000000000E+00 -0.33993247249E+03  0.33993247249E+03  0.00000000000E+00 0.  1.
         24    2    1    2    0    0 -0.28273783572E+03 -0.61938844780E+02 -0.74119688132E+02  0.30948879163E+03  0.80699936426E+02 0.  0.
        254    2    1    2    0    0  0.28273783572E+03  0.61938844780E+02  0.13700008905E+04  0.16662573557E+04  0.90317995508E+03 0.  0.
         23    2    4    4    0    0  0.48778949562E+03  0.33200552229E+03  0.86353981999E+03  0.10499393556E+04  0.92224567666E+02 0.  0.
         23    2    4    4    0    0 -0.20505165990E+03 -0.27006667751E+03  0.50646107053E+03  0.61631800012E+03  0.91448716683E+02 0.  0.
          2    1    3    3  502    0 -0.37396726386E+02  0.15413603825E+02 -0.25129471220E+02  0.47619162646E+02  0.00000000000E+00 0. -1.
         -1    1    3    3    0  502 -0.24534110933E+03 -0.77352448605E+02 -0.48990216912E+02  0.26186962899E+03  0.00000000000E+00 0.  1.
         13    1    5    5    0    0  0.39462407857E+02  0.47009888413E+01  0.36979025653E+02  0.54284705657E+02  0.00000000000E+00 0. -1.
        -13    1    5    5    0    0  0.44832708776E+03  0.32730453344E+03  0.82656079434E+03  0.99565464995E+03  0.00000000000E+00 0.  1.
          2    1    6    6  503    0 -0.88897176004E+02 -0.49216129788E+02  0.15176915331E+03  0.18264394660E+03  0.00000000000E+00 0. -1.
         -2    1    6    6    0  503 -0.11615448390E+03 -0.22085054772E+03  0.35469191722E+03  0.43367405352E+03  0.00000000000E+00 0.  1.
<mgrwt>
<rscale>  0 0.14913969E+04</rscale>
<asrwt>0</asrwt>
<pdfrwt beam="1">  1        2 0.25166364E+00 0.14913969E+04</pdfrwt>
<pdfrwt beam="2">  1       -1 0.52297304E-01 0.14913969E+04</pdfrwt>
<totfact> 0.43199335E+01</totfact>
</mgrwt>
</event>
<event>
12    7  0.1637954E-007  0.2055836E+04  0.7818608E-02  0.8580951E-01
          2   -1    0    0  501    0  0.00000000000E+00  0.00000000000E+00  0.18845240119E+04  0.18845240119E+04  0.00000000000E+00 0. -1.
         -1   -1    0    0    0  501 -0.00000000000E+00 -0.00000000000E+00 -0.56068037739E+03  0.56068037739E+03  0.00000000000E+00 0.  1.
         24    2    1    2    0    0 -0.37234642183E+03  0.72330604220E+03  0.72459784816E+03  0.10921899988E+04  0.77610974692E+02 0.  0.
        254    2    1    2    0    0  0.37234642183E+03 -0.72330604220E+03  0.59924578634E+03  0.13530143905E+04  0.89985495490E+03 0.  0.
         23    2    4    4    0    0  0.44232165594E+03 -0.24427870629E+03 -0.74398176874E+02  0.51876607537E+03  0.90898947039E+02 0.  0.
         23    2    4    4    0    0 -0.69975234110E+02 -0.47902733591E+03  0.67364396322E+03  0.83424831511E+03  0.88376128842E+02 0.  0.
          4    1    3    3  502    0 -0.23136949547E+03  0.52634762213E+03  0.51501869758E+03  0.77189242879E+03  0.00000000000E+00 0. -1.
         -3    1    3    3    0  502 -0.14097692636E+03  0.19695842007E+03  0.20957915057E+03  0.32029757002E+03  0.00000000000E+00 0.  1.
         13    1    5    5    0    0  0.44649705187E+03 -0.24397969337E+03 -0.71825732121E+02  0.51385274534E+03  0.00000000000E+00 0. -1.
        -13    1    5    5    0    0 -0.41753959332E+01 -0.29901292870E+00 -0.25724447529E+01  0.49133300252E+01  0.00000000000E+00 0.  1.
          3    1    6    6  503    0 -0.60260545327E+02 -0.42377030417E+03  0.53828948154E+03  0.68772681347E+03  0.00000000000E+00 0. -1.
         -3    1    6    6    0  503 -0.97146887823E+01 -0.55257031734E+02  0.13535448167E+03  0.14652150164E+03  0.00000000000E+00 0.  1.
<mgrwt>
<rscale>  0 0.20558362E+04</rscale>
<asrwt>0</asrwt>
<pdfrwt beam="1">  1        2 0.28992677E+00 0.20558362E+04</pdfrwt>
<pdfrwt beam="2">  1       -1 0.86258521E-01 0.20558362E+04</pdfrwt>
<totfact> 0.10814260E+01</totfact>
</mgrwt>
</event>
<event>
12    7  0.1637954E-007  0.1703998E+04  0.7818608E-02  0.8759087E-01
         -1   -1    0    0    0  501 -0.00000000000E+00  0.00000000000E+00  0.28895026209E+03  0.28895026209E+03  0.00000000000E+00 0.  1.
          2   -1    0    0  501    0  0.00000000000E+00 -0.00000000000E+00 -0.25122063204E+04  0.25122063204E+04  0.00000000000E+00 0. -1.
         24    2    1    2    0    0  0.23658268190E+03  0.55947486838E+03 -0.64669820554E+03  0.89092582285E+03  0.80912045134E+02 0.  0.
        254    2    1    2    0    0 -0.23658268190E+03 -0.55947486838E+03 -0.15765578528E+04  0.19102307596E+04  0.89132676286E+03 0.  0.
         23    2    4    4    0    0  0.17685550482E+03  0.21139404877E+02 -0.25849068396E+02  0.20104184479E+03  0.89581834078E+02 0.  0.
         23    2    4    4    0    0 -0.41343818673E+03 -0.58061427326E+03 -0.15507087844E+04  0.17091889148E+04  0.92654973597E+02 0.  0.
          2    1    3    3  502    0  0.27972182639E+02  0.25264190861E+02 -0.57060564892E+02  0.68385893335E+02  0.00000000000E+00 0. -1.
         -1    1    3    3    0  502  0.20861049927E+03  0.53421067752E+03 -0.58963764065E+03  0.82253992952E+03  0.00000000000E+00 0.  1.
         13    1    5    5    0    0  0.17103666749E+03 -0.63497782664E+01 -0.24625090628E+02  0.17291690605E+03  0.00000000000E+00 0.  1.
        -13    1    5    5    0    0  0.58188373350E+01  0.27489183144E+02 -0.12239777673E+01  0.28124938745E+02  0.00000000000E+00 0. -1.
          2    1    6    6  503    0 -0.16360659960E+03 -0.23317106513E+03 -0.51442201024E+03  0.58801859636E+03  0.00000000000E+00 0. -1.
         -2    1    6    6    0  503 -0.24983158713E+03 -0.34744320812E+03 -0.10362867741E+04  0.11211703185E+04  0.00000000000E+00 0.  1.
<mgrwt>
<rscale>  0 0.17039984E+04</rscale>
<asrwt>0</asrwt>
<pdfrwt beam="1">  1        2 0.38649330E+00 0.17039984E+04</pdfrwt>
<pdfrwt beam="2">  1       -1 0.44453884E-01 0.17039984E+04</pdfrwt>
<totfact> 0.18618288E+01</totfact>
</mgrwt>
</event>
<event>
12    7  0.1637954E-007  0.1641137E+04  0.7818608E-02  0.8795667E-01
          2   -1    0    0  501    0  0.00000000000E+00  0.00000000000E+00  0.10372303253E+04  0.10372303253E+04  0.00000000000E+00 0. -1.
         -1   -1    0    0    0  501 -0.00000000000E+00 -0.00000000000E+00 -0.64916396868E+03  0.64916396868E+03  0.00000000000E+00 0.  1.
         24    2    1    2    0    0 -0.16002098900E+03  0.17136834595E+03  0.66792865829E+03  0.71251338317E+03  0.81072817426E+02 0.  0.
        254    2    1    2    0    0  0.16002098900E+03 -0.17136834595E+03 -0.27986230167E+03  0.97388091080E+03  0.90285507896E+03 0.  0.
         23    2    4    4    0    0  0.80228880663E+02  0.67756782490E+02 -0.56609615239E+03  0.58256133371E+03  0.88798642528E+02 0.  0.
         23    2    4    4    0    0  0.79792108335E+02 -0.23912512844E+03  0.28623385072E+03  0.39131957709E+03  0.87484778724E+02 0.  0.
          2    1    3    3  502    0 -0.95681798054E+02  0.15406934495E+03  0.49728947863E+03  0.52932900458E+03  0.00000000000E+00 0. -1.
         -1    1    3    3    0  502 -0.64339190943E+02  0.17299001002E+02  0.17063917965E+03  0.18318437859E+03  0.00000000000E+00 0.  1.
         13    1    5    5    0    0 -0.19587846979E+02  0.14415007425E+02 -0.95712288417E+02  0.98753826976E+02  0.00000000000E+00 0. -1.
        -13    1    5    5    0    0  0.99816727641E+02  0.53341775065E+02 -0.47038386398E+03  0.48380750674E+03  0.00000000000E+00 0.  1.
          3    1    6    6  503    0  0.43980476822E+01  0.76368426886E+01  0.94109876043E+01  0.12893055392E+02  0.00000000000E+00 0. -1.
         -3    1    6    6    0  503  0.75394060653E+02 -0.24676197113E+03  0.27682286312E+03  0.37842652170E+03  0.00000000000E+00 0.  1.
<mgrwt>
<rscale>  0 0.16411369E+04</rscale>
<asrwt>0</asrwt>
<pdfrwt beam="1">  1        2 0.15957390E+00 0.16411369E+04</pdfrwt>
<pdfrwt beam="2">  1       -1 0.99871380E-01 0.16411369E+04</pdfrwt>
<totfact> 0.24864346E+01</totfact>
</mgrwt>
</event>
<event>
12    7  0.1867056E-007  0.1735529E+04  0.7818608E-02  0.8741356E-01
          2   -1    0    0  501    0  0.00000000000E+00  0.00000000000E+00  0.17288652905E+04  0.17288652905E+04  0.00000000000E+00 0. -1.
         -1   -1    0    0    0  501 -0.00000000000E+00 -0.00000000000E+00 -0.43555480797E+03  0.43555480797E+03  0.00000000000E+00 0.  1.
         24    2    1    2    0    0  0.42518808472E+03 -0.37238603654E+03  0.82320304799E+03  0.10012769382E+04  0.73729106235E+02 0.  0.
        254    2    1    2    0    0 -0.42518808472E+03  0.37238603654E+03  0.47010743453E+03  0.11631431603E+04  0.90135716767E+03 0.  0.
         23    2    4    4    0    0 -0.24932011101E+03  0.41652586582E+03 -0.14488028124E+03  0.51544581274E+03  0.95077733091E+02 0.  0.
         23    2    4    4    0    0 -0.17586797371E+03 -0.44139829271E+02  0.61498771578E+03  0.64769734754E+03  0.91782867426E+02 0.  0.
          4    1    3    3  502    0  0.41502145107E+03 -0.37030497088E+03  0.78765612032E+03  0.96424620309E+03  0.00000000000E+00 0. -1.
         -3    1    3    3    0  502  0.10166633653E+02 -0.20810656656E+01  0.35546927667E+02  0.37030735082E+02  0.00000000000E+00 0.  1.
         13    1    5    5    0    0 -0.22146616992E+03  0.40409183661E+03 -0.14982118903E+03  0.48454500877E+03  0.00000000000E+00 0.  1.
        -13    1    5    5    0    0 -0.27853941091E+02  0.12434029201E+02  0.49409077869E+01  0.30900803974E+02  0.00000000000E+00 0. -1.
          3    1    6    6  503    0 -0.13483358760E+03 -0.20519925550E+02  0.30487267402E+03  0.33398878882E+03  0.00000000000E+00 0. -1.
         -3    1    6    6    0  503 -0.41034386104E+02 -0.23619903721E+02  0.31011504175E+03  0.31370855872E+03  0.00000000000E+00 0.  1.
<mgrwt>
<rscale>  0 0.17355294E+04</rscale>
<asrwt>0</asrwt>
<pdfrwt beam="1">  1        2 0.26597927E+00 0.17355294E+04</pdfrwt>
<pdfrwt beam="2">  1       -1 0.67008433E-01 0.17355294E+04</pdfrwt>
<totfact> 0.23046211E+01</totfact>
</mgrwt>
</event>
<event>
12    7  0.1637954E-007  0.3325742E+04  0.7818608E-02  0.8156376E-01
          2   -1    0    0  501    0  0.00000000000E+00  0.00000000000E+00  0.20601546197E+04  0.20601546197E+04  0.00000000000E+00 0. -1.
         -1   -1    0    0    0  501 -0.00000000000E+00 -0.00000000000E+00 -0.13422003389E+04  0.13422003389E+04  0.00000000000E+00 0.  1.
         24    2    1    2    0    0 -0.86980641238E+03 -0.12419368609E+04  0.58193615472E+02  0.15194234575E+04  0.79314468940E+02 0.  0.
        254    2    1    2    0    0  0.86980641238E+03  0.12419368609E+04  0.65976066535E+03  0.18829315010E+04  0.90065339646E+03 0.  0.
         23    2    4    4    0    0  0.73330764595E+03  0.63300136192E+03  0.40052714079E+01  0.97303271376E+03  0.91355306555E+02 0.  0.
         23    2    4    4    0    0  0.13649876643E+03  0.60893549895E+03  0.65575539394E+03  0.90989878725E+03  0.92012560238E+02 0.  0.
          2    1    3    3  502    0 -0.67992895428E+02 -0.11906456012E+03  0.24274637331E+02  0.13924317334E+03  0.00000000000E+00 0. -1.
         -1    1    3    3    0  502 -0.80181351695E+03 -0.11228723008E+04  0.33918978141E+02  0.13801802842E+04  0.00000000000E+00 0.  1.
         13    1    5    5    0    0  0.55659768866E+03  0.44011578864E+03 -0.23706772394E+02  0.70997528513E+03  0.00000000000E+00 0. -1.
        -13    1    5    5    0    0  0.17670995729E+03  0.19288557328E+03  0.27712043801E+02  0.26305742863E+03  0.00000000000E+00 0.  1.
          1    1    6    6  503    0  0.82445846171E+02  0.52166022195E+03  0.54942553472E+03  0.76209915557E+03  0.00000000000E+00 0. -1.
         -1    1    6    6    0  503  0.54052920257E+02  0.87275277001E+02  0.10632985922E+03  0.14779963168E+03  0.00000000000E+00 0.  1.
<mgrwt>
<rscale>  0 0.33257422E+04</rscale>
<asrwt>0</asrwt>
<pdfrwt beam="1">  1        2 0.31694686E+00 0.33257422E+04</pdfrwt>
<pdfrwt beam="2">  1       -1 0.20649236E+00 0.33257422E+04</pdfrwt>
<totfact> 0.79631442E-01</totfact>
</mgrwt>
</event>
<event>
12    7  0.1637954E-007  0.2082827E+04  0.7818608E-02  0.8568846E-01
          2   -1    0    0  501    0  0.00000000000E+00  0.00000000000E+00  0.10305146482E+04  0.10305146482E+04  0.00000000000E+00 0. -1.
         -1   -1    0    0    0  501 -0.00000000000E+00 -0.00000000000E+00 -0.10524279712E+04  0.10524279712E+04  0.00000000000E+00 0.  1.
         24    2    1    2    0    0  0.30276572532E+03 -0.76477489570E+03  0.18158671823E+03  0.84649369825E+03  0.83845807322E+02 0.  0.
        254    2    1    2    0    0 -0.30276572532E+03  0.76477489570E+03 -0.20350004123E+03  0.12364489212E+04  0.90046984539E+03 0.  0.
         23    2    4    4    0    0 -0.15683901920E+03  0.16146198854E+03  0.33144777301E+03  0.41172332181E+03  0.94815693882E+02 0.  0.
         23    2    4    4    0    0 -0.14592670613E+03  0.60331290716E+03 -0.53494781424E+03  0.82472559940E+03  0.93392091949E+02 0.  0.
          4    1    3    3  502    0  0.70821510098E+02 -0.14246960167E+03  0.66643137448E+02  0.17249516359E+03  0.00000000000E+00 0. -1.
         -3    1    3    3    0  502  0.23194421522E+03 -0.62230529403E+03  0.11494358079E+03  0.67399853466E+03  0.00000000000E+00 0.  1.
         13    1    5    5    0    0 -0.30402039964E+02  0.96693503223E+02  0.12148575166E+03  0.15821727294E+03  0.00000000000E+00 0.  1.
        -13    1    5    5    0    0 -0.12643697923E+03  0.64768485319E+02  0.20996202134E+03  0.25350604887E+03  0.00000000000E+00 0. -1.
          1    1    6    6  503    0 -0.14602908636E+03  0.60355565782E+03 -0.53802971358E+03  0.82163245971E+03  0.00000000000E+00 0. -1.
         -1    1    6    6    0  503  0.10238023559E+00 -0.24275066569E+00  0.30818993390E+01  0.30931396888E+01  0.00000000000E+00 0.  1.
<mgrwt>
<rscale>  0 0.20828273E+04</rscale>
<asrwt>0</asrwt>
<pdfrwt beam="1">  1        2 0.15854072E+00 0.20828273E+04</pdfrwt>
<pdfrwt beam="2">  1       -1 0.16191200E+00 0.20828273E+04</pdfrwt>
<totfact> 0.71651546E+00</totfact>
</mgrwt>
</event>
<event>
12    7  0.1637954E-007  0.4105748E+04  0.7818608E-02  0.7983547E-01
         -3   -1    0    0    0  501 -0.00000000000E+00  0.00000000000E+00  0.13821212847E+04  0.13821212847E+04  0.00000000000E+00 0.  1.
          2   -1    0    0  501    0  0.00000000000E+00 -0.00000000000E+00 -0.30491468354E+04  0.30491468354E+04  0.00000000000E+00 0. -1.
         24    2    1    2    0    0  0.10826691251E+04 -0.10269300444E+04  0.56650729868E+03  0.15981513432E+04  0.79996535105E+02 0.  0.
        254    2    1    2    0    0 -0.10826691251E+04  0.10269300444E+04 -0.22335328493E+04  0.28331167769E+04  0.90062419019E+03 0.  0.
         23    2    4    4    0    0 -0.23857947979E+01 -0.98832522649E+02 -0.39938163577E+02  0.13972202660E+03  0.90297443252E+02 0.  0.
         23    2    4    4    0    0 -0.10802833303E+04  0.11257625670E+04 -0.21935946858E+04  0.26933947503E+04  0.90355987379E+02 0.  0.
          2    1    3    3  502    0  0.17653446622E+01 -0.33949951125E+01  0.67754769189E+01  0.77813572767E+01  0.00000000000E+00 0. -1.
         -1    1    3    3    0  502  0.10809037805E+04 -0.10235350493E+04  0.55973182177E+03  0.15903699859E+04  0.00000000000E+00 0.  1.
         13    1    5    5    0    0 -0.18887989169E+02 -0.89248598687E+01  0.21190512274E+02  0.29756462642E+02  0.00000000000E+00 0. -1.
        -13    1    5    5    0    0  0.16502194371E+02 -0.89907662780E+02 -0.61128675852E+02  0.10996556396E+03  0.00000000000E+00 0.  1.
          2    1    6    6  503    0 -0.33681224202E+03  0.29232962018E+03 -0.61954557745E+03  0.76337134852E+03  0.00000000000E+00 0. -1.
         -2    1    6    6    0  503 -0.74347108832E+03  0.83343294684E+03 -0.15740491083E+04  0.19300234018E+04  0.00000000000E+00 0.  1.
<mgrwt>
<rscale>  0 0.41057476E+04</rscale>
<asrwt>0</asrwt>
<pdfrwt beam="1">  1        2 0.46909951E+00 0.41057476E+04</pdfrwt>
<pdfrwt beam="2">  1       -3 0.21263404E+00 0.41057476E+04</pdfrwt>
<totfact> 0.98055673E-02</totfact>
</mgrwt>
</event>
<event>
12    7  0.1637954E-007  0.2605086E+04  0.7818608E-02  0.8366476E-01
          2   -1    0    0  501    0  0.00000000000E+00  0.00000000000E+00  0.45519789805E+04  0.45519789805E+04  0.00000000000E+00 0. -1.
         -1   -1    0    0    0  501 -0.00000000000E+00 -0.00000000000E+00 -0.37272089162E+03  0.37272089162E+03  0.00000000000E+00 0.  1.
         24    2    1    2    0    0 -0.22086502891E+03 -0.82627528725E+03  0.39865774501E+03  0.94704238179E+03  0.80306064125E+02 0.  0.
        254    2    1    2    0    0  0.22086502891E+03  0.82627528725E+03  0.37806003439E+04  0.39776574904E+04  0.89292101498E+03 0.  0.
         23    2    4    4    0    0  0.14072890294E+02  0.14199192452E+02  0.20554021943E+04  0.20574724845E+04  0.90084298205E+02 0.  0.
         23    2    4    4    0    0  0.20679213862E+03  0.81207609480E+03  0.17251981496E+04  0.19201850059E+04  0.92580932429E+02 0.  0.
          4    1    3    3  502    0 -0.17835939259E+01 -0.96210672143E+02  0.56000232073E+02  0.11133598086E+03  0.00000000000E+00 0. -1.
         -3    1    3    3    0  502 -0.21908143499E+03 -0.73006461511E+03  0.34265751293E+03  0.83570640093E+03  0.00000000000E+00 0.  1.
         13    1    5    5    0    0  0.14757741210E+02 -0.11600990064E+02  0.18879210774E+04  0.18880143983E+04  0.00000000000E+00 0. -1.
        -13    1    5    5    0    0 -0.68485091543E+00  0.25800182516E+02  0.16748111695E+03  0.16945808619E+03  0.00000000000E+00 0.  1.
          4    1    6    6  503    0  0.16292768713E+03  0.45423938522E+03  0.98681460683E+03  0.10984907458E+04  0.00000000000E+00 0. -1.
         -4    1    6    6    0  503  0.43864451485E+02  0.35783670957E+03  0.73838354276E+03  0.82169426008E+03  0.00000000000E+00 0.  1.
<mgrwt>
<rscale>  0 0.26050855E+04</rscale>
<asrwt>0</asrwt>
<pdfrwt beam="1">  1        2 0.70030442E+00 0.26050855E+04</pdfrwt>
<pdfrwt beam="2">  1       -1 0.57341679E-01 0.26050855E+04</pdfrwt>
<totfact> 0.34000576E-01</totfact>
</mgrwt>
</event>
<event>
12    7  0.1637954E-007  0.1541560E+04  0.7818608E-02  0.8857277E-01
          2   -1    0    0  501    0  0.00000000000E+00  0.00000000000E+00  0.82402150599E+03  0.82402150599E+03  0.00000000000E+00 0. -1.
         -1   -1    0    0    0  501 -0.00000000000E+00 -0.00000000000E+00 -0.72097843263E+03  0.72097843263E+03  0.00000000000E+00 0.  1.
         24    2    1    2    0    0  0.61192493306E+02  0.25736626350E+03  0.48200750445E+03  0.55557891293E+03  0.79716869763E+02 0.  0.
        254    2    1    2    0    0 -0.61192493306E+02 -0.25736626350E+03 -0.37896443109E+03  0.98942102569E+03  0.87484742168E+03 0.  0.
         23    2    4    4    0    0 -0.20655354853E+03 -0.51763789947E+03 -0.37507865229E+03  0.67785869875E+03  0.90526552410E+02 0.  0.
         23    2    4    4    0    0  0.14536105522E+03  0.26027163597E+03 -0.38857788033E+01  0.31156232694E+03  0.90470013940E+02 0.  0.
          2    1    3    3  502    0  0.17860963314E+02  0.20205555875E+03  0.39221460567E+03  0.44156286046E+03  0.00000000000E+00 0. -1.
         -1    1    3    3    0  502  0.43331529992E+02  0.55310704747E+02  0.89792898781E+02  0.11401605248E+03  0.00000000000E+00 0.  1.
         13    1    5    5    0    0 -0.57746993489E+02 -0.63877498264E+02 -0.72164425911E+02  0.11235103208E+03  0.00000000000E+00 0. -1.
        -13    1    5    5    0    0 -0.14880655504E+03 -0.45376040121E+03 -0.30291422638E+03  0.56550766668E+03  0.00000000000E+00 0.  1.
          2    1    6    6  503    0  0.42898744326E+02  0.44473817881E+02 -0.34419584561E+02  0.70731397152E+02  0.00000000000E+00 0. -1.
         -2    1    6    6    0  503  0.10246231090E+03  0.21579781809E+03  0.30533805758E+02  0.24083092979E+03  0.00000000000E+00 0.  1.
<mgrwt>
<rscale>  0 0.15415599E+04</rscale>
<asrwt>0</asrwt>
<pdfrwt beam="1">  1        2 0.12677254E+00 0.15415599E+04</pdfrwt>
<pdfrwt beam="2">  1       -1 0.11091976E+00 0.15415599E+04</pdfrwt>
<totfact> 0.27246653E+01</totfact>
</mgrwt>
</event>
<event>
12    7  0.1637954E-007  0.2628802E+04  0.7818608E-02  0.8358483E-01
          2   -1    0    0  501    0  0.00000000000E+00  0.00000000000E+00  0.24551124136E+04  0.24551124136E+04  0.00000000000E+00 0. -1.
         -3   -1    0    0    0  501 -0.00000000000E+00 -0.00000000000E+00 -0.70369473003E+03  0.70369473003E+03  0.00000000000E+00 0.  1.
         24    2    1    2    0    0  0.11202448303E+04 -0.16902022314E+03  0.48598258830E+03  0.12353156920E+04  0.79432153813E+02 0.  0.
        254    2    1    2    0    0 -0.11202448303E+04  0.16902022314E+03  0.12654350953E+04  0.19234914516E+04  0.90276080354E+03 0.  0.
         23    2    4    4    0    0 -0.82788717609E+03 -0.30270664583E+03  0.78731257214E+03  0.11853112624E+04  0.89851059073E+02 0.  0.
         23    2    4    4    0    0 -0.29235765425E+03  0.47172686897E+03  0.47812252314E+03  0.73818018921E+03  0.91157049670E+02 0.  0.
          2    1    3    3  502    0  0.65380201887E+03 -0.13769907831E+03  0.29249697501E+03  0.72936451547E+03  0.00000000000E+00 0. -1.
         -1    1    3    3    0  502  0.46644281147E+03 -0.31321144837E+02  0.19348561330E+03  0.50595117654E+03  0.00000000000E+00 0.  1.
         13    1    5    5    0    0 -0.24277447177E+03 -0.79070432468E+02  0.28280049424E+03  0.38100878858E+03  0.00000000000E+00 0. -1.
        -13    1    5    5    0    0 -0.58511270431E+03 -0.22363621336E+03  0.50451207790E+03  0.80430247384E+03  0.00000000000E+00 0.  1.
          2    1    6    6  503    0 -0.14908609980E+03  0.16053434856E+03  0.16817178099E+03  0.27618778058E+03  0.00000000000E+00 0. -1.
         -2    1    6    6    0  503 -0.14327155446E+03  0.31119252041E+03  0.30995074215E+03  0.46199240864E+03  0.00000000000E+00 0.  1.
<mgrwt>
<rscale>  0 0.26288018E+04</rscale>
<asrwt>0</asrwt>
<pdfrwt beam="1">  1        2 0.37770960E+00 0.26288018E+04</pdfrwt>
<pdfrwt beam="2">  1       -3 0.10826073E+00 0.26288018E+04</pdfrwt>
<totfact> 0.15076577E+00</totfact>
</mgrwt>
</event>
<event>
12    7  0.1637954E-007  0.2940302E+04  0.7818608E-02  0.8260987E-01
          2   -1    0    0  501    0  0.00000000000E+00  0.00000000000E+00  0.22475792386E+04  0.22475792386E+04  0.00000000000E+00 0. -1.
         -1   -1    0    0    0  501 -0.00000000000E+00 -0.00000000000E+00 -0.96163179070E+03  0.96163179070E+03  0.00000000000E+00 0.  1.
         24    2    1    2    0    0  0.94727679263E+03 -0.39628519069E+03  0.15109868329E+04  0.18284798608E+04  0.76694965967E+02 0.  0.
        254    2    1    2    0    0 -0.94727679263E+03  0.39628519069E+03 -0.22503938507E+03  0.13807311685E+04  0.89520978577E+03 0.  0.
         23    2    4    4    0    0 -0.34194654361E+03  0.50013305195E+03  0.18080681089E+03  0.63877784132E+03  0.91024828239E+02 0.  0.
         23    2    4    4    0    0 -0.60533024902E+03 -0.10384786126E+03 -0.40584619596E+03  0.74195332715E+03  0.92598683707E+02 0.  0.
          2    1    3    3  502    0  0.90061245427E+03 -0.39070395419E+03  0.14573944726E+04  0.17571997671E+04  0.00000000000E+00 0. -1.
         -1    1    3    3    0  502  0.46664338358E+02 -0.55812364982E+01  0.53592360322E+02  0.71280093716E+02  0.00000000000E+00 0.  1.
         13    1    5    5    0    0 -0.33354479030E+03  0.49140511186E+03  0.19000733953E+03  0.62356547384E+03  0.00000000000E+00 0. -1.
        -13    1    5    5    0    0 -0.84017533150E+01  0.87279400959E+01 -0.92005286394E+01  0.15212367479E+02  0.00000000000E+00 0.  1.
          3    1    6    6  503    0 -0.54422375341E+03 -0.65264162774E+02 -0.34670348663E+03  0.64856935817E+03  0.00000000000E+00 0. -1.
         -3    1    6    6    0  503 -0.61106495607E+02 -0.38583698489E+02 -0.59142709335E+02  0.93383968977E+02  0.00000000000E+00 0.  1.
<mgrwt>
<rscale>  0 0.29403018E+04</rscale>
<asrwt>0</asrwt>
<pdfrwt beam="1">  1        2 0.34578142E+00 0.29403018E+04</pdfrwt>
<pdfrwt beam="2">  1       -1 0.14794335E+00 0.29403018E+04</pdfrwt>
<totfact> 0.17191935E+00</totfact>
</mgrwt>
</event>
<event>
12    7  0.1637954E-007  0.1147517E+04  0.7818608E-02  0.9160077E-01
          2   -1    0    0  501    0  0.00000000000E+00  0.00000000000E+00  0.14451093118E+04  0.14451093118E+04  0.00000000000E+00 0. -1.
         -1   -1    0    0    0  501 -0.00000000000E+00 -0.00000000000E+00 -0.22780211695E+03  0.22780211695E+03  0.00000000000E+00 0.  1.
         24    2    1    2    0    0 -0.15624555664E+03 -0.89665230289E+02  0.38007996473E+03  0.42819920254E+03  0.80257398269E+02 0.  0.
        254    2    1    2    0    0  0.15624555664E+03  0.89665230289E+02  0.83722723015E+03  0.12447122262E+04  0.90327546394E+03 0.  0.
         23    2    4    4    0    0 -0.12227512715E+03  0.15706190196E+03 -0.11363197474E+03  0.24736474225E+03  0.93045377408E+02 0.  0.
         23    2    4    4    0    0  0.27852068379E+03 -0.67396671673E+02  0.95085920489E+03  0.99734748399E+03  0.91938531934E+02 0.  0.
          4    1    3    3  502    0 -0.13514625198E+03 -0.42723799936E+02  0.31345575454E+03  0.34401212560E+03  0.00000000000E+00 0. -1.
         -1    1    3    3    0  502 -0.21099304657E+02 -0.46941430353E+02  0.66624210184E+02  0.84187076938E+02  0.00000000000E+00 0.  1.
         13    1    5    5    0    0 -0.77232312062E+02  0.27246773195E+02 -0.49844179144E+02  0.95873139463E+02  0.00000000000E+00 0. -1.
        -13    1    5    5    0    0 -0.45042815093E+02  0.12981512877E+03 -0.63787795594E+02  0.15149160279E+03  0.00000000000E+00 0.  1.
          3    1    6    6  503    0  0.11589244931E+03  0.16557887351E+02  0.40823546286E+03  0.42468978865E+03  0.00000000000E+00 0. -1.
         -3    1    6    6    0  503  0.16262823448E+03 -0.83954559025E+02  0.54262374202E+03  0.57265769534E+03  0.00000000000E+00 0.  1.
<mgrwt>
<rscale>  0 0.11475173E+04</rscale>
<asrwt>0</asrwt>
<pdfrwt beam="1">  1        2 0.22232450E+00 0.11475173E+04</pdfrwt>
<pdfrwt beam="2">  1       -1 0.35046480E-01 0.11475173E+04</pdfrwt>
<totfact> 0.11901305E+02</totfact>
</mgrwt>
</event>
<event>
12    7  0.1637954E-007  0.2038607E+04  0.7818608E-02  0.8588780E-01
         -1   -1    0    0    0  501 -0.00000000000E+00  0.00000000000E+00  0.71846837304E+03  0.71846837304E+03  0.00000000000E+00 0.  1.
          2   -1    0    0  501    0  0.00000000000E+00 -0.00000000000E+00 -0.14461032871E+04  0.14461032871E+04  0.00000000000E+00 0. -1.
         24    2    1    2    0    0  0.58556784367E+03 -0.65953661755E+02  0.30885955653E+03  0.67015512652E+03  0.80461685911E+02 0.  0.
        254    2    1    2    0    0 -0.58556784367E+03  0.65953661755E+02 -0.10364944706E+04  0.14944165337E+04  0.90095527271E+03 0.  0.
         23    2    4    4    0    0 -0.20625827323E+03  0.40414016639E+03 -0.80656081753E+03  0.92969283846E+03  0.88975682873E+02 0.  0.
         23    2    4    4    0    0 -0.37930957043E+03 -0.33818650464E+03 -0.22993365309E+03  0.56472369520E+03  0.88303482127E+02 0.  0.
          2    1    3    3  502    0  0.15243512989E+03 -0.26485305849E+02  0.43700400692E+02  0.16077209109E+03  0.00000000000E+00 0. -1.
         -1    1    3    3    0  502  0.43313271377E+03 -0.39468355906E+02  0.26515915584E+03  0.50938303543E+03  0.00000000000E+00 0.  1.
         13    1    5    5    0    0 -0.27407653892E+01  0.65200562413E+02 -0.14490992674E+03  0.15892612121E+03  0.00000000000E+00 0.  1.
        -13    1    5    5    0    0 -0.20351750784E+03  0.33893960398E+03 -0.66165089079E+03  0.77076671726E+03  0.00000000000E+00 0. -1.
          4    1    6    6  503    0 -0.35155291483E+03 -0.28001408528E+03 -0.21656610529E+03  0.49889700124E+03  0.00000000000E+00 0.  1.
         -4    1    6    6    0  503 -0.27756655598E+02 -0.58172419356E+02 -0.13367547804E+02  0.65826693962E+02  0.00000000000E+00 0. -1.
<mgrwt>
<rscale>  0 0.20386069E+04</rscale>
<asrwt>0</asrwt>
<pdfrwt beam="1">  1        2 0.22247743E+00 0.20386069E+04</pdfrwt>
<pdfrwt beam="2">  1       -1 0.11053360E+00 0.20386069E+04</pdfrwt>
<totfact> 0.10844636E+01</totfact>
</mgrwt>
</event>
<event>
12    7  0.1637954E-007  0.3656113E+04  0.7818608E-02  0.8077758E-01
          2   -1    0    0  501    0  0.00000000000E+00  0.00000000000E+00  0.20106120627E+04  0.20106120627E+04  0.00000000000E+00 0. -1.
         -1   -1    0    0    0  501 -0.00000000000E+00 -0.00000000000E+00 -0.16620760110E+04  0.16620760110E+04  0.00000000000E+00 0.  1.
         24    2    1    2    0    0 -0.91307143701E+03  0.12105503136E+04  0.96411183610E+03  0.17986851024E+04  0.81393820628E+02 0.  0.
        254    2    1    2    0    0  0.91307143701E+03 -0.12105503136E+04 -0.61557578440E+03  0.18740029714E+04  0.91313858722E+03 0.  0.
         23    2    4    4    0    0 -0.10628066488E+03  0.47163691593E+02 -0.55865680310E+02  0.15869361533E+03  0.92426704902E+02 0.  0.
         23    2    4    4    0    0  0.10193521019E+04 -0.12577140052E+04 -0.55971010410E+03  0.17153093560E+04  0.89930860904E+02 0.  0.
          2    1    3    3  502    0 -0.57218484469E+03  0.74175848813E+03  0.64058024341E+03  0.11348762926E+04  0.00000000000E+00 0. -1.
         -1    1    3    3    0  502 -0.34088659232E+03  0.46879182549E+03  0.32353159268E+03  0.66380880977E+03  0.00000000000E+00 0.  1.
         13    1    5    5    0    0 -0.40069557621E+02  0.35749533943E+02  0.20046374868E+02  0.57318895405E+02  0.00000000000E+00 0.  1.
        -13    1    5    5    0    0 -0.66211107258E+02  0.11414157650E+02 -0.75912055178E+02  0.10137471993E+03  0.00000000000E+00 0. -1.
          2    1    6    6  503    0  0.23624629529E+03 -0.32350725581E+03 -0.10366919519E+03  0.41378322662E+03  0.00000000000E+00 0. -1.
         -2    1    6    6    0  503  0.78310580660E+03 -0.93420674941E+03 -0.45604090890E+03  0.13015261294E+04  0.00000000000E+00 0.  1.
<mgrwt>
<rscale>  0 0.36561127E+04</rscale>
<asrwt>0</asrwt>
<pdfrwt beam="1">  1        2 0.30932493E+00 0.36561127E+04</pdfrwt>
<pdfrwt beam="2">  1       -1 0.25570400E+00 0.36561127E+04</pdfrwt>
<totfact> 0.38924006E-01</totfact>
</mgrwt>
</event>
<event>
12    7  0.1637954E-007  0.1547451E+04  0.7818608E-02  0.8853498E-01
          2   -1    0    0  501    0  0.00000000000E+00  0.00000000000E+00  0.11614611553E+04  0.11614611553E+04  0.00000000000E+00 0. -1.
         -1   -1    0    0    0  501 -0.00000000000E+00 -0.00000000000E+00 -0.51542907844E+03  0.51542907844E+03  0.00000000000E+00 0.  1.
         24    2    1    2    0    0  0.11836485265E+03  0.21228677122E+01  0.75336187540E+03  0.76640521145E+03  0.76210812427E+02 0.  0.
        254    2    1    2    0    0 -0.11836485265E+03 -0.21228677122E+01 -0.10732979854E+03  0.91048502228E+03  0.89635291333E+03 0.  0.
         23    2    4    4    0    0  0.17544553547E+03  0.34582326676E+03  0.86219839102E+02  0.40761803290E+03  0.91344032871E+02 0.  0.
         23    2    4    4    0    0 -0.29381038812E+03 -0.34794613447E+03 -0.19354963764E+03  0.50286698938E+03  0.89569470880E+02 0.  0.
          4    1    3    3  502    0  0.42373447104E+02  0.11340581486E+02  0.49505545324E+03  0.49699498950E+03  0.00000000000E+00 0. -1.
         -3    1    3    3    0  502  0.75991405545E+02 -0.92177137737E+01  0.25830642216E+03  0.26941022195E+03  0.00000000000E+00 0.  1.
         13    1    5    5    0    0 -0.40721776898E+01  0.82438560684E+01 -0.97628215436E+01  0.13411058068E+02  0.00000000000E+00 0.  1.
        -13    1    5    5    0    0  0.17951771316E+03  0.33757941069E+03  0.95982660645E+02  0.39420697483E+03  0.00000000000E+00 0. -1.
          3    1    6    6  503    0 -0.26264025453E+03 -0.29696795145E+03 -0.19762939896E+03  0.44297544720E+03  0.00000000000E+00 0. -1.
         -3    1    6    6    0  503 -0.31170133593E+02 -0.50978183021E+02  0.40797613179E+01  0.59891542181E+02  0.00000000000E+00 0.  1.
<mgrwt>
<rscale>  0 0.15474506E+04</rscale>
<asrwt>0</asrwt>
<pdfrwt beam="1">  1        2 0.17868633E+00 0.15474506E+04</pdfrwt>
<pdfrwt beam="2">  1       -1 0.79296782E-01 0.15474506E+04</pdfrwt>
<totfact> 0.34872788E+01</totfact>
</mgrwt>
</event>
<event>
12    7  0.1637954E-007  0.1258207E+04  0.7818608E-02  0.9063380E-01
         -1   -1    0    0    0  501 -0.00000000000E+00  0.00000000000E+00  0.54221939888E+03  0.54221939888E+03  0.00000000000E+00 0.  1.
          2   -1    0    0  501    0  0.00000000000E+00 -0.00000000000E+00 -0.72990994533E+03  0.72990994533E+03  0.00000000000E+00 0. -1.
         24    2    1    2    0    0  0.15275462870E+03  0.10468248803E+03 -0.31778209578E+03  0.37708421088E+03  0.83154325240E+02 0.  0.
        254    2    1    2    0    0 -0.15275462870E+03 -0.10468248803E+03  0.13009154933E+03  0.89504513333E+03  0.86596165019E+03 0.  0.
         23    2    4    4    0    0 -0.25972477079E+03  0.28912313421E+03 -0.10889191533E+03  0.41376297939E+03  0.91067066461E+02 0.  0.
         23    2    4    4    0    0  0.10697014208E+03 -0.39380562225E+03  0.23898346466E+03  0.48128215394E+03  0.89408813349E+02 0.  0.
          4    1    3    3  502    0  0.15178846256E+03  0.11218278340E+03 -0.27439209886E+03  0.33304014499E+03  0.00000000000E+00 0. -1.
         -3    1    3    3    0  502  0.96616614132E+00 -0.75002953650E+01 -0.43389996915E+02  0.44044065887E+02  0.00000000000E+00 0.  1.
         13    1    5    5    0    0 -0.24422927069E+03  0.28460947147E+03 -0.12046106523E+03  0.39390526291E+03  0.00000000000E+00 0.  1.
        -13    1    5    5    0    0 -0.15495500093E+02  0.45136627418E+01  0.11569149896E+02  0.19857716480E+02  0.00000000000E+00 0. -1.
          4    1    6    6  503    0  0.75788714963E+02 -0.12183892236E+03  0.70881346978E+02  0.16004005020E+03  0.00000000000E+00 0. -1.
         -4    1    6    6    0  503  0.31181427120E+02 -0.27196669989E+03  0.16810211768E+03  0.32124210374E+03  0.00000000000E+00 0.  1.
<mgrwt>
<rscale>  0 0.12582072E+04</rscale>
<asrwt>0</asrwt>
<pdfrwt beam="1">  1        2 0.11229384E+00 0.12582072E+04</pdfrwt>
<pdfrwt beam="2">  1       -1 0.83418369E-01 0.12582072E+04</pdfrwt>
<totfact> 0.62202151E+01</totfact>
</mgrwt>
</event>
<event>
12    7  0.1637954E-007  0.1956405E+04  0.7818608E-02  0.8627278E-01
          2   -1    0    0  501    0  0.00000000000E+00  0.00000000000E+00  0.30853515874E+04  0.30853515874E+04  0.00000000000E+00 0. -1.
         -1   -1    0    0    0  501 -0.00000000000E+00 -0.00000000000E+00 -0.31013648977E+03  0.31013648977E+03  0.00000000000E+00 0.  1.
         24    2    1    2    0    0  0.98558895921E+02  0.55641180023E+03  0.19895665703E+04  0.20698129342E+04  0.80265169642E+02 0.  0.
        254    2    1    2    0    0 -0.98558895921E+02 -0.55641180023E+03  0.78564852739E+03  0.13256751430E+04  0.90601491649E+03 0.  0.
         23    2    4    4    0    0 -0.30166123400E+03 -0.68223924599E+03  0.75965625532E+03  0.10684434484E+04  0.89687720791E+02 0.  0.
         23    2    4    4    0    0  0.20310233808E+03  0.12582744576E+03  0.25992272070E+02  0.25723169467E+03  0.91703002661E+02 0.  0.
          2    1    3    3  502    0  0.48956301900E+02  0.42651878992E+03  0.14172427611E+04  0.14808416666E+04  0.00000000000E+00 0. -1.
         -1    1    3    3    0  502  0.49602594021E+02  0.12989301031E+03  0.57232380918E+03  0.58897126756E+03  0.00000000000E+00 0.  1.
         13    1    5    5    0    0 -0.26908128294E+03 -0.63515156971E+03  0.66709658993E+03  0.95960414424E+03  0.00000000000E+00 0. -1.
        -13    1    5    5    0    0 -0.32579951053E+02 -0.47087676273E+02  0.92559665391E+02  0.10883930414E+03  0.00000000000E+00 0.  1.
          4    1    6    6  503    0  0.15658184318E+03  0.12113367902E+03 -0.10009322733E+02  0.19822065570E+03  0.00000000000E+00 0. -1.
         -4    1    6    6    0  503  0.46520494901E+02  0.46937667443E+01  0.36001594803E+02  0.59011038971E+02  0.00000000000E+00 0.  1.
<mgrwt>
<rscale>  0 0.19564050E+04</rscale>
<asrwt>0</asrwt>
<pdfrwt beam="1">  1        2 0.47466945E+00 0.19564050E+04</pdfrwt>
<pdfrwt beam="2">  1       -1 0.47713308E-01 0.19564050E+04</pdfrwt>
<totfact> 0.71813070E+00</totfact>
</mgrwt>
</event>
<event>
12    7  0.1637954E-007  0.9992735E+03  0.7818608E-02  0.9309342E-01
          2   -1    0    0  501    0  0.00000000000E+00  0.00000000000E+00  0.17389405068E+04  0.17389405068E+04  0.00000000000E+00 0. -1.
         -1   -1    0    0    0  501 -0.00000000000E+00 -0.00000000000E+00 -0.14355688594E+03  0.14355688594E+03  0.00000000000E+00 0.  1.
         24    2    1    2    0    0  0.14510078668E+02  0.38212419791E+02  0.11560579651E+03  0.14654122548E+03  0.80242751505E+02 0.  0.
        254    2    1    2    0    0 -0.14510078668E+02 -0.38212419791E+02  0.14797778244E+04  0.17359561673E+04  0.90671421837E+03 0.  0.
         23    2    4    4    0    0 -0.23507826247E+03  0.36219864597E+03  0.66972022353E+03  0.80129312338E+03  0.84236827768E+02 0.  0.
         23    2    4    4    0    0  0.22056818380E+03 -0.40041106576E+03  0.81005760086E+03  0.93466304390E+03  0.91773327495E+02 0.  0.
          2    1    3    3  502    0 -0.31529445350E+02  0.12226121021E+02  0.65438640587E+02  0.73660027431E+02  0.00000000000E+00 0. -1.
         -1    1    3    3    0  502  0.46039524018E+02  0.25986298770E+02  0.50167155926E+02  0.72881198050E+02  0.00000000000E+00 0.  1.
         13    1    5    5    0    0 -0.29555395049E+02  0.43885103896E+02  0.39832236194E+02  0.66227114996E+02  0.00000000000E+00 0. -1.
        -13    1    5    5    0    0 -0.20552286742E+03  0.31831354207E+03  0.62988798733E+03  0.73506600839E+03  0.00000000000E+00 0.  1.
          1    1    6    6  503    0  0.65674674328E+02 -0.19949924959E+03  0.41585391967E+03  0.46588367211E+03  0.00000000000E+00 0. -1.
         -1    1    6    6    0  503  0.15489350948E+03 -0.20091181617E+03  0.39420368119E+03  0.46877937179E+03  0.00000000000E+00 0.  1.
<mgrwt>
<rscale>  0 0.99927350E+03</rscale>
<asrwt>0</asrwt>
<pdfrwt beam="1">  1        2 0.26752929E+00 0.99927350E+03</pdfrwt>
<pdfrwt beam="2">  1       -1 0.22085676E-01 0.99927350E+03</pdfrwt>
<totfact> 0.18379767E+02</totfact>
</mgrwt>
</event>
<event>
12    7  0.1637954E-007  0.1310395E+04  0.7818608E-02  0.9021362E-01
         -1   -1    0    0    0  501 -0.00000000000E+00  0.00000000000E+00  0.92444158100E+03  0.92444158100E+03  0.00000000000E+00 0.  1.
          2   -1    0    0  501    0  0.00000000000E+00 -0.00000000000E+00 -0.46437097240E+03  0.46437097240E+03  0.00000000000E+00 0. -1.
         24    2    1    2    0    0  0.19098419815E+03  0.14300354729E+03  0.36872407397E+03  0.44634613212E+03  0.79639490552E+02 0.  0.
        254    2    1    2    0    0 -0.19098419815E+03 -0.14300354729E+03  0.91346534629E+02  0.94246642128E+03  0.90717902719E+03 0.  0.
         23    2    4    4    0    0 -0.16525641474E+03 -0.17874682310E+03 -0.38009327850E+03  0.46063842389E+03  0.91960577515E+02 0.  0.
         23    2    4    4    0    0 -0.25727783413E+02  0.35743275813E+02  0.47143981313E+03  0.48182799739E+03  0.89236881727E+02 0.  0.
          4    1    3    3  502    0  0.16301493692E+02 -0.73998123429E+01  0.11743424042E+02  0.21410369626E+02  0.00000000000E+00 0. -1.
         -3    1    3    3    0  502  0.17468270446E+03  0.15040335963E+03  0.35698064992E+03  0.42493576249E+03  0.00000000000E+00 0.  1.
         13    1    5    5    0    0 -0.30390598193E+01 -0.28994631963E+02 -0.12235787185E+02  0.31617069049E+02  0.00000000000E+00 0. -1.
        -13    1    5    5    0    0 -0.16221735492E+03 -0.14975219114E+03 -0.36785749132E+03  0.42902135484E+03  0.00000000000E+00 0.  1.
          4    1    6    6  503    0 -0.25712530877E+02  0.13415242384E+02  0.44980072212E+03  0.45073472530E+03  0.00000000000E+00 0.  1.
         -4    1    6    6    0  503 -0.15252535944E-01  0.22328033429E+02  0.21639091007E+02  0.31093272087E+02  0.00000000000E+00 0. -1.
<mgrwt>
<rscale>  0 0.13103951E+04</rscale>
<asrwt>0</asrwt>
<pdfrwt beam="1">  1        2 0.71441688E-01 0.13103951E+04</pdfrwt>
<pdfrwt beam="2">  1       -1 0.14222178E+00 0.13103951E+04</pdfrwt>
<totfact> 0.30229358E+01</totfact>
</mgrwt>
</event>
<event>
12    7  0.1637954E-007  0.2064578E+04  0.7818608E-02  0.8577010E-01
         -1   -1    0    0    0  501 -0.00000000000E+00  0.00000000000E+00  0.11126891265E+04  0.11126891265E+04  0.00000000000E+00 0.  1.
          2   -1    0    0  501    0  0.00000000000E+00 -0.00000000000E+00 -0.95769800174E+03  0.95769800174E+03  0.00000000000E+00 0. -1.
         24    2    1    2    0    0 -0.53385381165E+03 -0.25457032272E+03 -0.52242376462E+03  0.79313947023E+03  0.79609597246E+02 0.  0.
        254    2    1    2    0    0  0.53385381165E+03  0.25457032272E+03  0.67741488940E+03  0.12772476580E+04  0.90700865825E+03 0.  0.
         23    2    4    4    0    0  0.39736588836E+03  0.42216089771E+03  0.81522243297E+03  0.10044609224E+04  0.90745008611E+02 0.  0.
         23    2    4    4    0    0  0.13648792329E+03 -0.16759057498E+03 -0.13780754357E+03  0.27278673565E+03  0.93306645280E+02 0.  0.
          4    1    3    3  502    0 -0.45693963927E+03 -0.23114770770E+03 -0.41598885151E+03  0.65974981719E+03  0.00000000000E+00 0. -1.
         -3    1    3    3    0  502 -0.76914172381E+02 -0.23422615019E+02 -0.10643491311E+03  0.13338965303E+03  0.00000000000E+00 0.  1.
         13    1    5    5    0    0  0.88654372628E+02  0.15227295402E+03  0.26553569917E+03  0.31867829836E+03  0.00000000000E+00 0.  1.
        -13    1    5    5    0    0  0.30871151573E+03  0.26988794369E+03  0.54968673380E+03  0.68578262402E+03  0.00000000000E+00 0. -1.
          4    1    6    6  503    0  0.13128004124E+03 -0.11070805895E+03 -0.12946004630E+03  0.21505958973E+03  0.00000000000E+00 0. -1.
         -4    1    6    6    0  503  0.52078820508E+01 -0.56882516032E+02 -0.83474972659E+01  0.57727145921E+02  0.00000000000E+00 0.  1.
<mgrwt>
<rscale>  0 0.20645776E+04</rscale>
<asrwt>0</asrwt>
<pdfrwt beam="1">  1        2 0.14733815E+00 0.20645776E+04</pdfrwt>
<pdfrwt beam="2">  1       -1 0.17118294E+00 0.20645776E+04</pdfrwt>
<totfact> 0.68236440E+00</totfact>
</mgrwt>
</event>
<event>
12    7  0.1637954E-007  0.2698851E+04  0.7818608E-02  0.8335378E-01
         -1   -1    0    0    0  501 -0.00000000000E+00  0.00000000000E+00  0.90905982143E+03  0.90905982143E+03  0.00000000000E+00 0.  1.
          2   -1    0    0  501    0  0.00000000000E+00 -0.00000000000E+00 -0.20031123527E+04  0.20031123527E+04  0.00000000000E+00 0. -1.
         24    2    1    2    0    0  0.57850767442E+03 -0.84311821738E+03 -0.11654203729E+04  0.15524225235E+04  0.79319531577E+02 0.  0.
        254    2    1    2    0    0 -0.57850767442E+03  0.84311821738E+03  0.71367841705E+02  0.13597496506E+04  0.89347987417E+03 0.  0.
         23    2    4    4    0    0 -0.53629656673E+03  0.47201786175E+03  0.42634515853E+03  0.83580968436E+03  0.79954768307E+02 0.  0.
         23    2    4    4    0    0 -0.42211107695E+02  0.37110035563E+03 -0.35497731682E+03  0.52393996621E+03  0.94904905900E+02 0.  0.
          2    1    3    3  502    0  0.22793342727E+03 -0.33594603509E+03 -0.52209167119E+03  0.66135701319E+03  0.00000000000E+00 0. -1.
         -1    1    3    3    0  502  0.35057424715E+03 -0.50717218229E+03 -0.64332870176E+03  0.89106551036E+03  0.00000000000E+00 0.  1.
         13    1    5    5    0    0 -0.27988156494E+03  0.22802896840E+03  0.25890054910E+03  0.44425262537E+03  0.00000000000E+00 0.  1.
        -13    1    5    5    0    0 -0.25641500179E+03  0.24398889334E+03  0.16744460943E+03  0.39155705899E+03  0.00000000000E+00 0. -1.
          4    1    6    6  503    0 -0.39550110983E+02  0.12429153330E+03 -0.17596520922E+03  0.21903504602E+03  0.00000000000E+00 0. -1.
         -4    1    6    6    0  503 -0.26609967122E+01  0.24680882233E+03 -0.17901210760E+03  0.30490492018E+03  0.00000000000E+00 0.  1.
<mgrwt>
<rscale>  0 0.26988508E+04</rscale>
<asrwt>0</asrwt>
<pdfrwt beam="1">  1        2 0.30817113E+00 0.26988508E+04</pdfrwt>
<pdfrwt beam="2">  1       -1 0.13985536E+00 0.26988508E+04</pdfrwt>
<totfact> 0.27917648E+00</totfact>
</mgrwt>
</event>
<event>
12    7  0.1637954E-007  0.2708609E+04  0.7818608E-02  0.8332217E-01
         -1   -1    0    0    0  501 -0.00000000000E+00  0.00000000000E+00  0.30685418409E+04  0.30685418409E+04  0.00000000000E+00 0.  1.
          2   -1    0    0  501    0  0.00000000000E+00 -0.00000000000E+00 -0.59772387096E+03  0.59772387096E+03  0.00000000000E+00 0. -1.
         24    2    1    2    0    0 -0.25204061934E+03  0.52913192157E+03  0.25294066279E+04  0.25976311944E+04  0.79277162486E+02 0.  0.
        254    2    1    2    0    0  0.25204061934E+03 -0.52913192157E+03 -0.58588657932E+02  0.10686345175E+04  0.89165129785E+03 0.  0.
         23    2    4    4    0    0  0.51129603909E+02 -0.71801765896E+03  0.10711186453E+03  0.73343189529E+03  0.91026361749E+02 0.  0.
         23    2    4    4    0    0  0.20091101543E+03  0.18888573738E+03 -0.16570052246E+03  0.33520262223E+03  0.94133293234E+02 0.  0.
          4    1    3    3  502    0 -0.36664356294E+02  0.15833090408E+03  0.67434904585E+03  0.69365667722E+03  0.00000000000E+00 0. -1.
         -3    1    3    3    0  502 -0.21537626305E+03  0.37080101749E+03  0.18550575820E+04  0.19039745171E+04  0.00000000000E+00 0.  1.
         13    1    5    5    0    0  0.37976711132E+02 -0.64210540422E+03  0.12270419129E+03  0.65482661772E+03  0.00000000000E+00 0. -1.
        -13    1    5    5    0    0  0.13152892778E+02 -0.75912254742E+02 -0.15592326758E+02  0.78605277572E+02  0.00000000000E+00 0.  1.
          3    1    6    6  503    0 -0.56579967291E+01  0.96501985009E+01 -0.25556209962E+02  0.27897296029E+02  0.00000000000E+00 0.  1.
         -3    1    6    6    0  503  0.20656901216E+03  0.17923553888E+03 -0.14014431250E+03  0.30730532620E+03  0.00000000000E+00 0. -1.
<mgrwt>
<rscale>  0 0.27086090E+04</rscale>
<asrwt>0</asrwt>
<pdfrwt beam="1">  1        2 0.91957521E-01 0.27086090E+04</pdfrwt>
<pdfrwt beam="2">  1       -1 0.47208335E+00 0.27086090E+04</pdfrwt>
<totfact> 0.11359443E-01</totfact>
</mgrwt>
</event>
<event>
12    7  0.1637954E-007  0.1542355E+04  0.7818608E-02  0.8856766E-01
         -1   -1    0    0    0  501 -0.00000000000E+00  0.00000000000E+00  0.89123460893E+03  0.89123460893E+03  0.00000000000E+00 0.  1.
          2   -1    0    0  501    0  0.00000000000E+00 -0.00000000000E+00 -0.66729339832E+03  0.66729339832E+03  0.00000000000E+00 0. -1.
         24    2    1    2    0    0  0.48952032935E+02  0.47901095603E+03 -0.60998273802E+02  0.49208424161E+03  0.81106805518E+02 0.  0.
        254    2    1    2    0    0 -0.48952032935E+02 -0.47901095603E+03  0.28493948441E+03  0.10664437656E+04  0.90788986005E+03 0.  0.
         23    2    4    4    0    0  0.95417424651E+02 -0.13086190302E+03  0.56095565151E+03  0.59054853522E+03  0.88583333080E+02 0.  0.
         23    2    4    4    0    0 -0.14436945759E+03 -0.34814905301E+03 -0.27601616710E+03  0.47589523043E+03  0.90780187536E+02 0.  0.
          4    1    3    3  502    0 -0.19225676438E+01  0.34042821521E+03 -0.35607673240E+02  0.34229077167E+03  0.00000000000E+00 0. -1.
         -3    1    3    3    0  502  0.50874600579E+02  0.13858274082E+03 -0.25390600562E+02  0.14979346993E+03  0.00000000000E+00 0.  1.
         13    1    5    5    0    0 -0.25500047239E+01 -0.66040806009E+02  0.23286615666E+03  0.24206308579E+03  0.00000000000E+00 0.  1.
        -13    1    5    5    0    0  0.97967429375E+02 -0.64821097012E+02  0.32808949484E+03  0.34848544943E+03  0.00000000000E+00 0. -1.
          2    1    6    6  503    0 -0.12587428065E+03 -0.20343108012E+03 -0.19748175661E+03  0.31020571090E+03  0.00000000000E+00 0. -1.
         -2    1    6    6    0  503 -0.18495176941E+02 -0.14471797290E+03 -0.78534410490E+02  0.16568951952E+03  0.00000000000E+00 0.  1.
<mgrwt>
<rscale>  0 0.15423553E+04</rscale>
<asrwt>0</asrwt>
<pdfrwt beam="1">  1        2 0.10266052E+00 0.15423553E+04</pdfrwt>
<pdfrwt beam="2">  1       -1 0.13711302E+00 0.15423553E+04</pdfrwt>
<totfact> 0.21191803E+01</totfact>
</mgrwt>
</event>
<event>
12    7  0.1637954E-007  0.1026795E+04  0.7818608E-02  0.9279635E-01
          2   -1    0    0  501    0  0.00000000000E+00  0.00000000000E+00  0.69218506478E+03  0.69218506478E+03  0.00000000000E+00 0. -1.
         -1   -1    0    0    0  501 -0.00000000000E+00 -0.00000000000E+00 -0.38078997386E+03  0.38078997386E+03  0.00000000000E+00 0.  1.
         24    2    1    2    0    0 -0.82201742211E+02  0.15224587577E+02  0.14260691104E+01  0.11308587164E+03  0.76141094036E+02 0.  0.
        254    2    1    2    0    0  0.82201742211E+02 -0.15224587577E+02  0.30996902181E+03  0.95988916700E+03  0.90460903376E+03 0.  0.
         23    2    4    4    0    0 -0.25262617636E+03  0.31157881847E+03  0.43361947287E+02  0.41347663932E+03  0.90450692059E+02 0.  0.
         23    2    4    4    0    0  0.33482791857E+03 -0.32680340604E+03  0.26660707452E+03  0.54641252768E+03  0.92612725749E+02 0.  0.
          2    1    3    3  502    0  0.14428207939E+02  0.40393482976E+01  0.48560405432E+01  0.15750258688E+02  0.00000000000E+00 0. -1.
         -1    1    3    3    0  502 -0.96629950150E+02  0.11185239279E+02 -0.34299714328E+01  0.97335612947E+02  0.00000000000E+00 0.  1.
         13    1    5    5    0    0 -0.62802248600E+01  0.55176441456E+02  0.28091607778E+01  0.55603707613E+02  0.00000000000E+00 0.  1.
        -13    1    5    5    0    0 -0.24634595150E+03  0.25640237701E+03  0.40552786510E+02  0.35787293171E+03  0.00000000000E+00 0. -1.
          2    1    6    6  503    0  0.30325059703E+03 -0.24888207639E+03  0.20911316020E+03  0.44455767491E+03  0.00000000000E+00 0. -1.
         -2    1    6    6    0  503  0.31577321533E+02 -0.77921329653E+02  0.57493914319E+02  0.10185485278E+03  0.00000000000E+00 0.  1.
<mgrwt>
<rscale>  0 0.10267953E+04</rscale>
<asrwt>0</asrwt>
<pdfrwt beam="1">  1        2 0.10649001E+00 0.10267953E+04</pdfrwt>
<pdfrwt beam="2">  1       -1 0.58583073E-01 0.10267953E+04</pdfrwt>
<totfact> 0.13973179E+02</totfact>
</mgrwt>
</event>
<event>
12    7  0.1637954E-007  0.1163645E+04  0.7818608E-02  0.9145287E-01
          2   -1    0    0  501    0  0.00000000000E+00  0.00000000000E+00  0.13413220042E+04  0.13413220042E+04  0.00000000000E+00 0. -1.
         -1   -1    0    0    0  501 -0.00000000000E+00 -0.00000000000E+00 -0.25237592226E+03  0.25237592226E+03  0.00000000000E+00 0.  1.
         24    2    1    2    0    0  0.20287260338E+03 -0.93196055079E+02  0.18467267689E+03  0.30051701714E+03  0.79772690280E+02 0.  0.
        254    2    1    2    0    0 -0.20287260338E+03  0.93196055079E+02  0.90427340506E+03  0.12931809093E+04  0.89708621398E+03 0.  0.
         23    2    4    4    0    0  0.13559592492E+03  0.84750721323E+02  0.92324916151E+03  0.94180709647E+03  0.95092865680E+02 0.  0.
         23    2    4    4    0    0 -0.33846852830E+03  0.84453337559E+01 -0.18975756449E+02  0.35137381288E+03  0.92039169546E+02 0.  0.
          4    1    3    3  502    0  0.81257400927E+02 -0.62464611556E+02  0.12488999601E+03  0.16156145582E+03  0.00000000000E+00 0. -1.
         -3    1    3    3    0  502  0.12161520245E+03 -0.30731443524E+02  0.59782680882E+02  0.13895556132E+03  0.00000000000E+00 0.  1.
         13    1    5    5    0    0  0.92192561182E+02  0.44282486159E+01  0.38799785532E+03  0.39882504116E+03  0.00000000000E+00 0.  1.
        -13    1    5    5    0    0  0.43403363741E+02  0.80322472707E+02  0.53525130620E+03  0.54298205531E+03  0.00000000000E+00 0. -1.
          4    1    6    6  503    0 -0.30451882594E+03  0.12183929235E+01 -0.45217589324E+02  0.30786008220E+03  0.00000000000E+00 0. -1.
         -4    1    6    6    0  503 -0.33949702365E+02  0.72269408324E+01  0.26241832874E+02  0.43513730673E+02  0.00000000000E+00 0.  1.
<mgrwt>
<rscale>  0 0.11636449E+04</rscale>
<asrwt>0</asrwt>
<pdfrwt beam="1">  1        2 0.20635723E+00 0.11636449E+04</pdfrwt>
<pdfrwt beam="2">  1       -1 0.38827066E-01 0.11636449E+04</pdfrwt>
<totfact> 0.11331553E+02</totfact>
</mgrwt>
</event>
<event>
12    7  0.1637954E-007  0.2185490E+04  0.7818608E-02  0.8524492E-01
          2   -1    0    0  501    0  0.00000000000E+00  0.00000000000E+00  0.12831869226E+04  0.12831869226E+04  0.00000000000E+00 0. -1.
         -1   -1    0    0    0  501 -0.00000000000E+00 -0.00000000000E+00 -0.93056757558E+03  0.93056757558E+03  0.00000000000E+00 0.  1.
         24    2    1    2    0    0 -0.15963370457E+02 -0.33003211766E+02 -0.76751616569E+03  0.77244635400E+03  0.79045961537E+02 0.  0.
        254    2    1    2    0    0  0.15963370457E+02  0.33003211766E+02  0.11201355127E+04  0.14413081441E+04  0.90626792861E+03 0.  0.
         23    2    4    4    0    0  0.10721885830E+01  0.32208352179E+03  0.10854935820E+04  0.11359863864E+04  0.91813990432E+02 0.  0.
         23    2    4    4    0    0  0.14891181874E+02 -0.28908031003E+03  0.34641930660E+02  0.30532175776E+03  0.90731138321E+02 0.  0.
          4    1    3    3  502    0 -0.20277870966E+01 -0.11552081366E+02 -0.13047737220E+02  0.17544399419E+02  0.00000000000E+00 0. -1.
         -3    1    3    3    0  502 -0.13935583360E+02 -0.21451130400E+02 -0.75446842847E+03  0.75490195458E+03  0.00000000000E+00 0.  1.
         13    1    5    5    0    0 -0.18948537710E+02  0.11211281856E+03  0.52373573544E+03  0.53593605192E+03  0.00000000000E+00 0. -1.
        -13    1    5    5    0    0  0.20020726293E+02  0.20997070323E+03  0.56175784657E+03  0.60005033446E+03  0.00000000000E+00 0.  1.
          1    1    6    6  503    0 -0.31220160952E+02 -0.11915958661E+03 -0.10296199476E+02  0.12361115344E+03  0.00000000000E+00 0. -1.
         -1    1    6    6    0  503  0.46111342826E+02 -0.16992072342E+03  0.44938130135E+02  0.18171060432E+03  0.00000000000E+00 0.  1.
<mgrwt>
<rscale>  0 0.21854905E+04</rscale>
<asrwt>0</asrwt>
<pdfrwt beam="1">  1        2 0.19741337E+00 0.21854905E+04</pdfrwt>
<pdfrwt beam="2">  1       -1 0.14316424E+00 0.21854905E+04</pdfrwt>
<totfact> 0.69712671E+00</totfact>
</mgrwt>
</event>
<event>
12    7  0.1637954E-007  0.2656721E+04  0.7818608E-02  0.8349186E-01
          2   -1    0    0  501    0  0.00000000000E+00  0.00000000000E+00  0.27571593836E+04  0.27571593836E+04  0.00000000000E+00 0. -1.
         -1   -1    0    0    0  501 -0.00000000000E+00 -0.00000000000E+00 -0.63998555126E+03  0.63998555126E+03  0.00000000000E+00 0.  1.
         24    2    1    2    0    0 -0.88011057207E+03  0.26555745532E+03  0.18585804651E+04  0.20748882203E+04  0.75659768700E+02 0.  0.
        254    2    1    2    0    0  0.88011057207E+03 -0.26555745532E+03  0.25859336728E+03  0.13222567145E+04  0.91453644453E+03 0.  0.
         23    2    4    4    0    0  0.10944535465E+03  0.26327727667E+03  0.23995225898E+03  0.38299153020E+03  0.88386738525E+02 0.  0.
         23    2    4    4    0    0  0.77066521741E+03 -0.52883473199E+03  0.18641108309E+02  0.93926518433E+03  0.90997497182E+02 0.  0.
          4    1    3    3  502    0 -0.22091130704E+03  0.77112214175E+02  0.54638128751E+03  0.59437413343E+03  0.00000000000E+00 0. -1.
         -3    1    3    3    0  502 -0.65919926503E+03  0.18844524114E+03  0.13121991776E+04  0.14805140869E+04  0.00000000000E+00 0.  1.
         13    1    5    5    0    0  0.70419552202E+02  0.11618774846E+03  0.16383249368E+03  0.21283700856E+03  0.00000000000E+00 0. -1.
        -13    1    5    5    0    0  0.39025802451E+02  0.14708952821E+03  0.76119765294E+02  0.17015452164E+03  0.00000000000E+00 0.  1.
          1    1    6    6  503    0  0.27985794687E+03 -0.16489244612E+03 -0.30616270596E+02  0.32626269361E+03  0.00000000000E+00 0. -1.
         -1    1    6    6    0  503  0.49080727054E+03 -0.36394228587E+03  0.49257378905E+02  0.61300249073E+03  0.00000000000E+00 0.  1.
<mgrwt>
<rscale>  0 0.26567214E+04</rscale>
<asrwt>0</asrwt>
<pdfrwt beam="1">  1        2 0.42417836E+00 0.26567214E+04</pdfrwt>
<pdfrwt beam="2">  1       -1 0.98459318E-01 0.26567214E+04</pdfrwt>
<totfact> 0.24253435E+00</totfact>
</mgrwt>
</event>
<event>
12    7  0.1637954E-007  0.2242288E+04  0.7818608E-02  0.8501030E-01
          2   -1    0    0  501    0  0.00000000000E+00  0.00000000000E+00  0.17200791367E+04  0.17200791367E+04  0.00000000000E+00 0. -1.
         -1   -1    0    0    0  501 -0.00000000000E+00 -0.00000000000E+00 -0.73075940482E+03  0.73075940482E+03  0.00000000000E+00 0.  1.
         24    2    1    2    0    0  0.19051329574E+03  0.78995596936E+03  0.10138772557E+04  0.13018154061E+04  0.80315083448E+02 0.  0.
        254    2    1    2    0    0 -0.19051329574E+03 -0.78995596936E+03 -0.24557523807E+02  0.11490231354E+04  0.81198851244E+03 0.  0.
         23    2    4    4    0    0 -0.14163727721E+02 -0.55855692422E+03  0.35026426352E+03  0.66576885250E+03  0.91524105481E+02 0.  0.
         23    2    4    4    0    0 -0.17634956802E+03 -0.23139904514E+03 -0.37482178733E+03  0.48325428290E+03  0.91644102137E+02 0.  0.
          4    1    3    3  502    0  0.11209133822E+03  0.41113070825E+03  0.47049602126E+03  0.63479085800E+03  0.00000000000E+00 0. -1.
         -3    1    3    3    0  502  0.78421957515E+02  0.37882526110E+03  0.54338123440E+03  0.66702454810E+03  0.00000000000E+00 0.  1.
         13    1    5    5    0    0 -0.36264867658E+02 -0.89142456740E+02  0.57935627155E+02  0.11233011668E+03  0.00000000000E+00 0.  1.
        -13    1    5    5    0    0  0.22101139937E+02 -0.46941446748E+03  0.29232863637E+03  0.55343873582E+03  0.00000000000E+00 0. -1.
          4    1    6    6  503    0 -0.18022408352E+03 -0.18954886034E+03 -0.33797720466E+03  0.42736176900E+03  0.00000000000E+00 0. -1.
         -4    1    6    6    0  503  0.38745154997E+01 -0.41850184797E+02 -0.36844582668E+02  0.55892513898E+02  0.00000000000E+00 0.  1.
<mgrwt>
<rscale>  0 0.22422881E+04</rscale>
<asrwt>0</asrwt>
<pdfrwt beam="1">  1        2 0.26462756E+00 0.22422881E+04</pdfrwt>
<pdfrwt beam="2">  1       -1 0.11242452E+00 0.22422881E+04</pdfrwt>
<totfact> 0.71835871E+00</totfact>
</mgrwt>
</event>
<event>
12    7  0.1637954E-007  0.1721987E+04  0.7818608E-02  0.8748923E-01
          2   -1    0    0  501    0  0.00000000000E+00  0.00000000000E+00  0.33078175041E+04  0.33078175041E+04  0.00000000000E+00 0. -1.
         -1   -1    0    0    0  501 -0.00000000000E+00 -0.00000000000E+00 -0.22410830958E+03  0.22410830958E+03  0.00000000000E+00 0.  1.
         24    2    1    2    0    0  0.13135371444E+03 -0.59666065244E+03  0.14218877350E+04  0.15495600985E+04  0.78192297873E+02 0.  0.
        254    2    1    2    0    0 -0.13135371444E+03  0.59666065244E+03  0.16618214595E+04  0.19823657152E+04  0.89155231641E+03 0.  0.
         23    2    4    4    0    0 -0.24974182245E+03 -0.15352239636E+03  0.60418759773E+03  0.67715804236E+03  0.86949738407E+02 0.  0.
         23    2    4    4    0    0  0.11838810801E+03  0.75018304881E+03  0.10576338618E+04  0.13052076728E+04  0.90483881121E+02 0.  0.
          4    1    3    3  502    0  0.81195859675E+02 -0.43058720132E+03  0.93208416483E+03  0.10299412585E+04  0.00000000000E+00 0. -1.
         -1    1    3    3    0  502  0.50157854767E+02 -0.16607345112E+03  0.48980357021E+03  0.51961884007E+03  0.00000000000E+00 0.  1.
         13    1    5    5    0    0 -0.20993757170E+03 -0.15554164881E+03  0.47698952870E+03  0.54386211398E+03  0.00000000000E+00 0. -1.
        -13    1    5    5    0    0 -0.39804250748E+02  0.20192524453E+01  0.12719806903E+03  0.13329592838E+03  0.00000000000E+00 0.  1.
          4    1    6    6  503    0  0.10416773284E+03  0.37813831504E+03  0.52436175892E+03  0.65482421770E+03  0.00000000000E+00 0.  1.
         -4    1    6    6    0  503  0.14220375165E+02  0.37204473377E+03  0.53327210286E+03  0.65038345511E+03  0.00000000000E+00 0. -1.
<mgrwt>
<rscale>  0 0.17219865E+04</rscale>
<asrwt>0</asrwt>
<pdfrwt beam="1">  1        2 0.50889496E+00 0.17219865E+04</pdfrwt>
<pdfrwt beam="2">  1       -1 0.34478204E-01 0.17219865E+04</pdfrwt>
<totfact> 0.95589039E+00</totfact>
</mgrwt>
</event>
<event>
12    7  0.1637954E-007  0.1716124E+04  0.7818608E-02  0.8752222E-01
          2   -1    0    0  501    0  0.00000000000E+00  0.00000000000E+00  0.76493095867E+03  0.76493095867E+03  0.00000000000E+00 0. -1.
         -1   -1    0    0    0  501 -0.00000000000E+00 -0.00000000000E+00 -0.96253132529E+03  0.96253132529E+03  0.00000000000E+00 0.  1.
         24    2    1    2    0    0 -0.36476414197E+03 -0.47003306485E+03 -0.12480460329E+03  0.61283528370E+03  0.77504416824E+02 0.  0.
        254    2    1    2    0    0  0.36476414197E+03  0.47003306485E+03 -0.72795763331E+02  0.11146270003E+04  0.93973941347E+03 0.  0.
         23    2    4    4    0    0  0.18543289554E+03  0.52110234134E+02 -0.46211598447E+03  0.50901736249E+03  0.91905696039E+02 0.  0.
         23    2    4    4    0    0  0.17933124643E+03  0.41792283072E+03  0.38932022114E+03  0.60560963777E+03  0.91507433528E+02 0.  0.
          2    1    3    3  502    0 -0.10100265877E+03 -0.11103979490E+03 -0.64204185808E+02  0.16325915167E+03  0.00000000000E+00 0. -1.
         -1    1    3    3    0  502 -0.26376148320E+03 -0.35899326995E+03 -0.60600417480E+02  0.44957613203E+03  0.00000000000E+00 0.  1.
         13    1    5    5    0    0  0.47343380042E+02 -0.24939287918E+02 -0.90164128943E+02  0.10484719292E+03  0.00000000000E+00 0. -1.
        -13    1    5    5    0    0  0.13808951550E+03  0.77049522051E+02 -0.37195185553E+03  0.40417016957E+03  0.00000000000E+00 0.  1.
          4    1    6    6  503    0  0.52265159853E+01  0.31773715289E+02  0.63544858451E+02  0.71237872569E+02  0.00000000000E+00 0. -1.
         -4    1    6    6    0  503  0.17410473044E+03  0.38614911543E+03  0.32577536269E+03  0.53437176520E+03  0.00000000000E+00 0.  1.
<mgrwt>
<rscale>  0 0.17161235E+04</rscale>
<asrwt>0</asrwt>
<pdfrwt beam="1">  1        2 0.11768169E+00 0.17161235E+04</pdfrwt>
<pdfrwt beam="2">  1       -1 0.14808174E+00 0.17161235E+04</pdfrwt>
<totfact> 0.14324723E+01</totfact>
</mgrwt>
</event>
<event>
12    7  0.1637954E-007  0.1552550E+04  0.7818608E-02  0.8850241E-01
         -1   -1    0    0    0  501 -0.00000000000E+00  0.00000000000E+00  0.21516906381E+03  0.21516906381E+03  0.00000000000E+00 0.  1.
          2   -1    0    0  501    0  0.00000000000E+00 -0.00000000000E+00 -0.28006018249E+04  0.28006018249E+04  0.00000000000E+00 0. -1.
         24    2    1    2    0    0  0.86869718217E+02 -0.18508166092E+03  0.50890450522E+02  0.22565091103E+03  0.80789396219E+02 0.  0.
        254    2    1    2    0    0 -0.86869718217E+02  0.18508166092E+03 -0.26363232116E+04  0.27901199777E+04  0.89037511457E+03 0.  0.
         23    2    4    4    0    0 -0.13698456988E+03  0.37286061665E+03 -0.25062829562E+04  0.25391715472E+04  0.90266702008E+02 0.  0.
         23    2    4    4    0    0  0.50114851665E+02 -0.18777895573E+03 -0.13004025540E+03  0.25094843053E+03  0.91061584582E+02 0.  0.
          4    1    3    3  502    0 -0.14613951030E+02 -0.15096181979E+02  0.10928471906E+02  0.23683196010E+02  0.00000000000E+00 0. -1.
         -3    1    3    3    0  502  0.10148366925E+03 -0.16998547894E+03  0.39961978616E+02  0.20196771502E+03  0.00000000000E+00 0.  1.
         13    1    5    5    0    0 -0.86349628982E+02  0.32929714749E+03 -0.20710276083E+04  0.20988206746E+04  0.00000000000E+00 0.  1.
        -13    1    5    5    0    0 -0.50634940901E+02  0.43563469164E+02 -0.43525534792E+03  0.44035087258E+03  0.00000000000E+00 0. -1.
          2    1    6    6  503    0  0.70646811023E+02 -0.17855030998E+03 -0.11402998876E+03  0.22332492794E+03  0.00000000000E+00 0.  1.
         -2    1    6    6    0  503 -0.20531959358E+02 -0.92286457513E+01 -0.16010266638E+02  0.27623502589E+02  0.00000000000E+00 0. -1.
<mgrwt>
<rscale>  0 0.15525500E+04</rscale>
<asrwt>0</asrwt>
<pdfrwt beam="1">  1        2 0.43086179E+00 0.15525500E+04</pdfrwt>
<pdfrwt beam="2">  1       -1 0.33102935E-01 0.15525500E+04</pdfrwt>
<totfact> 0.21809053E+01</totfact>
</mgrwt>
</event>
<event>
12    7  0.1637954E-007  0.1732500E+04  0.7818608E-02  0.8743043E-01
         -1   -1    0    0    0  501 -0.00000000000E+00  0.00000000000E+00  0.46343758967E+03  0.46343758967E+03  0.00000000000E+00 0.  1.
          2   -1    0    0  501    0  0.00000000000E+00 -0.00000000000E+00 -0.16191800267E+04  0.16191800267E+04  0.00000000000E+00 0. -1.
         24    2    1    2    0    0 -0.31657170164E+03 -0.30622668200E+03  0.12642337170E+03  0.46479235811E+03  0.77824444773E+02 0.  0.
        254    2    1    2    0    0  0.31657170164E+03  0.30622668200E+03 -0.12821658087E+04  0.16178252583E+04  0.88284595607E+03 0.  0.
         23    2    4    4    0    0  0.16309101504E+03  0.60512789984E+03 -0.89371859477E+03  0.10953406479E+04  0.90883189046E+02 0.  0.
         23    2    4    4    0    0  0.15348068660E+03 -0.29890121784E+03 -0.38844721395E+03  0.52248461031E+03  0.95920127179E+02 0.  0.
          2    1    3    3  502    0  0.61168778457E+00  0.37185256948E+01  0.63532825644E+00  0.38216799031E+01  0.00000000000E+00 0. -1.
         -1    1    3    3    0  502 -0.31718338942E+03 -0.30994520769E+03  0.12578804344E+03  0.46097067821E+03  0.00000000000E+00 0.  1.
         13    1    5    5    0    0 -0.58415121913E+01  0.47718512580E+02 -0.98814325524E+02  0.10988835533E+03  0.00000000000E+00 0. -1.
        -13    1    5    5    0    0  0.16893252723E+03  0.55740938726E+03 -0.79490426925E+03  0.98545229262E+03  0.00000000000E+00 0.  1.
          2    1    6    6  503    0  0.10072259810E+03 -0.16962127583E+03 -0.15675098279E+03  0.25196684224E+03  0.00000000000E+00 0. -1.
         -2    1    6    6    0  503  0.52758088501E+02 -0.12927994201E+03 -0.23169623116E+03  0.27051776807E+03  0.00000000000E+00 0.  1.
<mgrwt>
<rscale>  0 0.17324998E+04</rscale>
<asrwt>0</asrwt>
<pdfrwt beam="1">  1        2 0.24910462E+00 0.17324998E+04</pdfrwt>
<pdfrwt beam="2">  1       -1 0.71298090E-01 0.17324998E+04</pdfrwt>
<totfact> 0.23369178E+01</totfact>
</mgrwt>
</event>
<event>
12    7  0.1637954E-007  0.1912749E+04  0.7818608E-02  0.8648536E-01
         -1   -1    0    0    0  501 -0.00000000000E+00  0.00000000000E+00  0.76650184199E+03  0.76650184199E+03  0.00000000000E+00 0.  1.
          2   -1    0    0  501    0  0.00000000000E+00 -0.00000000000E+00 -0.11932813999E+04  0.11932813999E+04  0.00000000000E+00 0. -1.
         24    2    1    2    0    0  0.21453093790E+03  0.10481129956E+03  0.55018314966E+03  0.60506913225E+03  0.79988904250E+02 0.  0.
        254    2    1    2    0    0 -0.21453093790E+03 -0.10481129956E+03 -0.97696270753E+03  0.13547141096E+04  0.90762616479E+03 0.  0.
         23    2    4    4    0    0 -0.11344948131E+03  0.36486058204E+03 -0.20916206871E+03  0.44488693389E+03  0.90452107896E+02 0.  0.
         23    2    4    4    0    0 -0.10108145660E+03 -0.46967188160E+03 -0.76780063881E+03  0.90982717571E+03  0.86362789808E+02 0.  0.
          4    1    3    3  502    0  0.44720961683E+01  0.26719100871E+02  0.47256288580E+02  0.54470788556E+02  0.00000000000E+00 0. -1.
         -3    1    3    3    0  502  0.21005884174E+03  0.78092198688E+02  0.50292686108E+03  0.55059834370E+03  0.00000000000E+00 0.  1.
         13    1    5    5    0    0 -0.11483052682E+03  0.32996716954E+03 -0.15922013948E+03  0.38394717824E+03  0.00000000000E+00 0.  1.
        -13    1    5    5    0    0  0.13810455157E+01  0.34893412495E+02 -0.49941929235E+02  0.60939755644E+02  0.00000000000E+00 0. -1.
          1    1    6    6  503    0  0.10037132146E+02 -0.99555371323E+02 -0.18950094806E+03  0.21429564927E+03  0.00000000000E+00 0. -1.
         -1    1    6    6    0  503 -0.11111858874E+03 -0.37011651027E+03 -0.57829969076E+03  0.69553152644E+03  0.00000000000E+00 0.  1.
<mgrwt>
<rscale>  0 0.19127492E+04</rscale>
<asrwt>0</asrwt>
<pdfrwt beam="1">  1        2 0.18358175E+00 0.19127492E+04</pdfrwt>
<pdfrwt beam="2">  1       -1 0.11792336E+00 0.19127492E+04</pdfrwt>
<totfact> 0.13177198E+01</totfact>
</mgrwt>
</event>
<event>
12    7  0.1637954E-007  0.1482247E+04  0.7818608E-02  0.8896345E-01
          2   -1    0    0  501    0  0.00000000000E+00  0.00000000000E+00  0.18475151075E+04  0.18475151075E+04  0.00000000000E+00 0. -1.
         -1   -1    0    0    0  501 -0.00000000000E+00 -0.00000000000E+00 -0.29729866027E+03  0.29729866027E+03  0.00000000000E+00 0.  1.
         24    2    1    2    0    0  0.31795503697E+03  0.23619682822E+03  0.15323365553E+03  0.43622192990E+03  0.99622646707E+02 0.  0.
        254    2    1    2    0    0 -0.31795503697E+03 -0.23619682822E+03  0.13969827917E+04  0.17085918379E+04  0.90046699049E+03 0.  0.
         23    2    4    4    0    0 -0.23489327000E+03  0.40637870630E+02 -0.24400968157E+02  0.25531009413E+03  0.88099671366E+02 0.  0.
         23    2    4    4    0    0 -0.83061766967E+02 -0.27683469885E+03  0.14213837599E+04  0.14532817438E+04  0.90328989188E+02 0.  0.
          4    1    3    3  502    0  0.60576770317E+02  0.12425831287E+02 -0.11621676344E+01  0.61848985593E+02  0.00000000000E+00 0. -1.
         -3    1    3    3    0  502  0.25737826665E+03  0.22377099693E+03  0.15439582317E+03  0.37437294430E+03  0.00000000000E+00 0.  1.
         13    1    5    5    0    0 -0.14646076049E+03  0.11028371228E+02  0.26222798453E+02  0.14919790378E+03  0.00000000000E+00 0. -1.
        -13    1    5    5    0    0 -0.88432509517E+02  0.29609499402E+02 -0.50623766611E+02  0.10611219035E+03  0.00000000000E+00 0.  1.
          1    1    6    6  503    0 -0.37572804961E+02 -0.23878393309E+03  0.11991990100E+04  0.12233183347E+04  0.00000000000E+00 0. -1.
         -1    1    6    6    0  503 -0.45488962006E+02 -0.38050765755E+02  0.22218474992E+03  0.22996340913E+03  0.00000000000E+00 0.  1.
<mgrwt>
<rscale>  0 0.14822466E+04</rscale>
<asrwt>0</asrwt>
<pdfrwt beam="1">  1        2 0.28423309E+00 0.14822466E+04</pdfrwt>
<pdfrwt beam="2">  1       -1 0.45738256E-01 0.14822466E+04</pdfrwt>
<totfact> 0.42517949E+01</totfact>
</mgrwt>
</event>
<event>
12    7  0.1637954E-007  0.1905852E+04  0.7818608E-02  0.8651949E-01
          2   -1    0    0  501    0  0.00000000000E+00  0.00000000000E+00  0.46868469482E+03  0.46868469482E+03  0.00000000000E+00 0. -1.
         -1   -1    0    0    0  501 -0.00000000000E+00 -0.00000000000E+00 -0.19374820387E+04  0.19374820387E+04  0.00000000000E+00 0.  1.
         24    2    1    2    0    0  0.60969114379E+03 -0.53436081440E+02 -0.56276781351E+02  0.61974980948E+03  0.79649511066E+02 0.  0.
        254    2    1    2    0    0 -0.60969114379E+03  0.53436081440E+02 -0.14125205626E+04  0.17864169241E+04  0.90636216898E+03 0.  0.
         23    2    4    4    0    0  0.74309367808E+02 -0.73012056351E+02 -0.91633992010E+03  0.92698786842E+03  0.93675058102E+02 0.  0.
         23    2    4    4    0    0 -0.68400051160E+03  0.12644813779E+03 -0.49618064246E+03  0.85942905566E+03  0.92613391774E+02 0.  0.
          4    1    3    3  502    0  0.35808928721E+03 -0.58951561798E+02 -0.61231435060E+02  0.36803873831E+03  0.00000000000E+00 0. -1.
         -3    1    3    3    0  502  0.25160185658E+03  0.55154803577E+01  0.49546537098E+01  0.25171107117E+03  0.00000000000E+00 0.  1.
         13    1    5    5    0    0  0.94264868226E+02 -0.43850615183E+02 -0.72439800757E+03  0.73182048018E+03  0.00000000000E+00 0.  1.
        -13    1    5    5    0    0 -0.19955500418E+02 -0.29161441168E+02 -0.19194191253E+03  0.19516738824E+03  0.00000000000E+00 0. -1.
          3    1    6    6  503    0 -0.25859299191E+03  0.70885634279E+01 -0.15916864785E+03  0.30373547974E+03  0.00000000000E+00 0. -1.
         -3    1    6    6    0  503 -0.42540751969E+03  0.11935957436E+03 -0.33701199461E+03  0.55569357591E+03  0.00000000000E+00 0.  1.
<mgrwt>
<rscale>  0 0.19058522E+04</rscale>
<asrwt>0</asrwt>
<pdfrwt beam="1">  1        2 0.72105338E-01 0.19058522E+04</pdfrwt>
<pdfrwt beam="2">  1       -1 0.29807416E+00 0.19058522E+04</pdfrwt>
<totfact> 0.24152000E+00</totfact>
</mgrwt>
</event>
<event>
12    7  0.1637954E-007  0.2269750E+04  0.7818608E-02  0.8489945E-01
          2   -1    0    0  501    0  0.00000000000E+00  0.00000000000E+00  0.38366567451E+04  0.38366567451E+04  0.00000000000E+00 0. -1.
         -1   -1    0    0    0  501 -0.00000000000E+00 -0.00000000000E+00 -0.33569351001E+03  0.33569351001E+03  0.00000000000E+00 0.  1.
         24    2    1    2    0    0  0.62065816567E+03 -0.73938372325E+02  0.27760082104E+04  0.28459922226E+04  0.52599482605E+02 0.  0.
        254    2    1    2    0    0 -0.62065816567E+03  0.73938372325E+02  0.72495502467E+03  0.13263580325E+04  0.91814073048E+03 0.  0.
         23    2    4    4    0    0  0.17453779960E+03  0.58807366542E+02 -0.51986387119E+02  0.21052301480E+03  0.87724600119E+02 0.  0.
         23    2    4    4    0    0 -0.79519596527E+03  0.15131005783E+02  0.77694141179E+03  0.11158350177E+04  0.94256346079E+02 0.  0.
          2    1    3    3  502    0  0.49951766250E+03 -0.76789906043E+02  0.21842623301E+04  0.22419671076E+04  0.00000000000E+00 0. -1.
         -1    1    3    3    0  502  0.12114050317E+03  0.28515337173E+01  0.59174588024E+03  0.60402511498E+03  0.00000000000E+00 0.  1.
         13    1    5    5    0    0  0.91417046198E+01 -0.18605134318E+02 -0.10572093785E+02  0.23269958172E+02  0.00000000000E+00 0. -1.
        -13    1    5    5    0    0  0.16539609498E+03  0.77412500860E+02 -0.41414293334E+02  0.18725305663E+03  0.00000000000E+00 0.  1.
          1    1    6    6  503    0 -0.54617013970E+02  0.18387258486E+02  0.34455163640E+02  0.67143635522E+02  0.00000000000E+00 0. -1.
         -1    1    6    6    0  503 -0.74057895130E+03 -0.32562527026E+01  0.74248624815E+03  0.10486913821E+04  0.00000000000E+00 0.  1.
<mgrwt>
<rscale>  0 0.22697496E+04</rscale>
<asrwt>0</asrwt>
<pdfrwt beam="1">  1        2 0.59025486E+00 0.22697496E+04</pdfrwt>
<pdfrwt beam="2">  1       -1 0.51645158E-01 0.22697496E+04</pdfrwt>
<totfact> 0.18051272E+00</totfact>
</mgrwt>
</event>
<event>
12    7  0.1767436E-007  0.2005576E+04  0.7818608E-02  0.8604018E-01
          2   -1    0    0  501    0  0.00000000000E+00  0.00000000000E+00  0.16299237835E+04  0.16299237835E+04  0.00000000000E+00 0. -1.
         -1   -1    0    0    0  501 -0.00000000000E+00 -0.00000000000E+00 -0.61695160362E+03  0.61695160362E+03  0.00000000000E+00 0.  1.
         24    2    1    2    0    0 -0.19764373694E+03 -0.85499231735E+02 -0.42205192140E+03  0.48029982857E+03  0.78657075886E+02 0.  0.
        254    2    1    2    0    0  0.19764373694E+03  0.85499231735E+02  0.14350241013E+04  0.17665755585E+04  0.10075325639E+04 0.  0.
         23    2    4    4    0    0  0.52208957885E+02 -0.45338294909E+02 -0.13821483660E+03  0.17866885280E+03  0.89654233781E+02 0.  0.
         23    2    4    4    0    0  0.14543477906E+03  0.13083752664E+03  0.15732389379E+04  0.15879067057E+04  0.89984538466E+02 0.  0.
          2    1    3    3  502    0 -0.65225548550E+02 -0.13614080350E+02 -0.20891777527E+03  0.21928600547E+03  0.00000000000E+00 0. -1.
         -1    1    3    3    0  502 -0.13241818839E+03 -0.71885151386E+02 -0.21313414613E+03  0.26101382311E+03  0.00000000000E+00 0.  1.
         13    1    5    5    0    0  0.59747184763E+02 -0.25466388308E+00 -0.44826295423E+02  0.74693960279E+02  0.00000000000E+00 0. -1.
        -13    1    5    5    0    0 -0.75382268786E+01 -0.45083631026E+02 -0.93388541177E+02  0.10397489252E+03  0.00000000000E+00 0.  1.
          3    1    6    6  503    0  0.34274544879E+02  0.15939364105E+02  0.63667376549E+03  0.63779486625E+03  0.00000000000E+00 0. -1.
         -3    1    6    6    0  503  0.11116023418E+03  0.11489816254E+03  0.93656517237E+03  0.95011183948E+03  0.00000000000E+00 0.  1.
<mgrwt>
<rscale>  0 0.20055763E+04</rscale>
<asrwt>0</asrwt>
<pdfrwt beam="1">  1        2 0.25075750E+00 0.20055763E+04</pdfrwt>
<pdfrwt beam="2">  1       -1 0.94915632E-01 0.20055763E+04</pdfrwt>
<totfact> 0.12177753E+01</totfact>
</mgrwt>
</event>
<event>
12    7  0.1637954E-007  0.2007148E+04  0.7818608E-02  0.8603286E-01
          2   -1    0    0  501    0  0.00000000000E+00  0.00000000000E+00  0.11406204528E+04  0.11406204528E+04  0.00000000000E+00 0. -1.
         -1   -1    0    0    0  501 -0.00000000000E+00 -0.00000000000E+00 -0.88299343149E+03  0.88299343149E+03  0.00000000000E+00 0.  1.
         24    2    1    2    0    0  0.68368911878E+03 -0.40179669539E+03  0.16840416354E+03  0.81469607791E+03  0.80612291226E+02 0.  0.
        254    2    1    2    0    0 -0.68368911878E+03  0.40179669539E+03  0.89222857754E+02  0.12089178064E+04  0.90810249897E+03 0.  0.
         23    2    4    4    0    0 -0.35044263529E+03  0.18442848613E+03 -0.40108930749E+03  0.57108567306E+03  0.91882023617E+02 0.  0.
         23    2    4    4    0    0 -0.33324648349E+03  0.21736820927E+03  0.49031216525E+03  0.63783213331E+03  0.90120218248E+02 0.  0.
          4    1    3    3  502    0  0.59085896223E+02 -0.47928523943E+02  0.38093671377E+02  0.85084747980E+02  0.00000000000E+00 0. -1.
         -3    1    3    3    0  502  0.62460322256E+03 -0.35386817145E+03  0.13031049217E+03  0.72961132993E+03  0.00000000000E+00 0.  1.
         13    1    5    5    0    0 -0.34026033063E+03  0.18055696682E+03 -0.40553683379E+03  0.55931925984E+03  0.00000000000E+00 0. -1.
        -13    1    5    5    0    0 -0.10182304657E+02  0.38715193042E+01  0.44475262954E+01  0.11766413218E+02  0.00000000000E+00 0.  1.
          3    1    6    6  503    0 -0.21352341724E+03  0.11439193467E+03  0.35557915813E+03  0.43024911636E+03  0.00000000000E+00 0. -1.
         -3    1    6    6    0  503 -0.11972306625E+03  0.10297627459E+03  0.13473300711E+03  0.20758301695E+03  0.00000000000E+00 0.  1.
<mgrwt>
<rscale>  0 0.20071476E+04</rscale>
<asrwt>0</asrwt>
<pdfrwt beam="1">  1        2 0.17548007E+00 0.20071476E+04</pdfrwt>
<pdfrwt beam="2">  1       -1 0.13584514E+00 0.20071476E+04</pdfrwt>
<totfact> 0.98742550E+00</totfact>
</mgrwt>
</event>
<event>
12    7  0.1637954E-007  0.2824348E+04  0.7818608E-02  0.8295749E-01
         -1   -1    0    0    0  501 -0.00000000000E+00  0.00000000000E+00  0.80126058867E+03  0.80126058867E+03  0.00000000000E+00 0.  1.
          2   -1    0    0  501    0  0.00000000000E+00 -0.00000000000E+00 -0.24888723927E+04  0.24888723927E+04  0.00000000000E+00 0. -1.
         24    2    1    2    0    0  0.95444579000E+03 -0.37082877920E+03  0.81572254552E+02  0.10302215522E+04  0.78877528059E+02 0.  0.
        254    2    1    2    0    0 -0.95444579000E+03  0.37082877920E+03 -0.17691840586E+04  0.22599114291E+04  0.96369429015E+03 0.  0.
         23    2    4    4    0    0 -0.89932797527E+03  0.42691111562E+03 -0.79182778298E+03  0.12752327494E+04  0.90462254609E+02 0.  0.
         23    2    4    4    0    0 -0.55117814726E+02 -0.56082336420E+02 -0.97735627557E+03  0.98467867971E+03  0.90463312473E+02 0.  0.
          4    1    3    3  502    0  0.45016405581E+03 -0.21119553706E+03  0.59826007738E+02  0.50082969482E+03  0.00000000000E+00 0. -1.
         -3    1    3    3    0  502  0.50428173419E+03 -0.15963324214E+03  0.21746246813E+02  0.52939185741E+03  0.00000000000E+00 0.  1.
         13    1    5    5    0    0 -0.26839190735E+03  0.86061298722E+02 -0.24421048186E+03  0.37293367040E+03  0.00000000000E+00 0. -1.
        -13    1    5    5    0    0 -0.63093606792E+03  0.34084981690E+03 -0.54761730111E+03  0.90229907900E+03  0.00000000000E+00 0.  1.
          4    1    6    6  503    0 -0.17556872785E+02 -0.49112531255E+01 -0.29360683349E+02  0.34560293922E+02  0.00000000000E+00 0. -1.
         -4    1    6    6    0  503 -0.37560941941E+02 -0.51171083294E+02 -0.94799559223E+03  0.95011838578E+03  0.00000000000E+00 0.  1.
<mgrwt>
<rscale>  0 0.28243480E+04</rscale>
<asrwt>0</asrwt>
<pdfrwt beam="1">  1        2 0.38290345E+00 0.28243480E+04</pdfrwt>
<pdfrwt beam="2">  1       -1 0.12327086E+00 0.28243480E+04</pdfrwt>
<totfact> 0.20203939E+00</totfact>
</mgrwt>
</event>
<event>
12    7  0.1637954E-007  0.1082469E+04  0.7818608E-02  0.9222449E-01
         -1   -1    0    0    0  501 -0.00000000000E+00  0.00000000000E+00  0.70051830523E+03  0.70051830523E+03  0.00000000000E+00 0.  1.
          2   -1    0    0  501    0  0.00000000000E+00 -0.00000000000E+00 -0.41816845407E+03  0.41816845407E+03  0.00000000000E+00 0. -1.
         24    2    1    2    0    0 -0.64335462816E+02 -0.97791273530E+02 -0.79670592242E+02  0.16238786375E+03  0.79499874660E+02 0.  0.
        254    2    1    2    0    0  0.64335462816E+02  0.97791273530E+02  0.36202044339E+03  0.95629889555E+03  0.87735203382E+03 0.  0.
         23    2    4    4    0    0  0.54971009893E+02  0.24557904076E+03 -0.22125899855E+03  0.34742354540E+03  0.91742565210E+02 0.  0.
         23    2    4    4    0    0  0.93644529225E+01 -0.14778776723E+03  0.58327944194E+03  0.60887535015E+03  0.92657258286E+02 0.  0.
          4    1    3    3  502    0 -0.64140301766E+02 -0.97105837821E+02 -0.40517375587E+02  0.12322816145E+03  0.00000000000E+00 0. -1.
         -3    1    3    3    0  502 -0.19516104985E+00 -0.68543570902E+00 -0.39153216655E+02  0.39159702302E+02  0.00000000000E+00 0.  1.
         13    1    5    5    0    0  0.57338890753E+02  0.21484782016E+03 -0.22503954968E+03  0.31637024692E+03  0.00000000000E+00 0.  1.
        -13    1    5    5    0    0 -0.23678808605E+01  0.30731220601E+02  0.37805511305E+01  0.31053298476E+02  0.00000000000E+00 0. -1.
          4    1    6    6  503    0 -0.50201399715E+01 -0.33217149461E+00  0.16597757035E+03  0.16605380454E+03  0.00000000000E+00 0. -1.
         -4    1    6    6    0  503  0.14384592894E+02 -0.14745559573E+03  0.41730187159E+03  0.44282154561E+03  0.00000000000E+00 0.  1.
<mgrwt>
<rscale>  0 0.10824688E+04</rscale>
<asrwt>0</asrwt>
<pdfrwt beam="1">  1        2 0.64333608E-01 0.10824688E+04</pdfrwt>
<pdfrwt beam="2">  1       -1 0.10777205E+00 0.10824688E+04</pdfrwt>
<totfact> 0.68925080E+01</totfact>
</mgrwt>
</event>
<event>
12    7  0.1637954E-007  0.1470475E+04  0.7818608E-02  0.8904327E-01
          2   -1    0    0  501    0  0.00000000000E+00  0.00000000000E+00  0.28161545175E+04  0.28161545175E+04  0.00000000000E+00 0. -1.
         -3   -1    0    0    0  501 -0.00000000000E+00 -0.00000000000E+00 -0.19195476281E+03  0.19195476281E+03  0.00000000000E+00 0.  1.
         24    2    1    2    0    0  0.45044217881E+02  0.34054595193E+03  0.12737017205E+04  0.13216337981E+04  0.79995602892E+02 0.  0.
        254    2    1    2    0    0 -0.45044217881E+02 -0.34054595193E+03  0.13504980342E+04  0.16864754822E+04  0.94992319947E+03 0.  0.
         23    2    4    4    0    0 -0.39741047739E+03 -0.37655279732E+03  0.45496876136E+03  0.71811808730E+03  0.94709644615E+02 0.  0.
         23    2    4    4    0    0  0.35236625950E+03  0.36006845397E+02  0.89552927282E+03  0.96835739493E+03  0.10141445699E+03 0.  0.
          2    1    3    3  502    0  0.29796264134E+02  0.30250769234E+03  0.11930864281E+04  0.12312002055E+04  0.00000000000E+00 0. -1.
         -1    1    3    3    0  502  0.15247953746E+02  0.38038259585E+02  0.80615292440E+02  0.90433592547E+02  0.00000000000E+00 0.  1.
         13    1    5    5    0    0 -0.97079615094E+02 -0.70890710531E+02  0.14967214642E+03  0.19196795546E+03  0.00000000000E+00 0.  1.
        -13    1    5    5    0    0 -0.30033086229E+03 -0.30566208679E+03  0.30529661494E+03  0.52615013185E+03  0.00000000000E+00 0. -1.
          1    1    6    6  503    0  0.21627756695E+03  0.15045441680E+02  0.66911404469E+03  0.70336047378E+03  0.00000000000E+00 0. -1.
         -1    1    6    6    0  503  0.13608869256E+03  0.20961403717E+02  0.22641522813E+03  0.26499692114E+03  0.00000000000E+00 0.  1.
<mgrwt>
<rscale>  0 0.14704751E+04</rscale>
<asrwt>0</asrwt>
<pdfrwt beam="1">  1        2 0.43325451E+00 0.14704751E+04</pdfrwt>
<pdfrwt beam="2">  1       -3 0.29531504E-01 0.14704751E+04</pdfrwt>
<totfact> 0.15980918E+01</totfact>
</mgrwt>
</event>
<event>
12    7  0.1637954E-007  0.1609592E+04  0.7818608E-02  0.8814677E-01
         -1   -1    0    0    0  501 -0.00000000000E+00  0.00000000000E+00  0.27519619815E+03  0.27519619815E+03  0.00000000000E+00 0.  1.
          2   -1    0    0  501    0  0.00000000000E+00 -0.00000000000E+00 -0.23535813162E+04  0.23535813162E+04  0.00000000000E+00 0. -1.
         24    2    1    2    0    0 -0.21103405670E+03  0.69005512883E+02  0.88974393391E+02  0.25156899654E+03  0.77931915460E+02 0.  0.
        254    2    1    2    0    0  0.21103405670E+03 -0.69005512883E+02 -0.21673595114E+04  0.23772085178E+04  0.95098683028E+03 0.  0.
         23    2    4    4    0    0 -0.45841541980E+02 -0.37841584267E+03 -0.17375935935E+04  0.17815001427E+04  0.95975338228E+02 0.  0.
         23    2    4    4    0    0  0.25687559868E+03  0.30941032979E+03 -0.42976591796E+03  0.59570837505E+03  0.91923329425E+02 0.  0.
          2    1    3    3  502    0 -0.11451712933E+02  0.17733355655E+02 -0.95433099419E+01  0.23166536136E+02  0.00000000000E+00 0. -1.
         -1    1    3    3    0  502 -0.19958234377E+03  0.51272157228E+02  0.98517703333E+02  0.22840246041E+03  0.00000000000E+00 0.  1.
         13    1    5    5    0    0 -0.65726737679E+02 -0.22932916723E+03 -0.11868059474E+04  0.12105454257E+04  0.00000000000E+00 0. -1.
        -13    1    5    5    0    0  0.19885195699E+02 -0.14908667544E+03 -0.55078764611E+03  0.57095471704E+03  0.00000000000E+00 0.  1.
          1    1    6    6  503    0  0.94854751852E+02  0.52684468455E+02 -0.10131696061E+03  0.14845269844E+03  0.00000000000E+00 0. -1.
         -1    1    6    6    0  503  0.16202084683E+03  0.25672586133E+03 -0.32844895735E+03  0.44725567662E+03  0.00000000000E+00 0.  1.
<mgrwt>
<rscale>  0 0.16095920E+04</rscale>
<asrwt>0</asrwt>
<pdfrwt beam="1">  1        2 0.36208944E+00 0.16095920E+04</pdfrwt>
<pdfrwt beam="2">  1       -1 0.42337876E-01 0.16095920E+04</pdfrwt>
<totfact> 0.25334110E+01</totfact>
</mgrwt>
</event>
<event>
12    7  0.1637954E-007  0.3087446E+04  0.7818608E-02  0.8219192E-01
         -1   -1    0    0    0  501 -0.00000000000E+00  0.00000000000E+00  0.74014846635E+03  0.74014846635E+03  0.00000000000E+00 0.  1.
          2   -1    0    0  501    0  0.00000000000E+00 -0.00000000000E+00 -0.32197332539E+04  0.32197332539E+04  0.00000000000E+00 0. -1.
         24    2    1    2    0    0  0.43260302288E+03 -0.12552131544E+04 -0.51341562376E+03  0.14260070684E+04  0.84824041786E+02 0.  0.
        254    2    1    2    0    0 -0.43260302288E+03  0.12552131544E+04 -0.19661691638E+04  0.25338746519E+04  0.88994052169E+03 0.  0.
         23    2    4    4    0    0 -0.11235344381E+03  0.30059309995E+03 -0.12305330007E+02  0.33389688081E+03  0.91412240917E+02 0.  0.
         23    2    4    4    0    0 -0.32024957907E+03  0.95462005446E+03 -0.19538638338E+04  0.21999777711E+04  0.91973206760E+02 0.  0.
          2    1    3    3  502    0  0.44455240482E+02 -0.72814786540E+02 -0.22753444070E+02  0.88294851278E+02  0.00000000000E+00 0. -1.
         -3    1    3    3    0  502  0.38814778240E+03 -0.11823983679E+04 -0.49066217969E+03  0.13377122171E+04  0.00000000000E+00 0.  1.
         13    1    5    5    0    0 -0.73614846231E+02  0.27746387689E+03  0.25381761762E+00  0.28706343025E+03  0.00000000000E+00 0.  1.
        -13    1    5    5    0    0 -0.38738597579E+02  0.23129223067E+02 -0.12559147624E+02  0.46833450557E+02  0.00000000000E+00 0. -1.
          2    1    6    6  503    0 -0.53641458804E+02  0.12251510280E+03 -0.32747227112E+03  0.35373075194E+03  0.00000000000E+00 0. -1.
         -2    1    6    6    0  503 -0.26660812027E+03  0.83210495166E+03 -0.16263915627E+04  0.18462470191E+04  0.00000000000E+00 0.  1.
<mgrwt>
<rscale>  0 0.30874460E+04</rscale>
<asrwt>0</asrwt>
<pdfrwt beam="1">  1        2 0.49534359E+00 0.30874460E+04</pdfrwt>
<pdfrwt beam="2">  1       -1 0.11386899E+00 0.30874460E+04</pdfrwt>
<totfact> 0.85342597E-01</totfact>
</mgrwt>
</event>
<event>
12    7  0.1637954E-007  0.1396593E+04  0.7818608E-02  0.8956288E-01
         -1   -1    0    0    0  501 -0.00000000000E+00  0.00000000000E+00  0.28569920185E+03  0.28569920185E+03  0.00000000000E+00 0.  1.
          2   -1    0    0  501    0  0.00000000000E+00 -0.00000000000E+00 -0.17067529818E+04  0.17067529818E+04  0.00000000000E+00 0. -1.
         24    2    1    2    0    0 -0.23122541379E+03  0.88219953189E+02  0.34763201729E+02  0.26237392172E+03  0.79897700115E+02 0.  0.
        254    2    1    2    0    0  0.23122541379E+03 -0.88219953189E+02 -0.14558169817E+04  0.17300782619E+04  0.90139877753E+03 0.  0.
         23    2    4    4    0    0  0.21427020660E+03 -0.36618876858E+03 -0.13509834833E+04  0.14192172123E+04  0.94948344415E+02 0.  0.
         23    2    4    4    0    0  0.16955207190E+02  0.27796881539E+03 -0.10483349840E+03  0.31086104957E+03  0.89946586202E+02 0.  0.
          4    1    3    3  502    0 -0.37078795110E+01  0.17663710541E+02 -0.90197336642E+01  0.20176982825E+02  0.00000000000E+00 0. -1.
         -3    1    3    3    0  502 -0.22751753428E+03  0.70556242648E+02  0.43782935393E+02  0.24219693890E+03  0.00000000000E+00 0.  1.
         13    1    5    5    0    0  0.21283321837E+02 -0.10004942001E+02 -0.34036788805E+02  0.41371265935E+02  0.00000000000E+00 0. -1.
        -13    1    5    5    0    0  0.19298688476E+03 -0.35618382658E+03 -0.13169466945E+04  0.13778459464E+04  0.00000000000E+00 0.  1.
          3    1    6    6  503    0  0.18148492176E+02  0.16221059140E+03 -0.10683772780E+03  0.19507932698E+03  0.00000000000E+00 0.  1.
         -3    1    6    6    0  503 -0.11932849859E+01  0.11575822399E+03  0.20042294045E+01  0.11578172259E+03  0.00000000000E+00 0. -1.
<mgrwt>
<rscale>  0 0.13965929E+04</rscale>
<asrwt>0</asrwt>
<pdfrwt beam="1">  1        2 0.26257738E+00 0.13965929E+04</pdfrwt>
<pdfrwt beam="2">  1       -1 0.43953724E-01 0.13965929E+04</pdfrwt>
<totfact> 0.55178867E+01</totfact>
</mgrwt>
</event>
<event>
12    7  0.1637954E-007  0.1579040E+04  0.7818608E-02  0.8833529E-01
         -1   -1    0    0    0  501 -0.00000000000E+00  0.00000000000E+00  0.54578614088E+03  0.54578614088E+03  0.00000000000E+00 0.  1.
          2   -1    0    0  501    0  0.00000000000E+00 -0.00000000000E+00 -0.11420996396E+04  0.11420996396E+04  0.00000000000E+00 0. -1.
         24    2    1    2    0    0  0.17913745953E+02  0.51980114909E+03 -0.14506067355E+03  0.54844463894E+03  0.96097794363E+02 0.  0.
        254    2    1    2    0    0 -0.17913745953E+02 -0.51980114909E+03 -0.45125282522E+03  0.11394411416E+04  0.90784517730E+03 0.  0.
         23    2    4    4    0    0 -0.34231854516E+03 -0.23719724132E+03  0.96586641587E+02  0.43701758357E+03  0.90613858602E+02 0.  0.
         23    2    4    4    0    0  0.32440479921E+03 -0.28260390778E+03 -0.54783946680E+03  0.70242355800E+03  0.90373286987E+02 0.  0.
          2    1    3    3  502    0  0.39604619371E+01  0.40993313430E+03 -0.15261156381E+03  0.43743702320E+03  0.00000000000E+00 0. -1.
         -1    1    3    3    0  502  0.13953284016E+02  0.10986801480E+03  0.75508902611E+01  0.11100761575E+03  0.00000000000E+00 0.  1.
         13    1    5    5    0    0 -0.10500755382E+03 -0.36667695099E+02 -0.14233519249E+01  0.11123458165E+03  0.00000000000E+00 0. -1.
        -13    1    5    5    0    0 -0.23731099134E+03 -0.20052954622E+03  0.98009993512E+02  0.32578300193E+03  0.00000000000E+00 0.  1.
          2    1    6    6  503    0  0.48336031606E+02 -0.11134166331E+02 -0.90482809497E+02  0.10318662910E+03  0.00000000000E+00 0. -1.
         -2    1    6    6    0  503  0.27606876760E+03 -0.27146974145E+03 -0.45735665731E+03  0.59923692890E+03  0.00000000000E+00 0.  1.
<mgrwt>
<rscale>  0 0.15790404E+04</rscale>
<asrwt>0</asrwt>
<pdfrwt beam="1">  1        2 0.17570764E+00 0.15790404E+04</pdfrwt>
<pdfrwt beam="2">  1       -1 0.83967098E-01 0.15790404E+04</pdfrwt>
<totfact> 0.31616862E+01</totfact>
</mgrwt>
</event>
<event>
12    7  0.1637954E-007  0.2157598E+04  0.7818608E-02  0.8536287E-01
         -1   -1    0    0    0  501 -0.00000000000E+00  0.00000000000E+00  0.71904045282E+03  0.71904045282E+03  0.00000000000E+00 0.  1.
          2   -1    0    0  501    0  0.00000000000E+00 -0.00000000000E+00 -0.16185554415E+04  0.16185554415E+04  0.00000000000E+00 0. -1.
         24    2    1    2    0    0  0.28308306875E+03 -0.59747621826E+03 -0.10126661815E+04  0.12119812498E+04  0.79321495037E+02 0.  0.
        254    2    1    2    0    0 -0.28308306875E+03  0.59747621826E+03  0.11315119279E+03  0.11256146445E+04  0.90393101525E+03 0.  0.
         23    2    4    4    0    0  0.85466353968E+02  0.51222690852E+03  0.38298629875E+03  0.65222013827E+03  0.95035258022E+02 0.  0.
         23    2    4    4    0    0 -0.36854942272E+03  0.85249309742E+02 -0.26983510596E+03  0.47339450625E+03  0.90527633035E+02 0.  0.
          4    1    3    3  502    0  0.19111794723E+03 -0.38445264205E+03 -0.58799860566E+03  0.72806061835E+03  0.00000000000E+00 0. -1.
         -3    1    3    3    0  502  0.91965121521E+02 -0.21302357620E+03 -0.42466757586E+03  0.48392063149E+03  0.00000000000E+00 0.  1.
         13    1    5    5    0    0  0.21653581989E+02  0.14369423152E+02  0.19901779259E+02  0.32732839051E+02  0.00000000000E+00 0. -1.
        -13    1    5    5    0    0  0.63812771979E+02  0.49785748536E+03  0.36308451949E+03  0.61948729922E+03  0.00000000000E+00 0.  1.
          1    1    6    6  503    0 -0.30364206327E+03  0.89072356099E+02 -0.18513594515E+03  0.36661656454E+03  0.00000000000E+00 0.  1.
         -1    1    6    6    0  503 -0.64907359446E+02 -0.38230463572E+01 -0.84699160814E+02  0.10677794171E+03  0.00000000000E+00 0. -1.
<mgrwt>
<rscale>  0 0.21575976E+04</rscale>
<asrwt>0</asrwt>
<pdfrwt beam="1">  1        2 0.24900853E+00 0.21575976E+04</pdfrwt>
<pdfrwt beam="2">  1       -1 0.11062161E+00 0.21575976E+04</pdfrwt>
<totfact> 0.85660821E+00</totfact>
</mgrwt>
</event>
<event>
12    7  0.1637954E-007  0.1494946E+04  0.7818608E-02  0.8887821E-01
          2   -1    0    0  501    0  0.00000000000E+00  0.00000000000E+00  0.16535853803E+04  0.16535853803E+04  0.00000000000E+00 0. -1.
         -1   -1    0    0    0  501 -0.00000000000E+00 -0.00000000000E+00 -0.33788155100E+03  0.33788155100E+03  0.00000000000E+00 0.  1.
         24    2    1    2    0    0  0.24318420558E+03  0.23966663086E+03  0.79679566376E+03  0.87043710528E+03  0.78732284837E+02 0.  0.
        254    2    1    2    0    0 -0.24318420558E+03 -0.23966663086E+03  0.51890816559E+03  0.11210298261E+04  0.93320069375E+03 0.  0.
         23    2    4    4    0    0 -0.19606185535E+03 -0.58937257512E+03  0.35741209164E+03  0.72241044042E+03  0.91286131194E+02 0.  0.
         23    2    4    4    0    0 -0.47122350234E+02  0.34970594425E+03  0.16149607396E+03  0.39861938565E+03  0.91113497225E+02 0.  0.
          2    1    3    3  502    0  0.15682127845E+03  0.14941427151E+03  0.59394981586E+03  0.63221350955E+03  0.00000000000E+00 0. -1.
         -1    1    3    3    0  502  0.86362927134E+02  0.90252359350E+02  0.20284584790E+03  0.23822359573E+03  0.00000000000E+00 0.  1.
         13    1    5    5    0    0 -0.16517543591E+03 -0.42688492067E+03  0.22235417180E+03  0.50887625003E+03  0.00000000000E+00 0. -1.
        -13    1    5    5    0    0 -0.30886419437E+02 -0.16248765444E+03  0.13505791984E+03  0.21353419039E+03  0.00000000000E+00 0.  1.
          3    1    6    6  503    0  0.13920844513E+02  0.95914011511E+02  0.78471467072E+02  0.12470388390E+03  0.00000000000E+00 0. -1.
         -3    1    6    6    0  503 -0.61043194747E+02  0.25379193274E+03  0.83024606883E+02  0.27391550175E+03  0.00000000000E+00 0.  1.
<mgrwt>
<rscale>  0 0.14949461E+04</rscale>
<asrwt>0</asrwt>
<pdfrwt beam="1">  1        2 0.25439775E+00 0.14949461E+04</pdfrwt>
<pdfrwt beam="2">  1       -1 0.51981778E-01 0.14949461E+04</pdfrwt>
<totfact> 0.42705959E+01</totfact>
</mgrwt>
</event>
<event>
12    7  0.1637954E-007  0.2199653E+04  0.7818608E-02  0.8518573E-01
          2   -1    0    0  501    0  0.00000000000E+00  0.00000000000E+00  0.37672913740E+04  0.37672913740E+04  0.00000000000E+00 0. -1.
         -1   -1    0    0    0  501 -0.00000000000E+00 -0.00000000000E+00 -0.32108421950E+03  0.32108421950E+03  0.00000000000E+00 0.  1.
         24    2    1    2    0    0 -0.36900643696E+03  0.83705292997E+03  0.13601105175E+04  0.16412036045E+04  0.82615334276E+02 0.  0.
        254    2    1    2    0    0  0.36900643696E+03 -0.83705292997E+03  0.20860966371E+04  0.24471719891E+04  0.89444295896E+03 0.  0.
         23    2    4    4    0    0 -0.18432829185E+03 -0.64827943699E+03  0.12502395227E+04  0.14232171407E+04  0.90581554770E+02 0.  0.
         23    2    4    4    0    0  0.55333472881E+03 -0.18877349298E+03  0.83585711441E+03  0.10239548483E+04  0.89507887737E+02 0.  0.
          2    1    3    3  502    0 -0.20453954470E+01  0.44483051956E+02  0.54254687541E+02  0.70189006788E+02  0.00000000000E+00 0. -1.
         -1    1    3    3    0  502 -0.36696104151E+03  0.79256987802E+03  0.13058558299E+04  0.15710145977E+04  0.00000000000E+00 0.  1.
         13    1    5    5    0    0 -0.18553823545E+03 -0.62751440254E+03  0.12342305693E+04  0.13969695274E+04  0.00000000000E+00 0.  1.
        -13    1    5    5    0    0  0.12099435997E+01 -0.20765034453E+02  0.16008953331E+02  0.26247613341E+02  0.00000000000E+00 0. -1.
          1    1    6    6  503    0  0.20813839099E+01 -0.12028392829E+02  0.12637811701E+02  0.17570676641E+02  0.00000000000E+00 0. -1.
         -1    1    6    6    0  503  0.55125334490E+03 -0.17674510015E+03  0.82321930271E+03  0.10063841717E+04  0.00000000000E+00 0.  1.
<mgrwt>
<rscale>  0 0.21996525E+04</rscale>
<asrwt>0</asrwt>
<pdfrwt beam="1">  1        2 0.57958326E+00 0.21996525E+04</pdfrwt>
<pdfrwt beam="2">  1       -1 0.49397575E-01 0.21996525E+04</pdfrwt>
<totfact> 0.22331726E+00</totfact>
</mgrwt>
</event>
<event>
12    7  0.1637954E-007  0.1453551E+04  0.7818608E-02  0.8915942E-01
         -1   -1    0    0    0  501 -0.00000000000E+00  0.00000000000E+00  0.36085967324E+03  0.36085967324E+03  0.00000000000E+00 0.  1.
          2   -1    0    0  501    0  0.00000000000E+00 -0.00000000000E+00 -0.14637343321E+04  0.14637343321E+04  0.00000000000E+00 0. -1.
         24    2    1    2    0    0 -0.18194842087E+03 -0.37107136417E+03 -0.14745371523E+03  0.44610152175E+03  0.80403883034E+02 0.  0.
        254    2    1    2    0    0  0.18194842087E+03  0.37107136417E+03 -0.95542094364E+03  0.13784924836E+04  0.90366651075E+03 0.  0.
         23    2    4    4    0    0 -0.29714764995E+03  0.39498873018E+03 -0.52012478811E+03  0.72385313694E+03  0.95502595877E+02 0.  0.
         23    2    4    4    0    0  0.47909607082E+03 -0.23917366005E+02 -0.43529615553E+03  0.65463934667E+03  0.94682869147E+02 0.  0.
          2    1    3    3  502    0 -0.18583740475E+03 -0.36738869347E+03 -0.15219776955E+03  0.43894664157E+03  0.00000000000E+00 0. -1.
         -1    1    3    3    0  502  0.38889838767E+01 -0.36826707041E+01  0.47440543107E+01  0.71548801814E+01  0.00000000000E+00 0.  1.
         13    1    5    5    0    0 -0.20198668231E+03  0.20879193992E+03 -0.25791937707E+03  0.38847792611E+03  0.00000000000E+00 0. -1.
        -13    1    5    5    0    0 -0.95160967643E+02  0.18619679026E+03 -0.26220541104E+03  0.33537521083E+03  0.00000000000E+00 0.  1.
          2    1    6    6  503    0  0.29296704440E+03  0.28084840115E+02 -0.28655385178E+03  0.41076946980E+03  0.00000000000E+00 0. -1.
         -2    1    6    6    0  503  0.18612902642E+03 -0.52002206120E+02 -0.14874230375E+03  0.24386987687E+03  0.00000000000E+00 0.  1.
<mgrwt>
<rscale>  0 0.14535511E+04</rscale>
<asrwt>0</asrwt>
<pdfrwt beam="1">  1        2 0.22518990E+00 0.14535511E+04</pdfrwt>
<pdfrwt beam="2">  1       -1 0.55516873E-01 0.14535511E+04</pdfrwt>
<totfact> 0.48237379E+01</totfact>
</mgrwt>
</event>
<event>
12    7  0.1637954E-007  0.1459175E+04  0.7818608E-02  0.8912064E-01
          2   -1    0    0  501    0  0.00000000000E+00  0.00000000000E+00  0.81173699440E+03  0.81173699440E+03  0.00000000000E+00 0. -1.
         -1   -1    0    0    0  501 -0.00000000000E+00 -0.00000000000E+00 -0.65575189356E+03  0.65575189356E+03  0.00000000000E+00 0.  1.
         24    2    1    2    0    0  0.11083162859E+02  0.20207116682E+03 -0.35414442402E+03  0.41573761459E+03  0.80398371685E+02 0.  0.
        254    2    1    2    0    0 -0.11083162859E+02 -0.20207116682E+03  0.51012952485E+03  0.10517512734E+04  0.89721403018E+03 0.  0.
         23    2    4    4    0    0  0.39288236574E+03 -0.26243817774E+03  0.16475809784E+03  0.50870750171E+03  0.91693735075E+02 0.  0.
         23    2    4    4    0    0 -0.40396552860E+03  0.60367010925E+02  0.34537142701E+03  0.54304377165E+03  0.93716546192E+02 0.  0.
          4    1    3    3  502    0 -0.19689228102E+02  0.42861556966E+02 -0.13585023784E+03  0.14380565319E+03  0.00000000000E+00 0. -1.
         -3    1    3    3    0  502  0.30772390962E+02  0.15920960985E+03 -0.21829418618E+03  0.27193196141E+03  0.00000000000E+00 0.  1.
         13    1    5    5    0    0  0.19814245745E+03 -0.16352593601E+03  0.49104363311E+02  0.26155764888E+03  0.00000000000E+00 0. -1.
        -13    1    5    5    0    0  0.19473990829E+03 -0.98912241727E+02  0.11565373452E+03  0.24714985283E+03  0.00000000000E+00 0.  1.
          4    1    6    6  503    0 -0.27443203192E+03  0.40057649818E+02  0.28830718036E+03  0.40004822921E+03  0.00000000000E+00 0. -1.
         -4    1    6    6    0  503 -0.12953349668E+03  0.20309361107E+02  0.57064246656E+02  0.14299554244E+03  0.00000000000E+00 0.  1.
<mgrwt>
<rscale>  0 0.14591752E+04</rscale>
<asrwt>0</asrwt>
<pdfrwt beam="1">  1        2 0.12488261E+00 0.14591752E+04</pdfrwt>
<pdfrwt beam="2">  1       -1 0.10088491E+00 0.14591752E+04</pdfrwt>
<totfact> 0.34923613E+01</totfact>
</mgrwt>
</event>
<event>
12    7  0.1637954E-007  0.1863502E+04  0.7818608E-02  0.8673240E-01
          2   -1    0    0  501    0  0.00000000000E+00  0.00000000000E+00  0.17032544739E+04  0.17032544739E+04  0.00000000000E+00 0. -1.
         -1   -1    0    0    0  501 -0.00000000000E+00 -0.00000000000E+00 -0.50970647116E+03  0.50970647116E+03  0.00000000000E+00 0.  1.
         24    2    1    2    0    0 -0.32855014743E+03  0.16541609542E+03 -0.26587032873E+03  0.45877347834E+03  0.66920764604E+02 0.  0.
        254    2    1    2    0    0  0.32855014743E+03 -0.16541609542E+03  0.14594183315E+04  0.17541874668E+04  0.90109051609E+03 0.  0.
         23    2    4    4    0    0  0.54810658467E+03 -0.36152646770E+03  0.98904189750E+03  0.11906666521E+04  0.91438429230E+02 0.  0.
         23    2    4    4    0    0 -0.21955643725E+03  0.19611037228E+03  0.47037643400E+03  0.56352081468E+03  0.98170319644E+02 0.  0.
          4    1    3    3  502    0 -0.79601871215E+02  0.72020726009E+02 -0.64495485232E+02  0.12523222625E+03  0.00000000000E+00 0. -1.
         -3    1    3    3    0  502 -0.24894827621E+03  0.93395369413E+02 -0.20137484350E+03  0.33354125210E+03  0.00000000000E+00 0.  1.
         13    1    5    5    0    0  0.27874067004E+03 -0.23695551751E+03  0.52785540727E+03  0.64224264060E+03  0.00000000000E+00 0. -1.
        -13    1    5    5    0    0  0.26936591463E+03 -0.12457095019E+03  0.46118649023E+03  0.54842401148E+03  0.00000000000E+00 0.  1.
          1    1    6    6  503    0 -0.79652413056E+02  0.10761401139E+03  0.28565878427E+03  0.31547777003E+03  0.00000000000E+00 0. -1.
         -1    1    6    6    0  503 -0.13990402419E+03  0.88496360886E+02  0.18471764973E+03  0.24804304465E+03  0.00000000000E+00 0.  1.
<mgrwt>
<rscale>  0 0.18635019E+04</rscale>
<asrwt>0</asrwt>
<pdfrwt beam="1">  1        2 0.26203915E+00 0.18635019E+04</pdfrwt>
<pdfrwt beam="2">  1       -1 0.78416381E-01 0.18635019E+04</pdfrwt>
<totfact> 0.17006326E+01</totfact>
</mgrwt>
</event>
<event>
12    7  0.1637954E-007  0.1506521E+04  0.7818608E-02  0.8880128E-01
          2   -1    0    0  501    0  0.00000000000E+00  0.00000000000E+00  0.32180370868E+04  0.32180370868E+04  0.00000000000E+00 0. -1.
         -1   -1    0    0    0  501 -0.00000000000E+00 -0.00000000000E+00 -0.17631912846E+03  0.17631912846E+03  0.00000000000E+00 0.  1.
         24    2    1    2    0    0 -0.22499274818E+03  0.27483160415E+03  0.19912781578E+03  0.41483541848E+03  0.79261529362E+02 0.  0.
        254    2    1    2    0    0  0.22499274818E+03 -0.27483160415E+03  0.28425901425E+04  0.29795207967E+04  0.81918942406E+03 0.  0.
         23    2    4    4    0    0  0.26322470737E+03 -0.18002454131E+03  0.34597096622E+03  0.47922814182E+03  0.90926455998E+02 0.  0.
         23    2    4    4    0    0 -0.38231959191E+02 -0.94807062841E+02  0.24966191763E+04  0.25002926549E+04  0.88915616963E+02 0.  0.
          4    1    3    3  502    0  0.13842439040E+01  0.31126742997E+02  0.13929575881E+02  0.34129508420E+02  0.00000000000E+00 0. -1.
         -3    1    3    3    0  502 -0.22637699208E+03  0.24370486115E+03  0.18519823990E+03  0.38070591006E+03  0.00000000000E+00 0.  1.
         13    1    5    5    0    0  0.26866520722E+03 -0.16464450979E+03  0.33230092173E+03  0.45794400396E+03  0.00000000000E+00 0. -1.
        -13    1    5    5    0    0 -0.54404998546E+01 -0.15380031518E+02  0.13670044486E+02  0.21284137860E+02  0.00000000000E+00 0.  1.
          3    1    6    6  503    0 -0.12692943318E+02 -0.78109368033E+01  0.13539526337E+04  0.13540346583E+04  0.00000000000E+00 0. -1.
         -3    1    6    6    0  503 -0.25539015872E+02 -0.86996126038E+02  0.11426665426E+04  0.11462579966E+04  0.00000000000E+00 0.  1.
<mgrwt>
<rscale>  0 0.15065212E+04</rscale>
<asrwt>0</asrwt>
<pdfrwt beam="1">  1        2 0.49508259E+00 0.15065212E+04</pdfrwt>
<pdfrwt beam="2">  1       -1 0.27126022E-01 0.15065212E+04</pdfrwt>
<totfact> 0.17052545E+01</totfact>
</mgrwt>
</event>
<event>
12    7  0.1637954E-007  0.1537802E+04  0.7818608E-02  0.8859697E-01
         -1   -1    0    0    0  501 -0.00000000000E+00  0.00000000000E+00  0.81671553867E+03  0.81671553867E+03  0.00000000000E+00 0.  1.
          2   -1    0    0  501    0  0.00000000000E+00 -0.00000000000E+00 -0.72388532706E+03  0.72388532706E+03  0.00000000000E+00 0. -1.
         24    2    1    2    0    0  0.20506635852E+03 -0.19860900557E+03  0.44085026933E+03  0.53042421687E+03  0.74183161003E+02 0.  0.
        254    2    1    2    0    0 -0.20506635852E+03  0.19860900557E+03 -0.34802005772E+03  0.10101766489E+04  0.90434570428E+03 0.  0.
         23    2    4    4    0    0  0.27805009265E+03  0.27633764331E+03 -0.31573368190E+03  0.51163067550E+03  0.91672477297E+02 0.  0.
         23    2    4    4    0    0 -0.48311645117E+03 -0.77728637734E+02 -0.32286375819E+02  0.49854597337E+03  0.89791040665E+02 0.  0.
          2    1    3    3  502    0  0.63916782790E+02 -0.70715286705E+02  0.21361944388E+03  0.23392151183E+03  0.00000000000E+00 0. -1.
         -1    1    3    3    0  502  0.14114957573E+03 -0.12789371887E+03  0.22723082546E+03  0.29650270503E+03  0.00000000000E+00 0.  1.
         13    1    5    5    0    0  0.21819393540E+03  0.17538108218E+03 -0.18299807760E+03  0.33444792396E+03  0.00000000000E+00 0.  1.
        -13    1    5    5    0    0  0.59856157245E+02  0.10095656113E+03 -0.13273560430E+03  0.17718275154E+03  0.00000000000E+00 0. -1.
          2    1    6    6  503    0 -0.47879851478E+03 -0.83682107622E+02 -0.40232738015E+02  0.48771855214E+03  0.00000000000E+00 0.  1.
         -2    1    6    6    0  503 -0.43179363916E+01  0.59534698886E+01  0.79463621956E+01  0.10827421232E+02  0.00000000000E+00 0. -1.
<mgrwt>
<rscale>  0 0.15378015E+04</rscale>
<asrwt>0</asrwt>
<pdfrwt beam="1">  1        2 0.11136697E+00 0.15378015E+04</pdfrwt>
<pdfrwt beam="2">  1       -1 0.12564854E+00 0.15378015E+04</pdfrwt>
<totfact> 0.23868160E+01</totfact>
</mgrwt>
</event>
<event>
12    7  0.1637954E-007  0.1844105E+04  0.7818608E-02  0.8683190E-01
         -1   -1    0    0    0  501 -0.00000000000E+00  0.00000000000E+00  0.21967755954E+04  0.21967755954E+04  0.00000000000E+00 0.  1.
          2   -1    0    0  501    0  0.00000000000E+00 -0.00000000000E+00 -0.38701314597E+03  0.38701314597E+03  0.00000000000E+00 0. -1.
         24    2    1    2    0    0 -0.33413249343E+03 -0.38476930746E+03  0.13702692936E+04  0.14639429462E+04  0.76151622046E+02 0.  0.
        254    2    1    2    0    0  0.33413249343E+03  0.38476930746E+03  0.43949315582E+03  0.11198457952E+04  0.89510246779E+03 0.  0.
         23    2    4    4    0    0  0.62003654624E+03  0.14063275894E+03  0.29846007710E+03  0.70818912220E+03  0.90722233377E+02 0.  0.
         23    2    4    4    0    0 -0.28590405280E+03  0.24413654851E+03  0.14103307873E+03  0.41165667298E+03  0.90703392373E+02 0.  0.
          4    1    3    3  502    0 -0.28862312943E+01 -0.24366070606E+02  0.46662646302E+02  0.52720378297E+02  0.00000000000E+00 0. -1.
         -3    1    3    3    0  502 -0.33124626214E+03 -0.36040323685E+03  0.13236066473E+04  0.14112225679E+04  0.00000000000E+00 0.  1.
         13    1    5    5    0    0  0.22943625280E+03  0.82902524621E+02  0.78845344941E+02  0.25637942801E+03  0.00000000000E+00 0.  1.
        -13    1    5    5    0    0  0.39060029343E+03  0.57730234323E+02  0.21961473216E+03  0.45180969419E+03  0.00000000000E+00 0. -1.
          1    1    6    6  503    0 -0.22822498078E+03  0.20852367816E+03  0.14940870859E+03  0.34335364918E+03  0.00000000000E+00 0. -1.
         -1    1    6    6    0  503 -0.57679072024E+02  0.35612870356E+02 -0.83756298683E+01  0.68303023800E+02  0.00000000000E+00 0.  1.
<mgrwt>
<rscale>  0 0.18441052E+04</rscale>
<asrwt>0</asrwt>
<pdfrwt beam="1">  1        2 0.59540485E-01 0.18441052E+04</pdfrwt>
<pdfrwt beam="2">  1       -1 0.33796547E+00 0.18441052E+04</pdfrwt>
<totfact> 0.16599622E+00</totfact>
</mgrwt>
</event>
<event>
12    7  0.1637954E-007  0.2282296E+04  0.7818608E-02  0.8484934E-01
         -1   -1    0    0    0  501 -0.00000000000E+00  0.00000000000E+00  0.84901444859E+03  0.84901444859E+03  0.00000000000E+00 0.  1.
          2   -1    0    0  501    0  0.00000000000E+00 -0.00000000000E+00 -0.15338009949E+04  0.15338009949E+04  0.00000000000E+00 0. -1.
         24    2    1    2    0    0  0.87233084163E+02  0.34341480647E+03  0.64344673516E+03  0.73898896459E+03  0.80855726638E+02 0.  0.
        254    2    1    2    0    0 -0.87233084163E+02 -0.34341480647E+03 -0.13282332815E+04  0.16438264789E+04  0.90134261101E+03 0.  0.
         23    2    4    4    0    0 -0.42769768581E+03  0.49984718188E+02 -0.55639032361E+03  0.70866316482E+03  0.84908812640E+02 0.  0.
         23    2    4    4    0    0  0.34046460165E+03 -0.39339952465E+03 -0.77184295786E+03  0.93516331407E+03  0.90052992228E+02 0.  0.
          4    1    3    3  502    0  0.39743218991E+02  0.42131534722E+02  0.11761462972E+03  0.13110221508E+03  0.00000000000E+00 0. -1.
         -3    1    3    3    0  502  0.47489865172E+02  0.30128327174E+03  0.52583210544E+03  0.60788674951E+03  0.00000000000E+00 0.  1.
         13    1    5    5    0    0 -0.36894794072E+03  0.35445899805E+02 -0.42444968507E+03  0.56350379762E+03  0.00000000000E+00 0.  1.
        -13    1    5    5    0    0 -0.58749745098E+02  0.14538818383E+02 -0.13194063854E+03  0.14515936720E+03  0.00000000000E+00 0. -1.
          1    1    6    6  503    0  0.13176407157E+03 -0.21152011560E+03 -0.32551824232E+03  0.40995689523E+03  0.00000000000E+00 0. -1.
         -1    1    6    6    0  503  0.20870053008E+03 -0.18187940906E+03 -0.44632471554E+03  0.52520641884E+03  0.00000000000E+00 0.  1.
<mgrwt>
<rscale>  0 0.22822964E+04</rscale>
<asrwt>0</asrwt>
<pdfrwt beam="1">  1        2 0.23596938E+00 0.22822964E+04</pdfrwt>
<pdfrwt beam="2">  1       -1 0.13061761E+00 0.22822964E+04</pdfrwt>
<totfact> 0.62958839E+00</totfact>
</mgrwt>
</event>
<event>
12    7  0.1637954E-007  0.2021662E+04  0.7818608E-02  0.8596559E-01
         -1   -1    0    0    0  501 -0.00000000000E+00  0.00000000000E+00  0.35869025042E+03  0.35869025042E+03  0.00000000000E+00 0.  1.
          2   -1    0    0  501    0  0.00000000000E+00 -0.00000000000E+00 -0.28486395121E+04  0.28486395121E+04  0.00000000000E+00 0. -1.
         24    2    1    2    0    0 -0.59143434259E+03 -0.53388756328E+03 -0.83856701432E+03  0.11594629093E+04  0.79555569653E+02 0.  0.
        254    2    1    2    0    0  0.59143434259E+03  0.53388756328E+03 -0.16513822473E+04  0.20478668532E+04  0.91206623108E+03 0.  0.
         23    2    4    4    0    0  0.40077080241E+03  0.22376457579E+03 -0.13807811424E+03  0.48852674221E+03  0.94366258717E+02 0.  0.
         23    2    4    4    0    0  0.19066354018E+03  0.31012298749E+03 -0.15133041331E+04  0.15593401110E+04  0.94463377179E+02 0.  0.
          4    1    3    3  502    0 -0.52689800921E+03 -0.46635342054E+03 -0.77326657270E+03  0.10454894631E+04  0.00000000000E+00 0. -1.
         -3    1    3    3    0  502 -0.64536333382E+02 -0.67534142742E+02 -0.65300441620E+02  0.11397344620E+03  0.00000000000E+00 0.  1.
         13    1    5    5    0    0  0.30533519304E+03  0.21360003810E+03 -0.10981036866E+03  0.38847506155E+03  0.00000000000E+00 0.  1.
        -13    1    5    5    0    0  0.95435609373E+02  0.10164537686E+02 -0.28267745590E+02  0.10005168066E+03  0.00000000000E+00 0. -1.
          2    1    6    6  503    0  0.10013020002E+02  0.34943324467E+02 -0.68895488396E+02  0.77896629039E+02  0.00000000000E+00 0. -1.
         -2    1    6    6    0  503  0.18065052018E+03  0.27517966302E+03 -0.14444086447E+04  0.14814434820E+04  0.00000000000E+00 0.  1.
<mgrwt>
<rscale>  0 0.20216619E+04</rscale>
<asrwt>0</asrwt>
<pdfrwt beam="1">  1        2 0.43825223E+00 0.20216619E+04</pdfrwt>
<pdfrwt beam="2">  1       -1 0.55183116E-01 0.20216619E+04</pdfrwt>
<totfact> 0.75816878E+00</totfact>
</mgrwt>
</event>
<event>
12    7  0.1637954E-007  0.1620096E+04  0.7818608E-02  0.8808296E-01
         -1   -1    0    0    0  501 -0.00000000000E+00  0.00000000000E+00  0.57074105756E+03  0.57074105756E+03  0.00000000000E+00 0.  1.
          2   -1    0    0  501    0  0.00000000000E+00 -0.00000000000E+00 -0.11496949109E+04  0.11496949109E+04  0.00000000000E+00 0. -1.
         24    2    1    2    0    0  0.39401876231E+03  0.10923749660E+03 -0.63819198710E+03  0.76206453341E+03  0.79181594846E+02 0.  0.
        254    2    1    2    0    0 -0.39401876231E+03 -0.10923749660E+03  0.59238133750E+02  0.95837143506E+03  0.86474449136E+03 0.  0.
         23    2    4    4    0    0 -0.11007441754E+03  0.19498156217E+03 -0.31069801713E+03  0.39377071455E+03  0.91585647375E+02 0.  0.
         23    2    4    4    0    0 -0.28394434477E+03 -0.30421905877E+03  0.36993615088E+03  0.56460072052E+03  0.93528558390E+02 0.  0.
          4    1    3    3  502    0  0.22408732037E+03  0.70025142193E+02 -0.43485365130E+03  0.49418250246E+03  0.00000000000E+00 0. -1.
         -3    1    3    3    0  502  0.16993144194E+03  0.39212354407E+02 -0.20333833580E+03  0.26788203095E+03  0.00000000000E+00 0.  1.
         13    1    5    5    0    0 -0.31361317727E+02  0.46210322897E+01 -0.19982305812E+02  0.37472372951E+02  0.00000000000E+00 0.  1.
        -13    1    5    5    0    0 -0.78713099809E+02  0.19036052988E+03 -0.29071571132E+03  0.35629834160E+03  0.00000000000E+00 0. -1.
          3    1    6    6  503    0 -0.14390915590E+03 -0.12876853166E+03  0.22895455124E+03  0.29951855774E+03  0.00000000000E+00 0. -1.
         -3    1    6    6    0  503 -0.14003518887E+03 -0.17545052711E+03  0.14098159964E+03  0.26508216278E+03  0.00000000000E+00 0.  1.
<mgrwt>
<rscale>  0 0.16200964E+04</rscale>
<asrwt>0</asrwt>
<pdfrwt beam="1">  1        2 0.17687614E+00 0.16200964E+04</pdfrwt>
<pdfrwt beam="2">  1       -1 0.87806316E-01 0.16200964E+04</pdfrwt>
<totfact> 0.28289735E+01</totfact>
</mgrwt>
</event>
<event>
12    7  0.1637954E-007  0.3098505E+04  0.7818608E-02  0.8216148E-01
         -1   -1    0    0    0  501 -0.00000000000E+00  0.00000000000E+00  0.89222659415E+03  0.89222659415E+03  0.00000000000E+00 0.  1.
          2   -1    0    0  501    0  0.00000000000E+00 -0.00000000000E+00 -0.26901047949E+04  0.26901047949E+04  0.00000000000E+00 0. -1.
         24    2    1    2    0    0  0.69476933171E+03 -0.10700818389E+04 -0.11051484872E+03  0.12831091097E+04  0.79849166837E+02 0.  0.
        254    2    1    2    0    0 -0.69476933171E+03  0.10700818389E+04 -0.16873633520E+04  0.22992222793E+04  0.90080433041E+03 0.  0.
         23    2    4    4    0    0 -0.74049103193E+03  0.68975771773E+03 -0.69474954855E+03  0.12309655790E+04  0.92231468767E+02 0.  0.
         23    2    4    4    0    0  0.45721700222E+02  0.38032412118E+03 -0.99261380347E+03  0.10682567003E+04  0.95672900972E+02 0.  0.
          2    1    3    3  502    0  0.32036407665E+03 -0.46457674679E+03 -0.85437860510E+02  0.57075767474E+03  0.00000000000E+00 0. -1.
         -1    1    3    3    0  502  0.37440525506E+03 -0.60550509212E+03 -0.25076988205E+02  0.71235143499E+03  0.00000000000E+00 0.  1.
         13    1    5    5    0    0 -0.64431958337E+03  0.63833853499E+03 -0.62616823741E+03  0.11021390440E+04  0.00000000000E+00 0. -1.
        -13    1    5    5    0    0 -0.96171448558E+02  0.51419182743E+02 -0.68581311137E+02  0.12882653496E+03  0.00000000000E+00 0.  1.
          1    1    6    6  503    0  0.62070155565E+02  0.30433646495E+03 -0.86216625192E+03  0.91640822457E+03  0.00000000000E+00 0. -1.
         -1    1    6    6    0  503 -0.16348455342E+02  0.75987656223E+02 -0.13044755155E+03  0.15184847577E+03  0.00000000000E+00 0.  1.
<mgrwt>
<rscale>  0 0.30985048E+04</rscale>
<asrwt>0</asrwt>
<pdfrwt beam="1">  1        2 0.41386226E+00 0.30985048E+04</pdfrwt>
<pdfrwt beam="2">  1       -1 0.13726563E+00 0.30985048E+04</pdfrwt>
<totfact> 0.11456819E+00</totfact>
</mgrwt>
</event>
<event>
12    7  0.1637954E-007  0.1745378E+04  0.7818608E-02  0.8735898E-01
          2   -1    0    0  501    0  0.00000000000E+00  0.00000000000E+00  0.78428156159E+03  0.78428156159E+03  0.00000000000E+00 0. -1.
         -1   -1    0    0    0  501 -0.00000000000E+00 -0.00000000000E+00 -0.97106245007E+03  0.97106245007E+03  0.00000000000E+00 0.  1.
         24    2    1    2    0    0 -0.34602250408E+03  0.36660916808E+03 -0.37490517808E+03  0.63313101635E+03  0.78531114003E+02 0.  0.
        254    2    1    2    0    0  0.34602250408E+03 -0.36660916808E+03  0.18812428959E+03  0.11222129953E+04  0.98480323064E+03 0.  0.
         23    2    4    4    0    0 -0.13085375111E+02 -0.25244916968E+03  0.53697753943E+03  0.60059959986E+03  0.92049938537E+02 0.  0.
         23    2    4    4    0    0  0.35910787919E+03 -0.11415999839E+03 -0.34885324984E+03  0.52161339545E+03  0.91602239399E+02 0.  0.
          2    1    3    3  502    0 -0.17098866395E+03  0.17262278542E+03 -0.22895352146E+03  0.33384946343E+03  0.00000000000E+00 0. -1.
         -1    1    3    3    0  502 -0.17503384012E+03  0.19398638266E+03 -0.14595165662E+03  0.29928155292E+03  0.00000000000E+00 0.  1.
         13    1    5    5    0    0 -0.25190870068E+02 -0.11378199257E+02  0.53620121301E+02  0.60325456993E+02  0.00000000000E+00 0. -1.
        -13    1    5    5    0    0  0.12105494958E+02 -0.24107097042E+03  0.48335741813E+03  0.54027414287E+03  0.00000000000E+00 0.  1.
          2    1    6    6  503    0  0.28355156852E+02 -0.30000205798E+02 -0.14277753703E+02  0.43679303094E+02  0.00000000000E+00 0. -1.
         -2    1    6    6    0  503  0.33075272233E+03 -0.84159792595E+02 -0.33457549614E+03  0.47793409236E+03  0.00000000000E+00 0.  1.
<mgrwt>
<rscale>  0 0.17453783E+04</rscale>
<asrwt>0</asrwt>
<pdfrwt beam="1">  1        2 0.12065870E+00 0.17453783E+04</pdfrwt>
<pdfrwt beam="2">  1       -1 0.14939422E+00 0.17453783E+04</pdfrwt>
<totfact> 0.13503865E+01</totfact>
</mgrwt>
</event>
<event>
12    7  0.1637954E-007  0.1504625E+04  0.7818608E-02  0.8881383E-01
          2   -1    0    0  501    0  0.00000000000E+00  0.00000000000E+00  0.52796004931E+03  0.52796004931E+03  0.00000000000E+00 0. -1.
         -1   -1    0    0    0  501 -0.00000000000E+00 -0.00000000000E+00 -0.10720015418E+04  0.10720015418E+04  0.00000000000E+00 0.  1.
         24    2    1    2    0    0 -0.39306252830E+03  0.73546073537E+02  0.10232144976E+03  0.42259185102E+03  0.90592590119E+02 0.  0.
        254    2    1    2    0    0  0.39306252830E+03 -0.73546073537E+02 -0.64636294221E+03  0.11773697400E+04  0.89917032626E+03 0.  0.
         23    2    4    4    0    0  0.12460370914E+03 -0.45942176881E+03 -0.20283246808E+03  0.52453411936E+03  0.86026660255E+02 0.  0.
         23    2    4    4    0    0  0.26845881917E+03  0.38587569528E+03 -0.44353047414E+03  0.65283562069E+03  0.92221886570E+02 0.  0.
          4    1    3    3  502    0 -0.39118282374E+03  0.59327474623E+02  0.97992049975E+02  0.40761034420E+03  0.00000000000E+00 0. -1.
         -3    1    3    3    0  502 -0.18797045554E+01  0.14218598915E+02  0.43293997856E+01  0.14981506827E+02  0.00000000000E+00 0.  1.
         13    1    5    5    0    0  0.54982653577E+02 -0.32061690836E+03 -0.10886747332E+03  0.34303122433E+03  0.00000000000E+00 0.  1.
        -13    1    5    5    0    0  0.69621055558E+02 -0.13880486045E+03 -0.93964994759E+02  0.18150289503E+03  0.00000000000E+00 0. -1.
          1    1    6    6  503    0  0.85970416613E+02  0.18119020820E+03 -0.14503717938E+03  0.24750068178E+03  0.00000000000E+00 0. -1.
         -1    1    6    6    0  503  0.18248840255E+03  0.20468548708E+03 -0.29849329476E+03  0.40533493891E+03  0.00000000000E+00 0.  1.
<mgrwt>
<rscale>  0 0.15046249E+04</rscale>
<asrwt>0</asrwt>
<pdfrwt beam="1">  1        2 0.81224623E-01 0.15046249E+04</pdfrwt>
<pdfrwt beam="2">  1       -1 0.16492331E+00 0.15046249E+04</pdfrwt>
<totfact> 0.17116897E+01</totfact>
</mgrwt>
</event>
<event>
12    7  0.1637954E-007  0.2843450E+04  0.7818608E-02  0.8289904E-01
          2   -1    0    0  501    0  0.00000000000E+00  0.00000000000E+00  0.17913259519E+04  0.17913259519E+04  0.00000000000E+00 0. -1.
         -1   -1    0    0    0  501 -0.00000000000E+00 -0.00000000000E+00 -0.11283829651E+04  0.11283829651E+04  0.00000000000E+00 0.  1.
         24    2    1    2    0    0 -0.36451087138E+03 -0.51758358616E+01  0.15551957535E+04  0.15993640862E+04  0.80228946127E+02 0.  0.
        254    2    1    2    0    0  0.36451087138E+03  0.51758358616E+01 -0.89225276678E+03  0.13203448308E+04  0.90238600819E+03 0.  0.
         23    2    4    4    0    0 -0.16120351841E+03  0.17707465753E+03 -0.66766404093E+03  0.71525131161E+03  0.92017164249E+02 0.  0.
         23    2    4    4    0    0  0.52571438979E+03 -0.17189882167E+03 -0.22458872585E+03  0.60509351920E+03  0.98859732305E+02 0.  0.
          4    1    3    3  502    0 -0.19379433020E+03  0.22472961030E+02  0.95635389771E+03  0.97605023132E+03  0.00000000000E+00 0. -1.
         -3    1    3    3    0  502 -0.17071654119E+03 -0.27648796891E+02  0.59884185580E+03  0.62331385486E+03  0.00000000000E+00 0.  1.
         13    1    5    5    0    0 -0.17313983767E+03  0.16739381892E+03 -0.61810776919E+03  0.66336664699E+03  0.00000000000E+00 0. -1.
        -13    1    5    5    0    0  0.11936319265E+02  0.96808386079E+01 -0.49556271742E+02  0.51884664620E+02  0.00000000000E+00 0.  1.
          4    1    6    6  503    0  0.50328317125E+03 -0.14223140933E+03 -0.22084926517E+03  0.56771306325E+03  0.00000000000E+00 0. -1.
         -4    1    6    6    0  503  0.22431218539E+02 -0.29667412344E+02 -0.37394606816E+01  0.37380455944E+02  0.00000000000E+00 0.  1.
<mgrwt>
<rscale>  0 0.28434498E+04</rscale>
<asrwt>0</asrwt>
<pdfrwt beam="1">  1        2 0.27558861E+00 0.28434498E+04</pdfrwt>
<pdfrwt beam="2">  1       -1 0.17359738E+00 0.28434498E+04</pdfrwt>
<totfact> 0.19939150E+00</totfact>
</mgrwt>
</event>
<event>
12    7  0.1637954E-007  0.2437300E+04  0.7818608E-02  0.8425670E-01
         -1   -1    0    0    0  501 -0.00000000000E+00  0.00000000000E+00  0.58904401708E+03  0.58904401708E+03  0.00000000000E+00 0.  1.
          2   -1    0    0  501    0  0.00000000000E+00 -0.00000000000E+00 -0.25212172411E+04  0.25212172411E+04  0.00000000000E+00 0. -1.
         24    2    1    2    0    0 -0.88358095347E+03  0.53136790668E+03 -0.10976347702E+04  0.15081057960E+04  0.80708423480E+02 0.  0.
        254    2    1    2    0    0  0.88358095347E+03 -0.53136790668E+03 -0.83453845377E+03  0.16021554621E+04  0.89854356624E+03 0.  0.
         23    2    4    4    0    0  0.65917181024E+03 -0.36532761437E+03 -0.10071178174E+04  0.12611140768E+04  0.90281090608E+02 0.  0.
         23    2    4    4    0    0  0.22440914323E+03 -0.16604029231E+03  0.17257936365E+03  0.34104138532E+03  0.92718647038E+02 0.  0.
          4    1    3    3  502    0 -0.80294105370E+03  0.47495575382E+03 -0.95710386348E+03  0.13365422213E+04  0.00000000000E+00 0. -1.
         -3    1    3    3    0  502 -0.80639899768E+02  0.56412152861E+02 -0.14053090677E+03  0.17156357475E+03  0.00000000000E+00 0.  1.
         13    1    5    5    0    0  0.42456518774E+03 -0.25156024703E+03 -0.72436063661E+03  0.87649100874E+03  0.00000000000E+00 0. -1.
        -13    1    5    5    0    0  0.23460662250E+03 -0.11376736734E+03 -0.28275718081E+03  0.38462306807E+03  0.00000000000E+00 0.  1.
          3    1    6    6  503    0  0.19713815653E+03 -0.16389508012E+03  0.12284749094E+03  0.28428252862E+03  0.00000000000E+00 0. -1.
         -3    1    6    6    0  503  0.27270986696E+02 -0.21452121931E+01  0.49731872712E+02  0.56758856703E+02  0.00000000000E+00 0.  1.
<mgrwt>
<rscale>  0 0.24373001E+04</rscale>
<asrwt>0</asrwt>
<pdfrwt beam="1">  1        2 0.38787957E+00 0.24373001E+04</pdfrwt>
<pdfrwt beam="2">  1       -1 0.90622158E-01 0.24373001E+04</pdfrwt>
<totfact> 0.41044227E+00</totfact>
</mgrwt>
</event>
<event>
12    7  0.1637954E-007  0.2450366E+04  0.7818608E-02  0.8420884E-01
         -1   -1    0    0    0  501 -0.00000000000E+00  0.00000000000E+00  0.90091129670E+03  0.90091129670E+03  0.00000000000E+00 0.  1.
          2   -1    0    0  501    0  0.00000000000E+00 -0.00000000000E+00 -0.16661721829E+04  0.16661721829E+04  0.00000000000E+00 0. -1.
         24    2    1    2    0    0 -0.61364665731E+03  0.17778421916E+03  0.55097495732E+03  0.84714329607E+03  0.76869446994E+02 0.  0.
        254    2    1    2    0    0  0.61364665731E+03 -0.17778421916E+03 -0.13162358436E+04  0.17199401836E+04  0.90418360446E+03 0.  0.
         23    2    4    4    0    0  0.40936912716E+03  0.34050192442E+03 -0.58733422226E+03  0.79799632132E+03  0.91170156250E+02 0.  0.
         23    2    4    4    0    0  0.20427753015E+03 -0.51828614358E+03 -0.72890162130E+03  0.92194386225E+03  0.91285681571E+02 0.  0.
          4    1    3    3  502    0 -0.25854549581E+03  0.11192502915E+03  0.22336527014E+03  0.35953446213E+03  0.00000000000E+00 0. -1.
         -3    1    3    3    0  502 -0.35510116150E+03  0.65859190007E+02  0.32760968718E+03  0.48760883395E+03  0.00000000000E+00 0.  1.
         13    1    5    5    0    0  0.75203049267E+02  0.86678413267E+02 -0.81461835082E+02  0.14072908911E+03  0.00000000000E+00 0.  1.
        -13    1    5    5    0    0  0.33416607789E+03  0.25382351116E+03 -0.50587238718E+03  0.65726723221E+03  0.00000000000E+00 0. -1.
          4    1    6    6  503    0  0.16897376956E+03 -0.34411331664E+03 -0.54375150144E+03  0.66530579797E+03  0.00000000000E+00 0. -1.
         -4    1    6    6    0  503  0.35303760588E+02 -0.17417282694E+03 -0.18515011985E+03  0.25663806428E+03  0.00000000000E+00 0.  1.
<mgrwt>
<rscale>  0 0.24503660E+04</rscale>
<asrwt>0</asrwt>
<pdfrwt beam="1">  1        2 0.25633418E+00 0.24503660E+04</pdfrwt>
<pdfrwt beam="2">  1       -1 0.13860174E+00 0.24503660E+04</pdfrwt>
<totfact> 0.44939009E+00</totfact>
</mgrwt>
</event>
<event>
12    7  0.1637954E-007  0.1209153E+04  0.7818608E-02  0.9104883E-01
          2   -1    0    0  501    0  0.00000000000E+00  0.00000000000E+00  0.13068631012E+04  0.13068631012E+04  0.00000000000E+00 0. -1.
         -1   -1    0    0    0  501 -0.00000000000E+00 -0.00000000000E+00 -0.27968698996E+03  0.27968698996E+03  0.00000000000E+00 0.  1.
         24    2    1    2    0    0 -0.14244803676E+03  0.41164104382E+01 -0.51847070849E+02  0.17140673164E+03  0.79898441058E+02 0.  0.
        254    2    1    2    0    0  0.14244803676E+03 -0.41164104382E+01  0.10790231821E+04  0.14151433596E+04  0.90445083477E+03 0.  0.
         23    2    4    4    0    0  0.15648437240E+03  0.42967331236E+03  0.64282096662E+03  0.79408061480E+03  0.90767359305E+02 0.  0.
         23    2    4    4    0    0 -0.14036335639E+02 -0.43378972279E+03  0.43620221551E+03  0.62106274476E+03  0.84119069165E+02 0.  0.
          4    1    3    3  502    0 -0.56752692147E+02 -0.36514630983E+02 -0.31188058583E+02  0.74342997921E+02  0.00000000000E+00 0. -1.
         -3    1    3    3    0  502 -0.85695344612E+02  0.40631041421E+02 -0.20659012266E+02  0.97063733716E+02  0.00000000000E+00 0.  1.
         13    1    5    5    0    0  0.91592069682E+02  0.35541512323E+03  0.49034626799E+03  0.61249365677E+03  0.00000000000E+00 0.  1.
        -13    1    5    5    0    0  0.64892302716E+02  0.74258189123E+02  0.15247469863E+03  0.18158695802E+03  0.00000000000E+00 0. -1.
          1    1    6    6  503    0  0.27778974896E+00 -0.73606402412E+02  0.34349998359E+02  0.81227470910E+02  0.00000000000E+00 0. -1.
         -1    1    6    6    0  503 -0.14314125388E+02 -0.36018332038E+03  0.40185221715E+03  0.53983527385E+03  0.00000000000E+00 0.  1.
<mgrwt>
<rscale>  0 0.12091528E+04</rscale>
<asrwt>0</asrwt>
<pdfrwt beam="1">  1        2 0.20105586E+00 0.12091528E+04</pdfrwt>
<pdfrwt beam="2">  1       -1 0.43028768E-01 0.12091528E+04</pdfrwt>
<totfact> 0.97962257E+01</totfact>
</mgrwt>
</event>
<event>
12    7  0.1637954E-007  0.2118967E+04  0.7818608E-02  0.8552934E-01
         -1   -1    0    0    0  501 -0.00000000000E+00  0.00000000000E+00  0.10467413301E+04  0.10467413301E+04  0.00000000000E+00 0.  1.
          2   -1    0    0  501    0  0.00000000000E+00 -0.00000000000E+00 -0.10723802865E+04  0.10723802865E+04  0.00000000000E+00 0. -1.
         24    2    1    2    0    0 -0.15504665684E+03  0.73170284413E+03 -0.43591379151E+03  0.86982036260E+03  0.84487346181E+02 0.  0.
        254    2    1    2    0    0  0.15504665684E+03 -0.73170284413E+03  0.41027483519E+03  0.12493012540E+04  0.91268815317E+03 0.  0.
         23    2    4    4    0    0 -0.10730323192E+03 -0.58127240204E+03 -0.13973160614E+03  0.61510307629E+03  0.97135388786E+02 0.  0.
         23    2    4    4    0    0  0.26234988875E+03 -0.15043044208E+03  0.55000644133E+03  0.63419817770E+03  0.90793507770E+02 0.  0.
          2    1    3    3  502    0 -0.16331698383E+03  0.69970317389E+03 -0.42604610768E+03  0.83532763310E+03  0.00000000000E+00 0. -1.
         -1    1    3    3    0  502  0.82703269893E+01  0.31999670239E+02 -0.98676838230E+01  0.34492729494E+02  0.00000000000E+00 0.  1.
         13    1    5    5    0    0 -0.74412420795E+02 -0.18034980568E+03 -0.24339499914E+02  0.19661045759E+03  0.00000000000E+00 0. -1.
        -13    1    5    5    0    0 -0.32890811123E+02 -0.40092259637E+03 -0.11539210622E+03  0.41849261871E+03  0.00000000000E+00 0.  1.
          1    1    6    6  503    0  0.11375487054E+03 -0.10633294021E+03  0.21918953408E+03  0.26886970189E+03  0.00000000000E+00 0. -1.
         -1    1    6    6    0  503  0.14859501821E+03 -0.44097501870E+02  0.33081690726E+03  0.36532847581E+03  0.00000000000E+00 0.  1.
<mgrwt>
<rscale>  0 0.21189665E+04</rscale>
<asrwt>0</asrwt>
<pdfrwt beam="1">  1        2 0.16498158E+00 0.21189665E+04</pdfrwt>
<pdfrwt beam="2">  1       -1 0.16103713E+00 0.21189665E+04</pdfrwt>
<totfact> 0.68255864E+00</totfact>
</mgrwt>
</event>
<event>
12    7  0.1637954E-007  0.2054341E+04  0.7818608E-02  0.8581628E-01
         -1   -1    0    0    0  501 -0.00000000000E+00  0.00000000000E+00  0.30681086100E+03  0.30681086100E+03  0.00000000000E+00 0.  1.
          2   -1    0    0  501    0  0.00000000000E+00 -0.00000000000E+00 -0.34388582582E+04  0.34388582582E+04  0.00000000000E+00 0. -1.
         24    2    1    2    0    0 -0.59736960556E+03 -0.50402299412E+03 -0.14748511658E+04  0.16708415629E+04  0.75072918396E+02 0.  0.
        254    2    1    2    0    0  0.59736960556E+03  0.50402299412E+03 -0.16571962315E+04  0.20748275563E+04  0.97350932941E+03 0.  0.
         23    2    4    4    0    0 -0.11124595829E+03  0.42781622727E+03 -0.10164807102E+04  0.11122253908E+04  0.91705496821E+02 0.  0.
         23    2    4    4    0    0  0.70861556385E+03  0.76206766850E+02 -0.64071552128E+03  0.96260216550E+03  0.90238911679E+02 0.  0.
          4    1    3    3  502    0 -0.52405990579E+03 -0.46311461212E+03 -0.13498429318E+04  0.15202598032E+04  0.00000000000E+00 0. -1.
         -3    1    3    3    0  502 -0.73309699774E+02 -0.40908381998E+02 -0.12500823395E+03  0.15058175970E+03  0.00000000000E+00 0.  1.
         13    1    5    5    0    0 -0.19433149445E+02  0.24564874649E+03 -0.51827264207E+03  0.57387061736E+03  0.00000000000E+00 0.  1.
        -13    1    5    5    0    0 -0.91812808842E+02  0.18216748078E+03 -0.49820806813E+03  0.53835477342E+03  0.00000000000E+00 0. -1.
          1    1    6    6  503    0  0.21417579575E+03  0.59415308818E+02 -0.22690851311E+03  0.31763016816E+03  0.00000000000E+00 0. -1.
         -1    1    6    6    0  503  0.49443976810E+03  0.16791458032E+02 -0.41380700818E+03  0.64497199734E+03  0.00000000000E+00 0.  1.
<mgrwt>
<rscale>  0 0.20543408E+04</rscale>
<asrwt>0</asrwt>
<pdfrwt beam="1">  1        2 0.52905510E+00 0.20543408E+04</pdfrwt>
<pdfrwt beam="2">  1       -1 0.47201672E-01 0.20543408E+04</pdfrwt>
<totfact> 0.42452067E+00</totfact>
</mgrwt>
</event>
<event>
12    7  0.1637954E-007  0.2169223E+04  0.7818608E-02  0.8531349E-01
         -1   -1    0    0    0  501 -0.00000000000E+00  0.00000000000E+00  0.49775961052E+03  0.49775961052E+03  0.00000000000E+00 0.  1.
          2   -1    0    0  501    0  0.00000000000E+00 -0.00000000000E+00 -0.23633532117E+04  0.23633532117E+04  0.00000000000E+00 0. -1.
         24    2    1    2    0    0 -0.38859936912E+03  0.43747366612E+03 -0.16739416174E+04  0.17750027750E+04  0.78496080438E+02 0.  0.
        254    2    1    2    0    0  0.38859936912E+03 -0.43747366612E+03 -0.19165198378E+03  0.10861100472E+04  0.89471329124E+03 0.  0.
         23    2    4    4    0    0 -0.51609523567E+02  0.21041002470E+03  0.88233697687E+02  0.24919435445E+03  0.85887830720E+02 0.  0.
         23    2    4    4    0    0  0.44020889268E+03 -0.64788369082E+03 -0.27988568147E+03  0.83691569276E+03  0.92491816234E+02 0.  0.
          2    1    3    3  502    0 -0.36168004336E+03  0.42335405056E+03 -0.15376351704E+04  0.16353479823E+04  0.00000000000E+00 0. -1.
         -1    1    3    3    0  502 -0.26919325757E+02  0.14119615557E+02 -0.13630644695E+03  0.13965479270E+03  0.00000000000E+00 0.  1.
         13    1    5    5    0    0  0.21368928788E+02  0.83930343417E+02  0.25668696770E+02  0.90331697966E+02  0.00000000000E+00 0. -1.
        -13    1    5    5    0    0 -0.72978452355E+02  0.12647968128E+03  0.62565000916E+02  0.15886265648E+03  0.00000000000E+00 0.  1.
          1    1    6    6  503    0  0.30289214004E+03 -0.48814431337E+03 -0.16877501963E+03  0.59875999067E+03  0.00000000000E+00 0. -1.
         -1    1    6    6    0  503  0.13731675264E+03 -0.15973937744E+03 -0.11111066184E+03  0.23815570209E+03  0.00000000000E+00 0.  1.
<mgrwt>
<rscale>  0 0.21692227E+04</rscale>
<asrwt>0</asrwt>
<pdfrwt beam="1">  1        2 0.36359281E+00 0.21692227E+04</pdfrwt>
<pdfrwt beam="2">  1       -1 0.76578400E-01 0.21692227E+04</pdfrwt>
<totfact> 0.74463130E+00</totfact>
</mgrwt>
</event>
<event>
12    7  0.1637954E-007  0.1205926E+04  0.7818608E-02  0.9107686E-01
          2   -1    0    0  501    0  0.00000000000E+00  0.00000000000E+00  0.29870292396E+04  0.29870292396E+04  0.00000000000E+00 0. -1.
         -1   -1    0    0    0  501 -0.00000000000E+00 -0.00000000000E+00 -0.12171430100E+03  0.12171430100E+03  0.00000000000E+00 0.  1.
         24    2    1    2    0    0 -0.33227835869E+02 -0.88812837460E+02  0.11636138046E+04  0.11708930983E+04  0.89452512742E+02 0.  0.
        254    2    1    2    0    0  0.33227835869E+02  0.88812837460E+02  0.17017011340E+04  0.19378504424E+04  0.92221785843E+03 0.  0.
         23    2    4    4    0    0 -0.21239202734E+03 -0.30173793773E+03  0.11537713255E+04  0.12147287054E+04  0.90671935476E+02 0.  0.
         23    2    4    4    0    0  0.24561986321E+03  0.39055077519E+03  0.54792980850E+03  0.72312173696E+03  0.99090596013E+02 0.  0.
          2    1    3    3  502    0 -0.47941529684E+02 -0.77664662587E+02  0.11175094002E+04  0.11212303285E+04  0.00000000000E+00 0. -1.
         -1    1    3    3    0  502  0.14713693816E+02 -0.11148174874E+02  0.46104404458E+02  0.49662769749E+02  0.00000000000E+00 0.  1.
         13    1    5    5    0    0 -0.13052858692E+03 -0.18089906021E+03  0.54892488098E+03  0.59252063841E+03  0.00000000000E+00 0. -1.
        -13    1    5    5    0    0 -0.81863440419E+02 -0.12083887752E+03  0.60484644452E+03  0.62220806701E+03  0.00000000000E+00 0.  1.
          3    1    6    6  503    0  0.68737428509E+02  0.16350130767E+03  0.26980718570E+03  0.32288299606E+03  0.00000000000E+00 0. -1.
         -3    1    6    6    0  503  0.17688243470E+03  0.22704946752E+03  0.27812262280E+03  0.40023874091E+03  0.00000000000E+00 0.  1.
<mgrwt>
<rscale>  0 0.12059257E+04</rscale>
<asrwt>0</asrwt>
<pdfrwt beam="1">  1        2 0.45954290E+00 0.12059257E+04</pdfrwt>
<pdfrwt beam="2">  1       -1 0.18725279E-01 0.12059257E+04</pdfrwt>
<totfact> 0.46154361E+01</totfact>
</mgrwt>
</event>
<event>
12    7  0.1637954E-007  0.1433957E+04  0.7818608E-02  0.8929599E-01
         -1   -1    0    0    0  501 -0.00000000000E+00  0.00000000000E+00  0.25287245273E+03  0.25287245273E+03  0.00000000000E+00 0.  1.
          2   -1    0    0  501    0  0.00000000000E+00 -0.00000000000E+00 -0.20328764343E+04  0.20328764343E+04  0.00000000000E+00 0. -1.
         24    2    1    2    0    0  0.39863814426E+03  0.47754041257E+02 -0.78521561422E+03  0.88553080115E+03  0.80052610639E+02 0.  0.
        254    2    1    2    0    0 -0.39863814426E+03 -0.47754041257E+02 -0.99478836737E+03  0.14002180859E+04  0.89989664610E+03 0.  0.
         23    2    4    4    0    0 -0.19515602396E+02  0.23256747955E+03  0.44914311256E+02  0.25494286819E+03  0.92250091632E+02 0.  0.
         23    2    4    4    0    0 -0.37912254186E+03 -0.28032152081E+03 -0.10397026786E+04  0.11452752177E+04  0.91430889392E+02 0.  0.
          4    1    3    3  502    0  0.37602599395E+03  0.39255891781E+02 -0.68461391040E+03  0.78206954900E+03  0.00000000000E+00 0. -1.
         -3    1    3    3    0  502  0.22612150312E+02  0.84981494763E+01 -0.10060170382E+03  0.10346125215E+03  0.00000000000E+00 0.  1.
         13    1    5    5    0    0 -0.24807862361E+02  0.23140922301E+03  0.58791205945E+02  0.24004596315E+03  0.00000000000E+00 0.  1.
        -13    1    5    5    0    0  0.52922599653E+01  0.11582565461E+01 -0.13876894690E+02  0.14896905048E+02  0.00000000000E+00 0. -1.
          4    1    6    6  503    0 -0.18053148929E+02 -0.42838999424E+02 -0.13190242656E+03  0.13985473245E+03  0.00000000000E+00 0. -1.
         -4    1    6    6    0  503 -0.36106939293E+03 -0.23748252138E+03 -0.90780025207E+03  0.10054204852E+04  0.00000000000E+00 0.  1.
<mgrwt>
<rscale>  0 0.14339574E+04</rscale>
<asrwt>0</asrwt>
<pdfrwt beam="1">  1        2 0.31275022E+00 0.14339574E+04</pdfrwt>
<pdfrwt beam="2">  1       -1 0.38903454E-01 0.14339574E+04</pdfrwt>
<totfact> 0.45428038E+01</totfact>
</mgrwt>
</event>
<event>
12    7  0.1637954E-007  0.1097600E+04  0.7818608E-02  0.9207535E-01
          2   -1    0    0  501    0  0.00000000000E+00  0.00000000000E+00  0.20204206859E+04  0.20204206859E+04  0.00000000000E+00 0. -1.
         -1   -1    0    0    0  501 -0.00000000000E+00 -0.00000000000E+00 -0.14906858044E+03  0.14906858044E+03  0.00000000000E+00 0.  1.
         24    2    1    2    0    0 -0.13181849871E+03  0.97758417766E+01  0.15265996387E+03  0.21736354407E+03  0.80437317438E+02 0.  0.
        254    2    1    2    0    0  0.13181849871E+03 -0.97758417766E+01  0.17186921416E+04  0.19521257223E+04  0.91619892725E+03 0.  0.
         23    2    4    4    0    0 -0.36249571752E+03  0.10171252929E+03  0.96131122291E+03  0.10364255759E+04  0.91159877707E+02 0.  0.
         23    2    4    4    0    0  0.49431421623E+03 -0.11148837107E+03  0.75738091871E+03  0.91570014637E+03  0.90026111692E+02 0.  0.
          4    1    3    3  502    0 -0.74092360770E+02  0.26290549663E+01  0.13911951800E+03  0.15764146073E+03  0.00000000000E+00 0. -1.
         -3    1    3    3    0  502 -0.57726137942E+02  0.71467868103E+01  0.13540445870E+02  0.59722083334E+02  0.00000000000E+00 0.  1.
         13    1    5    5    0    0 -0.21788279193E+00  0.94215157989E+01  0.77611798040E+01  0.12208535736E+02  0.00000000000E+00 0. -1.
        -13    1    5    5    0    0 -0.36227783473E+03  0.92291013493E+02  0.95355004311E+03  0.10242170402E+04  0.00000000000E+00 0.  1.
          2    1    6    6  503    0  0.17932438437E+03 -0.75864396973E+02  0.24162979581E+03  0.31031854566E+03  0.00000000000E+00 0. -1.
         -2    1    6    6    0  503  0.31498983186E+03 -0.35623974096E+02  0.51575112290E+03  0.60538160071E+03  0.00000000000E+00 0.  1.
<mgrwt>
<rscale>  0 0.10975996E+04</rscale>
<asrwt>0</asrwt>
<pdfrwt beam="1">  1        2 0.31083393E+00 0.10975996E+04</pdfrwt>
<pdfrwt beam="2">  1       -1 0.22933629E-01 0.10975996E+04</pdfrwt>
<totfact> 0.11980486E+02</totfact>
</mgrwt>
</event>
<event>
12    7  0.1637954E-007  0.3167349E+04  0.7818608E-02  0.8197494E-01
          2   -1    0    0  501    0  0.00000000000E+00  0.00000000000E+00  0.20585812927E+04  0.20585812927E+04  0.00000000000E+00 0. -1.
         -1   -1    0    0    0  501 -0.00000000000E+00 -0.00000000000E+00 -0.12183271658E+04  0.12183271658E+04  0.00000000000E+00 0.  1.
         24    2    1    2    0    0  0.59766432950E+03 -0.13200778050E+04  0.24516190453E+03  0.14722308021E+04  0.86897141948E+02 0.  0.
        254    2    1    2    0    0 -0.59766432950E+03  0.13200778050E+04  0.59509222238E+03  0.18046776563E+04  0.89605726834E+03 0.  0.
         23    2    4    4    0    0  0.18220253225E+03  0.12513181504E+03  0.22570838757E+03  0.32793732389E+03  0.87993626411E+02 0.  0.
         23    2    4    4    0    0 -0.77986686175E+03  0.11949459899E+04  0.36938383481E+03  0.14767403324E+04  0.90715771002E+02 0.  0.
          2    1    3    3  502    0  0.59289501894E+03 -0.12727544012E+04  0.23896681822E+03  0.14242659195E+04  0.00000000000E+00 0. -1.
         -1    1    3    3    0  502  0.47693105640E+01 -0.47323403773E+02  0.61950863121E+01  0.47964882595E+02  0.00000000000E+00 0.  1.
         13    1    5    5    0    0  0.75006291372E+01  0.37990567261E+02  0.62261492935E+02  0.73321457574E+02  0.00000000000E+00 0. -1.
        -13    1    5    5    0    0  0.17470190311E+03  0.87141247779E+02  0.16344689463E+03  0.25461586632E+03  0.00000000000E+00 0.  1.
          1    1    6    6  503    0 -0.13378566594E+02  0.14661899774E+02 -0.49929485450E+01  0.20466726271E+02  0.00000000000E+00 0. -1.
         -1    1    6    6    0  503 -0.76648829516E+03  0.11802840901E+04  0.37437678336E+03  0.14562736062E+04  0.00000000000E+00 0.  1.
<mgrwt>
<rscale>  0 0.31673494E+04</rscale>
<asrwt>0</asrwt>
<pdfrwt beam="1">  1        2 0.31670481E+00 0.31673494E+04</pdfrwt>
<pdfrwt beam="2">  1       -1 0.18743495E+00 0.31673494E+04</pdfrwt>
<totfact> 0.10962692E+00</totfact>
</mgrwt>
</event>
<event>
12    7  0.1637954E-007  0.1119531E+04  0.7818608E-02  0.9186362E-01
         -1   -1    0    0    0  501 -0.00000000000E+00  0.00000000000E+00  0.21084642715E+03  0.21084642715E+03  0.00000000000E+00 0.  1.
          2   -1    0    0  501    0  0.00000000000E+00 -0.00000000000E+00 -0.14860934684E+04  0.14860934684E+04  0.00000000000E+00 0. -1.
         24    2    1    2    0    0  0.54426307754E+01 -0.13563790183E+03 -0.34414868222E+02  0.16109520822E+03  0.79624244509E+02 0.  0.
        254    2    1    2    0    0 -0.54426307754E+01  0.13563790183E+03 -0.12408321730E+04  0.15358446873E+04  0.89483359310E+03 0.  0.
         23    2    4    4    0    0 -0.38795814873E+03 -0.67760849037E+02 -0.32644910367E+03  0.51998416561E+03  0.93335188278E+02 0.  0.
         23    2    4    4    0    0  0.38251551795E+03  0.20339875086E+03 -0.91438306937E+03  0.10158605217E+04  0.90482201223E+02 0.  0.
          4    1    3    3  502    0 -0.75422448495E+01  0.20957529802E+01  0.12725041802E+02  0.14940024324E+02  0.00000000000E+00 0. -1.
         -3    1    3    3    0  502  0.12984875625E+02 -0.13773365481E+03 -0.47139910024E+02  0.14615518389E+03  0.00000000000E+00 0.  1.
         13    1    5    5    0    0 -0.44541347770E+02  0.68401671839E+01 -0.76322210365E+02  0.88632947278E+02  0.00000000000E+00 0. -1.
        -13    1    5    5    0    0 -0.34341680096E+03 -0.74601016221E+02 -0.25012689331E+03  0.43135121833E+03  0.00000000000E+00 0.  1.
          3    1    6    6  503    0  0.47527436704E+02 -0.23800439890E+01 -0.13069087029E+03  0.13908495759E+03  0.00000000000E+00 0. -1.
         -3    1    6    6    0  503  0.33498808125E+03  0.20577879485E+03 -0.78369219907E+03  0.87677556414E+03  0.00000000000E+00 0.  1.
<mgrwt>
<rscale>  0 0.11195311E+04</rscale>
<asrwt>0</asrwt>
<pdfrwt beam="1">  1        2 0.22862977E+00 0.11195311E+04</pdfrwt>
<pdfrwt beam="2">  1       -1 0.32437911E-01 0.11195311E+04</pdfrwt>
<totfact> 0.12972627E+02</totfact>
</mgrwt>
</event>
<event>
12    7  0.1637954E-007  0.1363873E+04  0.7818608E-02  0.8980392E-01
          2   -1    0    0  501    0  0.00000000000E+00  0.00000000000E+00  0.10356014535E+04  0.10356014535E+04  0.00000000000E+00 0. -1.
         -1   -1    0    0    0  501 -0.00000000000E+00 -0.00000000000E+00 -0.44905058407E+03  0.44905058407E+03  0.00000000000E+00 0.  1.
         24    2    1    2    0    0  0.27769504758E+03 -0.11858888298E+03  0.39607917841E+03  0.50441600395E+03  0.79868184240E+02 0.  0.
        254    2    1    2    0    0 -0.27769504758E+03  0.11858888298E+03  0.19047169102E+03  0.98023603362E+03  0.91291037562E+03 0.  0.
         23    2    4    4    0    0 -0.27954124314E+03  0.39921713272E+03 -0.16044531169E+03  0.52111105746E+03  0.91084633699E+02 0.  0.
         23    2    4    4    0    0  0.18461955564E+01 -0.28062824974E+03  0.35091700271E+03  0.45912497616E+03  0.94325913481E+02 0.  0.
          2    1    3    3  502    0  0.27791443482E+03 -0.12126864350E+03  0.37079846226E+03  0.47899271037E+03  0.00000000000E+00 0. -1.
         -1    1    3    3    0  502 -0.21938723656E+00  0.26797605194E+01  0.25280716155E+02  0.25423293581E+02  0.00000000000E+00 0.  1.
         13    1    5    5    0    0  0.34048314829E+01 -0.20376332952E+01 -0.44060343005E+01  0.59294152435E+01  0.00000000000E+00 0.  1.
        -13    1    5    5    0    0 -0.28294607462E+03  0.40125476602E+03 -0.15603927739E+03  0.51518164222E+03  0.00000000000E+00 0. -1.
          4    1    6    6  503    0  0.46025081041E+02 -0.17909059932E+03  0.20752376076E+03  0.27795298547E+03  0.00000000000E+00 0. -1.
         -4    1    6    6    0  503 -0.44178885485E+02 -0.10153765042E+03  0.14339324195E+03  0.18117199069E+03  0.00000000000E+00 0.  1.
<mgrwt>
<rscale>  0 0.13638731E+04</rscale>
<asrwt>0</asrwt>
<pdfrwt beam="1">  1        2 0.15932330E+00 0.13638731E+04</pdfrwt>
<pdfrwt beam="2">  1       -1 0.69084705E-01 0.13638731E+04</pdfrwt>
<totfact> 0.56412324E+01</totfact>
</mgrwt>
</event>
<event>
12    7  0.1637954E-007  0.1850390E+04  0.7818608E-02  0.8679952E-01
          2   -1    0    0  501    0  0.00000000000E+00  0.00000000000E+00  0.86207448298E+03  0.86207448298E+03  0.00000000000E+00 0. -1.
         -1   -1    0    0    0  501 -0.00000000000E+00 -0.00000000000E+00 -0.99293723970E+03  0.99293723970E+03  0.00000000000E+00 0.  1.
         24    2    1    2    0    0 -0.31376178066E+03 -0.40361692225E+03 -0.53497258566E+03  0.74396268781E+03  0.77017780520E+02 0.  0.
        254    2    1    2    0    0  0.31376178066E+03  0.40361692225E+03  0.40410982894E+03  0.11110490349E+04  0.89987339615E+03 0.  0.
         23    2    4    4    0    0 -0.24710868902E+03  0.33911664873E+02  0.33689315668E+03  0.42976403320E+03  0.94802004240E+02 0.  0.
         23    2    4    4    0    0  0.56087046968E+03  0.36970525738E+03  0.67216672257E+02  0.68128500167E+03  0.91506892551E+02 0.  0.
          4    1    3    3  502    0 -0.19151992848E+03 -0.18549900199E+03 -0.28939246228E+03  0.39349429471E+03  0.00000000000E+00 0. -1.
         -3    1    3    3    0  502 -0.12224185218E+03 -0.21811792027E+03 -0.24558012337E+03  0.35046839310E+03  0.00000000000E+00 0.  1.
         13    1    5    5    0    0  0.22583507655E+01 -0.38375824590E+00 -0.48273277248E+01  0.53432678703E+01  0.00000000000E+00 0. -1.
        -13    1    5    5    0    0 -0.24936703978E+03  0.34295423119E+02  0.34172048441E+03  0.42442076533E+03  0.00000000000E+00 0.  1.
          3    1    6    6  503    0  0.26597629731E+03  0.15621194769E+03  0.73799699013E+02  0.31716235418E+03  0.00000000000E+00 0.  1.
         -3    1    6    6    0  503  0.29489417237E+03  0.21349330969E+03 -0.65830267566E+01  0.36412264750E+03  0.00000000000E+00 0. -1.
<mgrwt>
<rscale>  0 0.18503901E+04</rscale>
<asrwt>0</asrwt>
<pdfrwt beam="1">  1        2 0.13262684E+00 0.18503901E+04</pdfrwt>
<pdfrwt beam="2">  1       -1 0.15275958E+00 0.18503901E+04</pdfrwt>
<totfact> 0.11093656E+01</totfact>
</mgrwt>
</event>
<event>
12    7  0.1637954E-007  0.1459026E+04  0.7818608E-02  0.8912167E-01
          2   -1    0    0  501    0  0.00000000000E+00  0.00000000000E+00  0.18652805944E+04  0.18652805944E+04  0.00000000000E+00 0. -1.
         -1   -1    0    0    0  501 -0.00000000000E+00 -0.00000000000E+00 -0.28531331018E+03  0.28531331018E+03  0.00000000000E+00 0.  1.
         24    2    1    2    0    0  0.86954889268E+02  0.12340670753E+03  0.10818463990E+04  0.10952423758E+04  0.79836473434E+02 0.  0.
        254    2    1    2    0    0 -0.86954889268E+02 -0.12340670753E+03  0.49812088514E+03  0.10553515287E+04  0.91806974937E+03 0.  0.
         23    2    4    4    0    0  0.37671250931E+02 -0.49133802807E+03  0.14305736919E+03  0.52138760802E+03  0.92452398255E+02 0.  0.
         23    2    4    4    0    0 -0.12462614020E+03  0.36793132054E+03  0.35506351595E+03  0.53396392069E+03  0.90234343720E+02 0.  0.
          2    1    3    3  502    0  0.87593003562E+02  0.78681480292E+02  0.91342796202E+03  0.92098531553E+03  0.00000000000E+00 0. -1.
         -1    1    3    3    0  502 -0.63811429418E+00  0.44725227239E+02  0.16841843702E+03  0.17425706032E+03  0.00000000000E+00 0.  1.
         13    1    5    5    0    0  0.24809879304E+02 -0.47640355011E+03  0.15064283850E+03  0.50026906506E+03  0.00000000000E+00 0.  1.
        -13    1    5    5    0    0  0.12861371627E+02 -0.14934477957E+02 -0.75854693044E+01  0.21118542955E+02  0.00000000000E+00 0. -1.
          3    1    6    6  503    0 -0.27483622299E+02  0.25836292186E+02  0.11356773337E+02  0.39393397787E+02  0.00000000000E+00 0. -1.
         -3    1    6    6    0  503 -0.97142517901E+02  0.34209502835E+03  0.34370674262E+03  0.49457052290E+03  0.00000000000E+00 0.  1.
<mgrwt>
<rscale>  0 0.14590262E+04</rscale>
<asrwt>0</asrwt>
<pdfrwt beam="1">  1        2 0.28696624E+00 0.14590262E+04</pdfrwt>
<pdfrwt beam="2">  1       -1 0.43894357E-01 0.14590262E+04</pdfrwt>
<totfact> 0.44965536E+01</totfact>
</mgrwt>
</event>
<event>
12    7  0.1637954E-007  0.1966317E+04  0.7818608E-02  0.8622532E-01
          2   -1    0    0  501    0  0.00000000000E+00  0.00000000000E+00  0.21081931402E+04  0.21081931402E+04  0.00000000000E+00 0. -1.
         -1   -1    0    0    0  501 -0.00000000000E+00 -0.00000000000E+00 -0.45849719223E+03  0.45849719223E+03  0.00000000000E+00 0.  1.
         24    2    1    2    0    0  0.54718078202E+03  0.36482578096E+03  0.11871268842E+04  0.13595907265E+04  0.81927076395E+02 0.  0.
        254    2    1    2    0    0 -0.54718078202E+03 -0.36482578096E+03  0.46256906375E+03  0.12070996059E+04  0.90034141362E+03 0.  0.
         23    2    4    4    0    0 -0.74012315220E+03 -0.29072057532E+03  0.13775577788E+03  0.81205810255E+03  0.90338110640E+02 0.  0.
         23    2    4    4    0    0  0.19294237018E+03 -0.74105205640E+02  0.32481328587E+03  0.39504150332E+03  0.88519935305E+02 0.  0.
          4    1    3    3  502    0  0.41424552976E+03  0.23511683549E+03  0.82579582146E+03  0.95331947635E+03  0.00000000000E+00 0. -1.
         -3    1    3    3    0  502  0.13293525226E+03  0.12970894547E+03  0.36133106275E+03  0.40627125019E+03  0.00000000000E+00 0.  1.
         13    1    5    5    0    0 -0.52602334287E+03 -0.17259084151E+03  0.67986744758E+02  0.55777267169E+03  0.00000000000E+00 0.  1.
        -13    1    5    5    0    0 -0.21409980933E+03 -0.11812973381E+03  0.69769033120E+02  0.25428543086E+03  0.00000000000E+00 0. -1.
          2    1    6    6  503    0  0.41744611770E+02 -0.59854470907E+02  0.10591727117E+03  0.12862207677E+03  0.00000000000E+00 0. -1.
         -2    1    6    6    0  503  0.15119775842E+03 -0.14250734733E+02  0.21889601470E+03  0.26641942655E+03  0.00000000000E+00 0.  1.
<mgrwt>
<rscale>  0 0.19663170E+04</rscale>
<asrwt>0</asrwt>
<pdfrwt beam="1">  1        2 0.32433740E+00 0.19663170E+04</pdfrwt>
<pdfrwt beam="2">  1       -1 0.70538031E-01 0.19663170E+04</pdfrwt>
<totfact> 0.12524562E+01</totfact>
</mgrwt>
</event>
<event>
12    7  0.1637954E-007  0.2180539E+04  0.7818608E-02  0.8526572E-01
         -1   -1    0    0    0  501 -0.00000000000E+00  0.00000000000E+00  0.70064094307E+03  0.70064094307E+03  0.00000000000E+00 0.  1.
          2   -1    0    0  501    0  0.00000000000E+00 -0.00000000000E+00 -0.16965720527E+04  0.16965720527E+04  0.00000000000E+00 0. -1.
         24    2    1    2    0    0  0.23902358941E+03 -0.84653047904E+03 -0.20550002176E+03  0.90690745450E+03  0.80651992194E+02 0.  0.
        254    2    1    2    0    0 -0.23902358941E+03  0.84653047904E+03 -0.79043108783E+03  0.14903055412E+04  0.90690858049E+03 0.  0.
         23    2    4    4    0    0 -0.42970651657E+03  0.82498723944E+03 -0.34411108710E+03  0.99601692242E+03  0.91573106580E+02 0.  0.
         23    2    4    4    0    0  0.19068292716E+03  0.21543239601E+02 -0.44632000072E+03  0.49428861881E+03  0.91080216049E+02 0.  0.
          4    1    3    3  502    0  0.12787493893E+03 -0.32295149309E+03 -0.98856878100E+02  0.36114034563E+03  0.00000000000E+00 0. -1.
         -3    1    3    3    0  502  0.11114865048E+03 -0.52357898596E+03 -0.10664314366E+03  0.54576710888E+03  0.00000000000E+00 0.  1.
         13    1    5    5    0    0 -0.63262409754E+02  0.10305655038E+03 -0.77551707496E+02  0.14365602111E+03  0.00000000000E+00 0. -1.
        -13    1    5    5    0    0 -0.36644410681E+03  0.72193068906E+03 -0.26655937961E+03  0.85236090131E+03  0.00000000000E+00 0.  1.
          3    1    6    6  503    0  0.37069867222E+01  0.24901181805E+02 -0.45843869907E+02  0.52301730506E+02  0.00000000000E+00 0. -1.
         -3    1    6    6    0  503  0.18697594043E+03 -0.33579422046E+01 -0.40047613082E+03  0.44198688830E+03  0.00000000000E+00 0.  1.
<mgrwt>
<rscale>  0 0.21805392E+04</rscale>
<asrwt>0</asrwt>
<pdfrwt beam="1">  1        2 0.26101108E+00 0.21805392E+04</pdfrwt>
<pdfrwt beam="2">  1       -1 0.10779092E+00 0.21805392E+04</pdfrwt>
<totfact> 0.82215977E+00</totfact>
</mgrwt>
</event>
<event>
12    7  0.1637954E-007  0.1748506E+04  0.7818608E-02  0.8734173E-01
         -1   -1    0    0    0  501 -0.00000000000E+00  0.00000000000E+00  0.44910725227E+03  0.44910725227E+03  0.00000000000E+00 0.  1.
          2   -1    0    0  501    0  0.00000000000E+00 -0.00000000000E+00 -0.17018623617E+04  0.17018623617E+04  0.00000000000E+00 0. -1.
         24    2    1    2    0    0 -0.58192065623E+03  0.10862510442E+03 -0.16164173292E+03  0.61889006987E+03  0.80410231322E+02 0.  0.
        254    2    1    2    0    0  0.58192065623E+03 -0.10862510442E+03 -0.10911133765E+04  0.15320795441E+04  0.89794669416E+03 0.  0.
         23    2    4    4    0    0  0.85332537459E+02 -0.27609383771E+03 -0.92732991602E+03  0.97523827507E+03  0.87404066606E+02 0.  0.
         23    2    4    4    0    0  0.49658811877E+03  0.16746873329E+03 -0.16378346046E+03  0.55684126899E+03  0.92745030049E+02 0.  0.
          2    1    3    3  502    0 -0.14084750447E+03  0.41396128978E+02 -0.80476224299E+01  0.14702524694E+03  0.00000000000E+00 0. -1.
         -1    1    3    3    0  502 -0.44107315176E+03  0.67228975441E+02 -0.15359411049E+03  0.47186482293E+03  0.00000000000E+00 0.  1.
         13    1    5    5    0    0  0.51725108515E+02 -0.25889618058E+03 -0.82095546701E+03  0.86236337931E+03  0.00000000000E+00 0.  1.
        -13    1    5    5    0    0  0.33607428945E+02 -0.17197657125E+02 -0.10637444901E+03  0.11287489576E+03  0.00000000000E+00 0. -1.
          4    1    6    6  503    0  0.31607026097E+03  0.61255035661E+02 -0.11419834219E+03  0.34160481645E+03  0.00000000000E+00 0.  1.
         -4    1    6    6    0  503  0.18051785780E+03  0.10621369763E+03 -0.49585118279E+02  0.21523645254E+03  0.00000000000E+00 0. -1.
<mgrwt>
<rscale>  0 0.17485065E+04</rscale>
<asrwt>0</asrwt>
<pdfrwt beam="1">  1        2 0.26182498E+00 0.17485065E+04</pdfrwt>
<pdfrwt beam="2">  1       -1 0.69093424E-01 0.17485065E+04</pdfrwt>
<totfact> 0.22387475E+01</totfact>
</mgrwt>
</event>
<event>
12    7  0.1637954E-007  0.2398121E+04  0.7818608E-02  0.8440207E-01
         -1   -1    0    0    0  501 -0.00000000000E+00  0.00000000000E+00  0.52738982558E+03  0.52738982558E+03  0.00000000000E+00 0.  1.
          2   -1    0    0  501    0  0.00000000000E+00 -0.00000000000E+00 -0.27261551277E+04  0.27261551277E+04  0.00000000000E+00 0. -1.
         24    2    1    2    0    0 -0.10678525341E+03  0.49355780742E+03  0.26880972610E+03  0.57773110745E+03  0.80697980529E+02 0.  0.
        254    2    1    2    0    0  0.10678525341E+03 -0.49355780742E+03 -0.24675750282E+04  0.26758138458E+04  0.90335531107E+03 0.  0.
         23    2    4    4    0    0  0.43984253360E+03 -0.52190236678E+03 -0.16322933491E+04  0.17715362368E+04  0.90086213940E+02 0.  0.
         23    2    4    4    0    0 -0.33305728020E+03  0.28344559359E+02 -0.83528167903E+03  0.90427760895E+03  0.91060116399E+02 0.  0.
          4    1    3    3  502    0 -0.99311870074E+02  0.29578316388E+03  0.14305322547E+03  0.34324153725E+03  0.00000000000E+00 0. -1.
         -3    1    3    3    0  502 -0.74733833340E+01  0.19777464353E+03  0.12575650063E+03  0.23448957020E+03  0.00000000000E+00 0.  1.
         13    1    5    5    0    0  0.42804516671E+03 -0.52337820819E+03 -0.15948656361E+04  0.17322655140E+04  0.00000000000E+00 0. -1.
        -13    1    5    5    0    0  0.11797366898E+02  0.14758414109E+01 -0.37427713019E+02  0.39270722879E+02  0.00000000000E+00 0.  1.
          1    1    6    6  503    0 -0.25524149700E+03  0.18707310076E+02 -0.52241502063E+03  0.58173502475E+03  0.00000000000E+00 0. -1.
         -1    1    6    6    0  503 -0.77815783198E+02  0.96372492824E+01 -0.31286665840E+03  0.32254258420E+03  0.00000000000E+00 0.  1.
<mgrwt>
<rscale>  0 0.23981213E+04</rscale>
<asrwt>0</asrwt>
<pdfrwt beam="1">  1        2 0.41940847E+00 0.23981213E+04</pdfrwt>
<pdfrwt beam="2">  1       -1 0.81136898E-01 0.23981213E+04</pdfrwt>
<totfact> 0.39667633E+00</totfact>
</mgrwt>
</event>
<event>
12    7  0.1637954E-007  0.2027617E+04  0.7818608E-02  0.8593817E-01
          2   -1    0    0  501    0  0.00000000000E+00  0.00000000000E+00  0.91658257753E+03  0.91658257753E+03  0.00000000000E+00 0. -1.
         -1   -1    0    0    0  501 -0.00000000000E+00 -0.00000000000E+00 -0.11213471260E+04  0.11213471260E+04  0.00000000000E+00 0.  1.
         24    2    1    2    0    0 -0.26809572263E+03  0.33964438833E+03  0.60870700909E+03  0.75112444794E+03  0.80187819304E+02 0.  0.
        254    2    1    2    0    0  0.26809572263E+03 -0.33964438833E+03 -0.81347155757E+03  0.12868052556E+04  0.89827510476E+03 0.  0.
         23    2    4    4    0    0 -0.19218091750E+02 -0.59406433133E+03 -0.47417063277E+03  0.76576142190E+03  0.90945046498E+02 0.  0.
         23    2    4    4    0    0  0.28731381438E+03  0.25441994300E+03 -0.33930092480E+03  0.52104383369E+03  0.95303849456E+02 0.  0.
          4    1    3    3  502    0 -0.17695160046E+03  0.18888546848E+03  0.41674423782E+03  0.49057654740E+03  0.00000000000E+00 0. -1.
         -3    1    3    3    0  502 -0.91144122171E+02  0.15075891985E+03  0.19196277127E+03  0.26054790054E+03  0.00000000000E+00 0.  1.
         13    1    5    5    0    0 -0.29833908740E+02 -0.58766849771E+03 -0.45967374428E+03  0.74668887530E+03  0.00000000000E+00 0. -1.
        -13    1    5    5    0    0  0.10615816990E+02 -0.63958336175E+01 -0.14496888493E+02  0.19072546605E+02  0.00000000000E+00 0.  1.
          1    1    6    6  503    0  0.15310576550E+03  0.13152462201E+03 -0.11534052222E+03  0.23247266009E+03  0.00000000000E+00 0. -1.
         -1    1    6    6    0  503  0.13420804888E+03  0.12289532099E+03 -0.22396040258E+03  0.28857117359E+03  0.00000000000E+00 0.  1.
<mgrwt>
<rscale>  0 0.20276166E+04</rscale>
<asrwt>0</asrwt>
<pdfrwt beam="1">  1        2 0.14101270E+00 0.20276166E+04</pdfrwt>
<pdfrwt beam="2">  1       -1 0.17251494E+00 0.20276166E+04</pdfrwt>
<totfact> 0.71271963E+00</totfact>
</mgrwt>
</event>
<event>
12    7  0.1637954E-007  0.1405032E+04  0.7818608E-02  0.8950184E-01
         -3   -1    0    0    0  501 -0.00000000000E+00  0.00000000000E+00  0.34509341088E+03  0.34509341088E+03  0.00000000000E+00 0.  1.
          2   -1    0    0  501    0  0.00000000000E+00 -0.00000000000E+00 -0.14301315571E+04  0.14301315571E+04  0.00000000000E+00 0. -1.
         24    2    1    2    0    0 -0.29917472887E+03 -0.47827274831E+02  0.17661713424E+02  0.31380435860E+03  0.79801458282E+02 0.  0.
        254    2    1    2    0    0  0.29917472887E+03  0.47827274831E+02 -0.11026998596E+04  0.14614206094E+04  0.90995068573E+03 0.  0.
         23    2    4    4    0    0  0.42473368709E+03 -0.88674344171E+02 -0.11637911635E+04  0.12453183144E+04  0.90255125446E+02 0.  0.
         23    2    4    4    0    0 -0.12555895822E+03  0.13650161900E+03  0.61091303823E+02  0.21610229502E+03  0.92575971668E+02 0.  0.
          4    1    3    3  502    0 -0.16678266846E+02  0.32146094899E+01  0.20624709127E+02  0.26718475363E+02  0.00000000000E+00 0. -1.
         -3    1    3    3    0  502 -0.28249646202E+03 -0.51041884321E+02 -0.29629957028E+01  0.28708588324E+03  0.00000000000E+00 0.  1.
         13    1    5    5    0    0  0.50633813885E+02 -0.38949091093E+02 -0.13123730589E+03  0.14595905338E+03  0.00000000000E+00 0.  1.
        -13    1    5    5    0    0  0.37409987320E+03 -0.49725253077E+02 -0.10325538576E+04  0.10993592610E+04  0.00000000000E+00 0. -1.
          4    1    6    6  503    0 -0.10623242451E+03  0.13742039023E+03  0.25451320943E+02  0.17554902850E+03  0.00000000000E+00 0. -1.
         -4    1    6    6    0  503 -0.19326533712E+02 -0.91877123155E+00  0.35639982879E+02  0.40553266521E+02  0.00000000000E+00 0.  1.
<mgrwt>
<rscale>  0 0.14050324E+04</rscale>
<asrwt>0</asrwt>
<pdfrwt beam="1">  1        2 0.22002024E+00 0.14050324E+04</pdfrwt>
<pdfrwt beam="2">  1       -3 0.53091294E-01 0.14050324E+04</pdfrwt>
<totfact> 0.30351206E+01</totfact>
</mgrwt>
</event>
<event>
12    7  0.1637954E-007  0.1310504E+04  0.7818608E-02  0.9021276E-01
          2   -1    0    0  501    0  0.00000000000E+00  0.00000000000E+00  0.17461299079E+04  0.17461299079E+04  0.00000000000E+00 0. -1.
         -1   -1    0    0    0  501 -0.00000000000E+00 -0.00000000000E+00 -0.24588972522E+03  0.24588972522E+03  0.00000000000E+00 0.  1.
         24    2    1    2    0    0 -0.18367372048E+02  0.13821007903E+03  0.87685236006E+03  0.89160822175E+03  0.81582923701E+02 0.  0.
        254    2    1    2    0    0  0.18367372048E+02 -0.13821007903E+03  0.62338782261E+03  0.11004114114E+04  0.89602093200E+03 0.  0.
         23    2    4    4    0    0 -0.17481564894E+03  0.40060916513E+02 -0.16731510892E+03  0.26178033482E+03  0.91483385823E+02 0.  0.
         23    2    4    4    0    0  0.19318302098E+03 -0.17827099555E+03  0.79070293153E+03  0.83863107655E+03  0.94819455681E+02 0.  0.
          2    1    3    3  502    0  0.19235267950E+02  0.29914897344E+02  0.38194538847E+03  0.38359767516E+03  0.00000000000E+00 0. -1.
         -1    1    3    3    0  502 -0.37602639999E+02  0.10829518169E+03  0.49490697159E+03  0.50801054658E+03  0.00000000000E+00 0.  1.
         13    1    5    5    0    0 -0.18035073693E+03  0.26533401896E+02 -0.13669502439E+03  0.22785069546E+03  0.00000000000E+00 0. -1.
        -13    1    5    5    0    0  0.55350879943E+01  0.13527514618E+02 -0.30620084526E+02  0.33929639362E+02  0.00000000000E+00 0.  1.
          4    1    6    6  503    0  0.19495917761E+03 -0.15591310303E+03  0.65255683595E+03  0.69867617734E+03  0.00000000000E+00 0. -1.
         -4    1    6    6    0  503 -0.17761566268E+01 -0.22357892513E+02  0.13814609557E+03  0.13995489921E+03  0.00000000000E+00 0.  1.
<mgrwt>
<rscale>  0 0.13105043E+04</rscale>
<asrwt>0</asrwt>
<pdfrwt beam="1">  1        2 0.26863536E+00 0.13105043E+04</pdfrwt>
<pdfrwt beam="2">  1       -1 0.37829190E-01 0.13105043E+04</pdfrwt>
<totfact> 0.69562358E+01</totfact>
</mgrwt>
</event>
<event>
12    7  0.1637954E-007  0.1424836E+04  0.7818608E-02  0.8936035E-01
         -1   -1    0    0    0  501 -0.00000000000E+00  0.00000000000E+00  0.34063206243E+03  0.34063206243E+03  0.00000000000E+00 0.  1.
          2   -1    0    0  501    0  0.00000000000E+00 -0.00000000000E+00 -0.14899928317E+04  0.14899928317E+04  0.00000000000E+00 0. -1.
         24    2    1    2    0    0  0.10064458810E+03 -0.41407484594E+03 -0.39199496274E+03  0.58434776140E+03  0.78834917936E+02 0.  0.
        254    2    1    2    0    0 -0.10064458810E+03  0.41407484594E+03 -0.75736580649E+03  0.12462771327E+04  0.89331764534E+03 0.  0.
         23    2    4    4    0    0 -0.45020124217E+03  0.39134388517E+03 -0.60325105771E+03  0.85317522242E+03  0.90359983464E+02 0.  0.
         23    2    4    4    0    0  0.34955665407E+03  0.22730960768E+02 -0.15411474878E+03  0.39310191027E+03  0.89839885835E+02 0.  0.
          2    1    3    3  502    0  0.10343610713E+03 -0.41585545452E+03 -0.39235909442E+03  0.58101673495E+03  0.00000000000E+00 0. -1.
         -1    1    3    3    0  502 -0.27915190219E+01  0.17806085789E+01  0.36413168347E+00  0.33310264550E+01  0.00000000000E+00 0.  1.
         13    1    5    5    0    0 -0.30684765849E+02  0.18613201765E+02 -0.11601421653E+02  0.37717358332E+02  0.00000000000E+00 0. -1.
        -13    1    5    5    0    0 -0.41951647632E+03  0.37273068341E+03 -0.59164963606E+03  0.81545786409E+03  0.00000000000E+00 0.  1.
          3    1    6    6  503    0  0.14823087558E+02  0.86127529250E+01 -0.32382702252E+02  0.36640726560E+02  0.00000000000E+00 0. -1.
         -3    1    6    6    0  503  0.33473356651E+03  0.14118207843E+02 -0.12173204653E+03  0.35646118371E+03  0.00000000000E+00 0.  1.
<mgrwt>
<rscale>  0 0.14248359E+04</rscale>
<asrwt>0</asrwt>
<pdfrwt beam="1">  1        2 0.22922966E+00 0.14248359E+04</pdfrwt>
<pdfrwt beam="2">  1       -1 0.52404934E-01 0.14248359E+04</pdfrwt>
<totfact> 0.52224682E+01</totfact>
</mgrwt>
</event>
<event>
12    7  0.1637954E-007  0.1379656E+04  0.7818608E-02  0.8968678E-01
          2   -1    0    0  501    0  0.00000000000E+00  0.00000000000E+00  0.17303955775E+04  0.17303955775E+04  0.00000000000E+00 0. -1.
         -1   -1    0    0    0  501 -0.00000000000E+00 -0.00000000000E+00 -0.27500223678E+03  0.27500223678E+03  0.00000000000E+00 0.  1.
         24    2    1    2    0    0  0.27867163054E+03  0.10422716651E+03  0.79203377492E+03  0.85002292944E+03  0.81855360551E+02 0.  0.
        254    2    1    2    0    0 -0.27867163054E+03 -0.10422716651E+03  0.66335956581E+03  0.11553748848E+04  0.89795547277E+03 0.  0.
         23    2    4    4    0    0  0.20029629716E+02  0.26591007269E+03  0.60525038946E+03  0.66765170619E+03  0.91221784744E+02 0.  0.
         23    2    4    4    0    0 -0.29870126025E+03 -0.37013723920E+03  0.58109176347E+02  0.48772317865E+03  0.90957154180E+02 0.  0.
          2    1    3    3  502    0  0.16262487857E+03  0.38038725369E+02  0.53320311319E+03  0.55874802521E+03  0.00000000000E+00 0. -1.
         -1    1    3    3    0  502  0.11604675197E+03  0.66188441138E+02  0.25883066173E+03  0.29127490423E+03  0.00000000000E+00 0.  1.
         13    1    5    5    0    0 -0.10540990471E+02 -0.19364460384E+01  0.12428563088E+02  0.16411321818E+02  0.00000000000E+00 0. -1.
        -13    1    5    5    0    0  0.30570620187E+02  0.26784651873E+03  0.59282182637E+03  0.65124038438E+03  0.00000000000E+00 0.  1.
          1    1    6    6  503    0 -0.64805797844E+02 -0.29939545498E+02  0.99737107500E+01  0.72080806911E+02  0.00000000000E+00 0. -1.
         -1    1    6    6    0  503 -0.23389546241E+03 -0.34019769370E+03  0.48135465597E+02  0.41564237174E+03  0.00000000000E+00 0.  1.
<mgrwt>
<rscale>  0 0.13796560E+04</rscale>
<asrwt>0</asrwt>
<pdfrwt beam="1">  1        2 0.26621470E+00 0.13796560E+04</pdfrwt>
<pdfrwt beam="2">  1       -1 0.42308038E-01 0.13796560E+04</pdfrwt>
<totfact> 0.57533527E+01</totfact>
</mgrwt>
</event>
<event>
12    7  0.1637954E-007  0.2003168E+04  0.7818608E-02  0.8605141E-01
          2   -1    0    0  501    0  0.00000000000E+00  0.00000000000E+00  0.14093794332E+04  0.14093794332E+04  0.00000000000E+00 0. -1.
         -3   -1    0    0    0  501 -0.00000000000E+00 -0.00000000000E+00 -0.71178142701E+03  0.71178142701E+03  0.00000000000E+00 0.  1.
         24    2    1    2    0    0 -0.10214674161E+02 -0.78160594426E+03  0.12944276295E+03  0.79624906721E+03  0.79025037077E+02 0.  0.
        254    2    1    2    0    0  0.10214674161E+02  0.78160594426E+03  0.56815524328E+03  0.13249117930E+04  0.90640977886E+03 0.  0.
         23    2    4    4    0    0  0.28479514851E+03  0.79734269628E+03  0.23371402496E+03  0.88232898700E+03  0.83776750484E+02 0.  0.
         23    2    4    4    0    0 -0.27458047435E+03 -0.15736752024E+02  0.33444121832E+03  0.44258280603E+03  0.91577996432E+02 0.  0.
          4    1    3    3  502    0 -0.40925399450E+01 -0.20916766309E+03  0.70428577828E+02  0.22074429719E+03  0.00000000000E+00 0. -1.
         -3    1    3    3    0  502 -0.61221342158E+01 -0.57243828117E+03  0.59014185126E+02  0.57550477002E+03  0.00000000000E+00 0.  1.
         13    1    5    5    0    0  0.10531971382E+02  0.11316783384E+03  0.27777595041E+02  0.11700203342E+03  0.00000000000E+00 0.  1.
        -13    1    5    5    0    0  0.27426317712E+03  0.68417486244E+03  0.20593642992E+03  0.76532695359E+03  0.00000000000E+00 0. -1.
          3    1    6    6  503    0 -0.20827619483E+03 -0.19120427667E+02  0.30531667569E+03  0.37008490450E+03  0.00000000000E+00 0. -1.
         -3    1    6    6    0  503 -0.66304279517E+02  0.33836756424E+01  0.29124542628E+02  0.72497901531E+02  0.00000000000E+00 0.  1.
<mgrwt>
<rscale>  0 0.20031676E+04</rscale>
<asrwt>0</asrwt>
<pdfrwt beam="1">  1        2 0.21682760E+00 0.20031676E+04</pdfrwt>
<pdfrwt beam="2">  1       -3 0.10950484E+00 0.20031676E+04</pdfrwt>
<totfact> 0.59452873E+00</totfact>
</mgrwt>
</event>
<event>
12    7  0.1637954E-007  0.1439819E+04  0.7818608E-02  0.8925489E-01
          2   -1    0    0  501    0  0.00000000000E+00  0.00000000000E+00  0.26334365094E+04  0.26334365094E+04  0.00000000000E+00 0. -1.
         -1   -1    0    0    0  501 -0.00000000000E+00 -0.00000000000E+00 -0.19680360297E+03  0.19680360297E+03  0.00000000000E+00 0.  1.
         24    2    1    2    0    0 -0.74672149986E+02 -0.59780711813E+02  0.15855630955E+04  0.15903517940E+04  0.77838520587E+02 0.  0.
        254    2    1    2    0    0  0.74672149986E+02  0.59780711813E+02  0.85106981090E+03  0.12398883184E+04  0.89657880608E+03 0.  0.
         23    2    4    4    0    0  0.32429519616E+03  0.25183229997E+03  0.11803404029E+03  0.43684973656E+03  0.91207324846E+02 0.  0.
         23    2    4    4    0    0 -0.24962304617E+03 -0.19205158816E+03  0.73303577061E+03  0.80303858181E+03  0.91290991812E+02 0.  0.
          4    1    3    3  502    0 -0.53305385188E+02 -0.73600818649E+02  0.96567580047E+03  0.96994241902E+03  0.00000000000E+00 0. -1.
         -3    1    3    3    0  502 -0.21366764799E+02  0.13820106836E+02  0.61988729504E+03  0.62040937496E+03  0.00000000000E+00 0.  1.
         13    1    5    5    0    0  0.28462642971E+03  0.23574413767E+03  0.13102305264E+03  0.39211547185E+03  0.00000000000E+00 0.  1.
        -13    1    5    5    0    0  0.39668766449E+02  0.16088162296E+02 -0.12989012352E+02  0.44734264715E+02  0.00000000000E+00 0. -1.
          1    1    6    6  503    0 -0.16412128163E+03 -0.10848604130E+03  0.55270835997E+03  0.58667840204E+03  0.00000000000E+00 0. -1.
         -1    1    6    6    0  503 -0.85501764540E+02 -0.83565546856E+02  0.18032741064E+03  0.21636017977E+03  0.00000000000E+00 0.  1.
<mgrwt>
<rscale>  0 0.14398191E+04</rscale>
<asrwt>0</asrwt>
<pdfrwt beam="1">  1        2 0.40514405E+00 0.14398191E+04</pdfrwt>
<pdfrwt beam="2">  1       -1 0.30277479E-01 0.14398191E+04</pdfrwt>
<totfact> 0.32416182E+01</totfact>
</mgrwt>
</event>
<event>
12    7  0.1637954E-007  0.1355711E+04  0.7818608E-02  0.8986516E-01
         -1   -1    0    0    0  501 -0.00000000000E+00  0.00000000000E+00  0.12994667149E+04  0.12994667149E+04  0.00000000000E+00 0.  1.
          2   -1    0    0  501    0  0.00000000000E+00 -0.00000000000E+00 -0.35359752074E+03  0.35359752074E+03  0.00000000000E+00 0. -1.
         24    2    1    2    0    0  0.18965970938E+03 -0.14213895167E+03 -0.88782248526E+02  0.26527931899E+03  0.79476678885E+02 0.  0.
        254    2    1    2    0    0 -0.18965970938E+03  0.14213895167E+03  0.10346514427E+04  0.13877849167E+04  0.89401850098E+03 0.  0.
         23    2    4    4    0    0 -0.42510535910E+03  0.13319128866E+03  0.16828449276E+03  0.48446935697E+03  0.89086484018E+02 0.  0.
         23    2    4    4    0    0  0.23544564972E+03  0.89476630087E+01  0.86636694995E+03  0.90331555970E+03  0.99360926813E+02 0.  0.
          2    1    3    3  502    0  0.18023331241E+03 -0.12280187559E+03 -0.54487683340E+02  0.22479603018E+03  0.00000000000E+00 0. -1.
         -1    1    3    3    0  502  0.94263969672E+01 -0.19337076078E+02 -0.34294565186E+02  0.40483288804E+02  0.00000000000E+00 0.  1.
         13    1    5    5    0    0 -0.34525889020E+03  0.10554291283E+03  0.17196006637E+03  0.39989157548E+03  0.00000000000E+00 0. -1.
        -13    1    5    5    0    0 -0.79846468893E+02  0.27648375829E+02 -0.36755736146E+01  0.84577781492E+02  0.00000000000E+00 0.  1.
          1    1    6    6  503    0  0.24080536429E+03  0.19187351835E+01  0.77573200584E+03  0.81225060782E+03  0.00000000000E+00 0. -1.
         -1    1    6    6    0  503 -0.53597145712E+01  0.70289278252E+01  0.90634944110E+02  0.91064951877E+02  0.00000000000E+00 0.  1.
<mgrwt>
<rscale>  0 0.13557112E+04</rscale>
<asrwt>0</asrwt>
<pdfrwt beam="1">  1        2 0.54399619E-01 0.13557112E+04</pdfrwt>
<pdfrwt beam="2">  1       -1 0.19991795E+00 0.13557112E+04</pdfrwt>
<totfact> 0.15388407E+01</totfact>
</mgrwt>
</event>
<event>
12    7  0.1637954E-007  0.4459230E+04  0.7818608E-02  0.7917814E-01
          2   -1    0    0  501    0  0.00000000000E+00  0.00000000000E+00  0.35832007455E+04  0.35832007455E+04  0.00000000000E+00 0. -1.
         -1   -1    0    0    0  501 -0.00000000000E+00 -0.00000000000E+00 -0.13873580683E+04  0.13873580683E+04  0.00000000000E+00 0.  1.
         24    2    1    2    0    0 -0.88122701437E+03 -0.41495135870E+03 -0.10682829647E+04  0.14478674321E+04  0.79661328316E+02 0.  0.
        254    2    1    2    0    0  0.88122701437E+03  0.41495135870E+03  0.32641256419E+04  0.35226913817E+04  0.89782664448E+03 0.  0.
         23    2    4    4    0    0  0.29549459098E+03 -0.18084281120E+03  0.39296535053E+03  0.53111088832E+03  0.87383255343E+02 0.  0.
         23    2    4    4    0    0  0.58573242339E+03  0.59579416989E+03  0.28711602913E+04  0.29915804933E+04  0.89102552365E+02 0.  0.
          2    1    3    3  502    0 -0.16386234701E+03 -0.11241437904E+03 -0.21332885073E+03  0.29154255253E+03  0.00000000000E+00 0. -1.
         -1    1    3    3    0  502 -0.71736466736E+03 -0.30253697966E+03 -0.85495411396E+03  0.11563248795E+04  0.00000000000E+00 0.  1.
         13    1    5    5    0    0 -0.25205996244E+01 -0.16607204192E+02  0.22659961537E+02  0.28206852189E+02  0.00000000000E+00 0. -1.
        -13    1    5    5    0    0  0.29801519061E+03 -0.16423560701E+03  0.37030538899E+03  0.50290403613E+03  0.00000000000E+00 0.  1.
          1    1    6    6  503    0  0.27199683656E+03  0.25914689688E+03  0.11403410888E+04  0.12006319970E+04  0.00000000000E+00 0. -1.
         -1    1    6    6    0  503  0.31373558683E+03  0.33664727302E+03  0.17308192025E+04  0.17909484964E+04  0.00000000000E+00 0.  1.
<mgrwt>
<rscale>  0 0.44592297E+04</rscale>
<asrwt>0</asrwt>
<pdfrwt beam="1">  1        2 0.55126165E+00 0.44592297E+04</pdfrwt>
<pdfrwt beam="2">  1       -1 0.21343970E+00 0.44592297E+04</pdfrwt>
<totfact> 0.74454050E-02</totfact>
</mgrwt>
</event>
<event>
12    7  0.1637954E-007  0.1494175E+04  0.7818608E-02  0.8888336E-01
         -1   -1    0    0    0  501 -0.00000000000E+00  0.00000000000E+00  0.46724404720E+03  0.46724404720E+03  0.00000000000E+00 0.  1.
          2   -1    0    0  501    0  0.00000000000E+00 -0.00000000000E+00 -0.11945351992E+04  0.11945351992E+04  0.00000000000E+00 0. -1.
         24    2    1    2    0    0 -0.67965940827E+02 -0.27756501149E+03  0.18682681825E+03  0.35035739031E+03  0.78640550677E+02 0.  0.
        254    2    1    2    0    0  0.67965940827E+02  0.27756501149E+03 -0.91411797029E+03  0.13114218561E+04  0.89585373605E+03 0.  0.
         23    2    4    4    0    0 -0.22370983472E+03 -0.23734676699E+03 -0.27939495688E+03  0.43874503583E+03  0.89755705055E+02 0.  0.
         23    2    4    4    0    0  0.29167577554E+03  0.51491177848E+03 -0.63472301341E+03  0.87267682029E+03  0.92101201200E+02 0.  0.
          4    1    3    3  502    0  0.81701206847E+01 -0.23300285821E+02 -0.17728499259E+01  0.24754740722E+02  0.00000000000E+00 0. -1.
         -3    1    3    3    0  502 -0.76136061511E+02 -0.25426472566E+03  0.18859966818E+03  0.32560264959E+03  0.00000000000E+00 0.  1.
         13    1    5    5    0    0 -0.13292850495E+03 -0.18741724360E+03 -0.22558064418E+03  0.32199664231E+03  0.00000000000E+00 0.  1.
        -13    1    5    5    0    0 -0.90781329766E+02 -0.49929523393E+02 -0.53814312691E+02  0.11674839353E+03  0.00000000000E+00 0. -1.
          3    1    6    6  503    0  0.31702584089E+02  0.84801106414E+02 -0.14510138037E+03  0.17102833704E+03  0.00000000000E+00 0. -1.
         -3    1    6    6    0  503  0.25997319146E+03  0.43011067206E+03 -0.48962163304E+03  0.70164848325E+03  0.00000000000E+00 0.  1.
<mgrwt>
<rscale>  0 0.14941746E+04</rscale>
<asrwt>0</asrwt>
<pdfrwt beam="1">  1        2 0.18377464E+00 0.14941746E+04</pdfrwt>
<pdfrwt beam="2">  1       -1 0.71883700E-01 0.14941746E+04</pdfrwt>
<totfact> 0.41087454E+01</totfact>
</mgrwt>
</event>
<event>
12    7  0.1637954E-007  0.2904757E+04  0.7818608E-02  0.8271464E-01
         -1   -1    0    0    0  501 -0.00000000000E+00  0.00000000000E+00  0.91206005380E+03  0.91206005380E+03  0.00000000000E+00 0.  1.
          2   -1    0    0  501    0  0.00000000000E+00 -0.00000000000E+00 -0.23127893907E+04  0.23127893907E+04  0.00000000000E+00 0. -1.
         24    2    1    2    0    0  0.10426879067E+04  0.46788652047E+03  0.81959330721E+02  0.11485608567E+04  0.79742352539E+02 0.  0.
        254    2    1    2    0    0 -0.10426879067E+04 -0.46788652047E+03 -0.14826886676E+04  0.20762885878E+04  0.89804941279E+03 0.  0.
         23    2    4    4    0    0 -0.73176477694E+03  0.14831959955E+03 -0.68307357696E+03  0.10161357111E+04  0.91999344614E+02 0.  0.
         23    2    4    4    0    0 -0.31092312980E+03 -0.61620612002E+03 -0.79961509066E+03  0.10601528767E+04  0.90314194853E+02 0.  0.
          4    1    3    3  502    0  0.24445571782E+01  0.74060361808E+01 -0.13209039557E+01  0.79101212993E+01  0.00000000000E+00 0. -1.
         -3    1    3    3    0  502  0.10402433496E+04  0.46048048429E+03  0.83280234677E+02  0.11406507354E+04  0.00000000000E+00 0.  1.
         13    1    5    5    0    0 -0.13963451985E+03  0.14308333653E+02 -0.17603004514E+03  0.22514240902E+03  0.00000000000E+00 0.  1.
        -13    1    5    5    0    0 -0.59213025709E+03  0.13401126590E+03 -0.50704353182E+03  0.79099330206E+03  0.00000000000E+00 0. -1.
          2    1    6    6  503    0 -0.31424145497E+03 -0.60079508021E+03 -0.79220900940E+03  0.10427356017E+04  0.00000000000E+00 0. -1.
         -2    1    6    6    0  503  0.33183251727E+01 -0.15411039817E+02 -0.74060812634E+01  0.17417275041E+02  0.00000000000E+00 0.  1.
<mgrwt>
<rscale>  0 0.29047567E+04</rscale>
<asrwt>0</asrwt>
<pdfrwt beam="1">  1        2 0.35581375E+00 0.29047567E+04</pdfrwt>
<pdfrwt beam="2">  1       -1 0.14031693E+00 0.29047567E+04</pdfrwt>
<totfact> 0.18220194E+00</totfact>
</mgrwt>
</event>
<event>
12    7  0.1637954E-007  0.3056684E+04  0.7818608E-02  0.8227727E-01
          2   -1    0    0  501    0  0.00000000000E+00  0.00000000000E+00  0.11874498100E+04  0.11874498100E+04  0.00000000000E+00 0. -1.
         -1   -1    0    0    0  501 -0.00000000000E+00 -0.00000000000E+00 -0.19670977268E+04  0.19670977268E+04  0.00000000000E+00 0.  1.
         24    2    1    2    0    0  0.35389741906E+03  0.10633774730E+04 -0.11866542459E+04  0.16346061642E+04  0.88170173661E+02 0.  0.
        254    2    1    2    0    0 -0.35389741906E+03 -0.10633774730E+04  0.40700632906E+03  0.15199413726E+04  0.94263067576E+03 0.  0.
         23    2    4    4    0    0 -0.29274221727E+03 -0.93211442210E+03 -0.98614667907E+02  0.98624496210E+03  0.91754950208E+02 0.  0.
         23    2    4    4    0    0 -0.61155201792E+02 -0.13126305087E+03  0.50562099697E+03  0.53369641046E+03  0.90605290848E+02 0.  0.
          4    1    3    3  502    0  0.86370849225E+02  0.16099512333E+03 -0.17964086737E+03  0.25622293918E+03  0.00000000000E+00 0. -1.
         -3    1    3    3    0  502  0.26752656984E+03  0.90238234964E+03 -0.10070133785E+04  0.13783832250E+04  0.00000000000E+00 0.  1.
         13    1    5    5    0    0 -0.14946015159E+03 -0.49834379521E+03 -0.97994521058E+02  0.52942213903E+03  0.00000000000E+00 0. -1.
        -13    1    5    5    0    0 -0.14328206568E+03 -0.43377062689E+03 -0.62014684883E+00  0.45682282307E+03  0.00000000000E+00 0.  1.
          1    1    6    6  503    0 -0.68976501478E+02 -0.13188004952E+03  0.38415265399E+03  0.41197495893E+03  0.00000000000E+00 0. -1.
         -1    1    6    6    0  503  0.78212996857E+01  0.61699864779E+00  0.12146834298E+03  0.12172145153E+03  0.00000000000E+00 0.  1.
<mgrwt>
<rscale>  0 0.30566844E+04</rscale>
<asrwt>0</asrwt>
<pdfrwt beam="1">  1        2 0.18268459E+00 0.30566844E+04</pdfrwt>
<pdfrwt beam="2">  1       -1 0.30263042E+00 0.30566844E+04</pdfrwt>
<totfact> 0.59392462E-01</totfact>
</mgrwt>
</event>
<event>
12    7  0.1637954E-007  0.1952218E+04  0.7818608E-02  0.8629292E-01
          2   -1    0    0  501    0  0.00000000000E+00  0.00000000000E+00  0.23852443091E+04  0.23852443091E+04  0.00000000000E+00 0. -1.
         -1   -1    0    0    0  501 -0.00000000000E+00 -0.00000000000E+00 -0.39945119753E+03  0.39945119753E+03  0.00000000000E+00 0.  1.
         24    2    1    2    0    0  0.69494090153E+02  0.74352627564E+03  0.51383871754E+03  0.90984093382E+03  0.78227527599E+02 0.  0.
        254    2    1    2    0    0 -0.69494090153E+02 -0.74352627564E+03  0.14719543941E+04  0.18748545729E+04  0.88925203402E+03 0.  0.
         23    2    4    4    0    0  0.30282467496E+03 -0.70859837437E+03  0.96542949291E+03  0.12387935961E+04  0.93493465285E+02 0.  0.
         23    2    4    4    0    0 -0.37231876512E+03 -0.34927901273E+02  0.50652490116E+03  0.63606097675E+03  0.90359667464E+02 0.  0.
          4    1    3    3  502    0  0.38500095690E+02  0.45963557438E+03  0.27093990036E+03  0.53493508785E+03  0.00000000000E+00 0. -1.
         -3    1    3    3    0  502  0.30993994463E+02  0.28389070126E+03  0.24289881718E+03  0.37490584597E+03  0.00000000000E+00 0.  1.
         13    1    5    5    0    0  0.15394399440E+03 -0.46333791050E+03  0.63943621599E+03  0.80452436075E+03  0.00000000000E+00 0. -1.
        -13    1    5    5    0    0  0.14888068056E+03 -0.24526046387E+03  0.32599327692E+03  0.43426923536E+03  0.00000000000E+00 0.  1.
          2    1    6    6  503    0 -0.33124423255E+03 -0.82124556980E+00  0.43161531561E+03  0.54407278623E+03  0.00000000000E+00 0. -1.
         -2    1    6    6    0  503 -0.41074532568E+02 -0.34106655703E+02  0.74909585548E+02  0.91988190524E+02  0.00000000000E+00 0.  1.
<mgrwt>
<rscale>  0 0.19522179E+04</rscale>
<asrwt>0</asrwt>
<pdfrwt beam="1">  1        2 0.36696065E+00 0.19522179E+04</pdfrwt>
<pdfrwt beam="2">  1       -1 0.61454032E-01 0.19522179E+04</pdfrwt>
<totfact> 0.11563450E+01</totfact>
</mgrwt>
</event>
<event>
12    7  0.1637954E-007  0.5933509E+04  0.7818608E-02  0.7698701E-01
          2   -1    0    0  501    0  0.00000000000E+00  0.00000000000E+00  0.28555964993E+04  0.28555964993E+04  0.00000000000E+00 0. -1.
         -1   -1    0    0    0  501 -0.00000000000E+00 -0.00000000000E+00 -0.30822397029E+04  0.30822397029E+04  0.00000000000E+00 0.  1.
         24    2    1    2    0    0 -0.41914794778E+03 -0.21032228056E+04  0.18264512293E+04  0.28180760924E+04  0.79984981388E+02 0.  0.
        254    2    1    2    0    0  0.41914794778E+03  0.21032228056E+04 -0.20530944330E+04  0.31197601098E+04  0.95837112854E+03 0.  0.
         23    2    4    4    0    0  0.48068581943E+03  0.18265001181E+04 -0.12595643669E+04  0.22720408790E+04  0.92227020485E+02 0.  0.
         23    2    4    4    0    0 -0.61537871652E+02  0.27672268755E+03 -0.79353006603E+03  0.84771923079E+03  0.92604390237E+02 0.  0.
          4    1    3    3  502    0 -0.38652459862E+03 -0.19295459072E+04  0.17037132251E+04  0.26029190203E+04  0.00000000000E+00 0. -1.
         -3    1    3    3    0  502 -0.32623349156E+02 -0.17367689845E+03  0.12273800426E+03  0.21515707205E+03  0.00000000000E+00 0.  1.
         13    1    5    5    0    0  0.12157127973E+03  0.47358905955E+03 -0.37521713094E+03  0.61632302304E+03  0.00000000000E+00 0. -1.
        -13    1    5    5    0    0  0.35911453970E+03  0.13529110585E+04 -0.88434723599E+03  0.16557178560E+04  0.00000000000E+00 0.  1.
          3    1    6    6  503    0 -0.87334415484E+01 -0.42804572525E+01 -0.11510302176E+02  0.15069252528E+02  0.00000000000E+00 0. -1.
         -3    1    6    6    0  503 -0.52804430103E+02  0.28100314480E+03 -0.78201976386E+03  0.83264997826E+03  0.00000000000E+00 0.  1.
<mgrwt>
<rscale>  0 0.59335092E+04</rscale>
<asrwt>0</asrwt>
<pdfrwt beam="1">  1        2 0.43932254E+00 0.59335092E+04</pdfrwt>
<pdfrwt beam="2">  1       -1 0.47419072E+00 0.59335092E+04</pdfrwt>
<totfact> 0.36655099E-03</totfact>
</mgrwt>
</event>
<event>
12    7  0.1637954E-007  0.1423460E+04  0.7818608E-02  0.8937010E-01
         -1   -1    0    0    0  501 -0.00000000000E+00  0.00000000000E+00  0.20820955331E+03  0.20820955331E+03  0.00000000000E+00 0.  1.
          2   -1    0    0  501    0  0.00000000000E+00 -0.00000000000E+00 -0.24329319821E+04  0.24329319821E+04  0.00000000000E+00 0. -1.
         24    2    1    2    0    0 -0.23590826427E+02  0.33165993315E+03 -0.11390129051E+04  0.11890138412E+04  0.76476650373E+02 0.  0.
        254    2    1    2    0    0  0.23590826427E+02 -0.33165993315E+03 -0.10857095237E+04  0.14521276943E+04  0.90518220945E+03 0.  0.
         23    2    4    4    0    0 -0.78971734329E+02  0.28125786702E+03 -0.19676827387E+03  0.36395922584E+03  0.91684469150E+02 0.  0.
         23    2    4    4    0    0  0.10256256076E+03 -0.61291780017E+03 -0.88894124980E+03  0.10881684684E+04  0.87788162327E+02 0.  0.
          4    1    3    3  502    0  0.96577529797E+01  0.17560329365E+03 -0.70485024704E+03  0.72645967519E+03  0.00000000000E+00 0. -1.
         -3    1    3    3    0  502 -0.33248579407E+02  0.15605663950E+03 -0.43416265811E+03  0.46255416598E+03  0.00000000000E+00 0.  1.
         13    1    5    5    0    0 -0.65107044120E+02  0.25023372726E+03 -0.13082993995E+03  0.28977977610E+03  0.00000000000E+00 0. -1.
        -13    1    5    5    0    0 -0.13864690209E+02  0.31024139768E+02 -0.65938333916E+02  0.74179449732E+02  0.00000000000E+00 0.  1.
          2    1    6    6  503    0  0.97826548231E+02 -0.33521693698E+03 -0.51997245238E+03  0.62634797007E+03  0.00000000000E+00 0.  1.
         -2    1    6    6    0  503  0.47360125254E+01 -0.27770086319E+03 -0.36896879742E+03  0.46182049835E+03  0.00000000000E+00 0. -1.
<mgrwt>
<rscale>  0 0.14234601E+04</rscale>
<asrwt>0</asrwt>
<pdfrwt beam="1">  1        2 0.37429721E+00 0.14234601E+04</pdfrwt>
<pdfrwt beam="2">  1       -1 0.32032241E-01 0.14234601E+04</pdfrwt>
<totfact> 0.38393266E+01</totfact>
</mgrwt>
</event>
<event>
12    7  0.1637954E-007  0.2131629E+04  0.7818608E-02  0.8547437E-01
          2   -1    0    0  501    0  0.00000000000E+00  0.00000000000E+00  0.11813193850E+04  0.11813193850E+04  0.00000000000E+00 0. -1.
         -1   -1    0    0    0  501 -0.00000000000E+00 -0.00000000000E+00 -0.96160342270E+03  0.96160342270E+03  0.00000000000E+00 0.  1.
         24    2    1    2    0    0 -0.46299351576E+03 -0.40996517017E+03  0.70848577394E+03  0.94378103860E+03  0.79599752203E+02 0.  0.
        254    2    1    2    0    0  0.46299351576E+03  0.40996517017E+03 -0.48876981165E+03  0.11991417691E+04  0.90366510235E+03 0.  0.
         23    2    4    4    0    0  0.42573828391E+03  0.36905628882E+03 -0.73539547150E+03  0.93143251817E+03  0.96459347310E+02 0.  0.
         23    2    4    4    0    0  0.37255231848E+02  0.40908881348E+02  0.24662565985E+03  0.26770925093E+03  0.88218694509E+02 0.  0.
          2    1    3    3  502    0 -0.46622970759E+03 -0.40867075027E+03  0.70531242272E+03  0.93906737565E+03  0.00000000000E+00 0. -1.
         -1    1    3    3    0  502  0.32361918282E+01 -0.12944199003E+01  0.31733512234E+01  0.47136629509E+01  0.00000000000E+00 0.  1.
         13    1    5    5    0    0  0.17990763851E+03  0.21236379147E+03 -0.39596413400E+03  0.48399662575E+03  0.00000000000E+00 0. -1.
        -13    1    5    5    0    0  0.24583064540E+03  0.15669249735E+03 -0.33943133751E+03  0.44743589242E+03  0.00000000000E+00 0.  1.
          4    1    6    6  503    0  0.61761369932E+02  0.87104521007E+01  0.16953520602E+03  0.18064474770E+03  0.00000000000E+00 0. -1.
         -4    1    6    6    0  503 -0.24506138085E+02  0.32198429248E+02  0.77090453832E+02  0.87064503226E+02  0.00000000000E+00 0.  1.
<mgrwt>
<rscale>  0 0.21316292E+04</rscale>
<asrwt>0</asrwt>
<pdfrwt beam="1">  1        2 0.18174144E+00 0.21316292E+04</pdfrwt>
<pdfrwt beam="2">  1       -1 0.14793899E+00 0.21316292E+04</pdfrwt>
<totfact> 0.73765529E+00</totfact>
</mgrwt>
</event>
<event>
12    7  0.1637954E-007  0.1732907E+04  0.7818608E-02  0.8742816E-01
         -1   -1    0    0    0  501 -0.00000000000E+00  0.00000000000E+00  0.13619693745E+04  0.13619693745E+04  0.00000000000E+00 0.  1.
          2   -1    0    0  501    0  0.00000000000E+00 -0.00000000000E+00 -0.55121745228E+03  0.55121745228E+03  0.00000000000E+00 0. -1.
         24    2    1    2    0    0  0.59794596605E+03  0.73918350958E+02  0.91465489270E+02  0.61508396679E+03  0.83420917946E+02 0.  0.
        254    2    1    2    0    0 -0.59794596605E+03 -0.73918350958E+02  0.71928643290E+03  0.12981028599E+04  0.89704780334E+03 0.  0.
         23    2    4    4    0    0 -0.46062657642E+03  0.99079243724E+02 -0.60383766227E+02  0.48222629212E+03  0.83081033616E+02 0.  0.
         23    2    4    4    0    0 -0.13731938964E+03 -0.17299759468E+03  0.77967019913E+03  0.81587656782E+03  0.94784872021E+02 0.  0.
          2    1    3    3  502    0  0.19081014430E+03  0.37237451017E+02  0.66760851116E+02  0.20555327817E+03  0.00000000000E+00 0. -1.
         -1    1    3    3    0  502  0.40713582175E+03  0.36680899941E+02  0.24704638154E+02  0.40953068862E+03  0.00000000000E+00 0.  1.
         13    1    5    5    0    0 -0.22191606207E+03  0.56289209522E+02 -0.70343164958E+02  0.23950652302E+03  0.00000000000E+00 0. -1.
        -13    1    5    5    0    0 -0.23871051435E+03  0.42790034201E+02  0.99593987314E+01  0.24271976910E+03  0.00000000000E+00 0.  1.
          2    1    6    6  503    0 -0.34966110842E+02 -0.12005807599E+03  0.41571084559E+03  0.43411067444E+03  0.00000000000E+00 0. -1.
         -2    1    6    6    0  503 -0.10235327879E+03 -0.52939518693E+02  0.36395935354E+03  0.38176589338E+03  0.00000000000E+00 0.  1.
<mgrwt>
<rscale>  0 0.17329066E+04</rscale>
<asrwt>0</asrwt>
<pdfrwt beam="1">  1        2 0.84802685E-01 0.17329066E+04</pdfrwt>
<pdfrwt beam="2">  1       -1 0.20953375E+00 0.17329066E+04</pdfrwt>
<totfact> 0.77096720E+00</totfact>
</mgrwt>
</event>
<event>
12    7  0.1637954E-007  0.2019088E+04  0.7818608E-02  0.8597748E-01
         -1   -1    0    0    0  501 -0.00000000000E+00  0.00000000000E+00  0.69306137857E+03  0.69306137857E+03  0.00000000000E+00 0.  1.
          2   -1    0    0  501    0  0.00000000000E+00 -0.00000000000E+00 -0.14705463113E+04  0.14705463113E+04  0.00000000000E+00 0. -1.
         24    2    1    2    0    0  0.84013104248E+02 -0.75297439093E+03  0.23767933386E+02  0.76222802313E+03  0.79987558430E+02 0.  0.
        254    2    1    2    0    0 -0.84013104248E+02  0.75297439093E+03 -0.80125286607E+03  0.14013796667E+04  0.86477175010E+03 0.  0.
         23    2    4    4    0    0 -0.27217494204E+02 -0.10582442984E+03 -0.44299309711E+03  0.46508147077E+03  0.90101545072E+02 0.  0.
         23    2    4    4    0    0 -0.56795610044E+02  0.85879882077E+03 -0.35825976896E+03  0.93629819592E+03  0.86850985918E+02 0.  0.
          2    1    3    3  502    0  0.33613410433E+02 -0.79520580598E+02 -0.26613239543E+01  0.86373993452E+02  0.00000000000E+00 0. -1.
         -3    1    3    3    0  502  0.50399693815E+02 -0.67345381033E+03  0.26429257340E+02  0.67585402968E+03  0.00000000000E+00 0.  1.
         13    1    5    5    0    0  0.31004035777E+02 -0.35357836510E+02 -0.10702534281E+03  0.11690103011E+03  0.00000000000E+00 0. -1.
        -13    1    5    5    0    0 -0.58221529981E+02 -0.70466593335E+02 -0.33596775430E+03  0.34818044066E+03  0.00000000000E+00 0.  1.
          4    1    6    6  503    0  0.14645896601E+02  0.39870333491E+03 -0.15004344618E+03  0.42625331353E+03  0.00000000000E+00 0. -1.
         -4    1    6    6    0  503 -0.71441506645E+02  0.46009548587E+03 -0.20821632277E+03  0.51004488239E+03  0.00000000000E+00 0.  1.
<mgrwt>
<rscale>  0 0.20190878E+04</rscale>
<asrwt>0</asrwt>
<pdfrwt beam="1">  1        2 0.22623789E+00 0.20190878E+04</pdfrwt>
<pdfrwt beam="2">  1       -1 0.10662483E+00 0.20190878E+04</pdfrwt>
<totfact> 0.11451475E+01</totfact>
</mgrwt>
</event>
<event>
12    7  0.1637954E-007  0.1371945E+04  0.7818608E-02  0.8974381E-01
         -1   -1    0    0    0  501 -0.00000000000E+00  0.00000000000E+00  0.60225279490E+03  0.60225279490E+03  0.00000000000E+00 0.  1.
          2   -1    0    0  501    0  0.00000000000E+00 -0.00000000000E+00 -0.78132975407E+03  0.78132975407E+03  0.00000000000E+00 0. -1.
         24    2    1    2    0    0  0.25850583175E+03 -0.19602175174E+03 -0.26121348562E+03  0.42430152760E+03  0.80929037131E+02 0.  0.
        254    2    1    2    0    0 -0.25850583175E+03  0.19602175174E+03  0.82136526456E+02  0.95928102137E+03  0.89901272337E+03 0.  0.
         23    2    4    4    0    0 -0.33986619079E+02 -0.33703250489E+03  0.12391006232E+03  0.37203771498E+03  0.91172134959E+02 0.  0.
         23    2    4    4    0    0 -0.22451921268E+03  0.53305425663E+03 -0.41773535863E+02  0.58724330639E+03  0.92487595020E+02 0.  0.
          4    1    3    3  502    0  0.12345652324E+03 -0.77956563228E+02 -0.16649637962E+03  0.22144927931E+03  0.00000000000E+00 0. -1.
         -3    1    3    3    0  502  0.13504930851E+03 -0.11806518851E+03 -0.94717106000E+02  0.20285224829E+03  0.00000000000E+00 0.  1.
         13    1    5    5    0    0 -0.24811244588E+02 -0.23158063014E+02 -0.13528076798E+01  0.33966510406E+02  0.00000000000E+00 0.  1.
        -13    1    5    5    0    0 -0.91753744911E+01 -0.31387444188E+03  0.12526287000E+03  0.33807120457E+03  0.00000000000E+00 0. -1.
          1    1    6    6  503    0 -0.17234111018E+03  0.37229255371E+03 -0.69114289712E+02  0.41602883176E+03  0.00000000000E+00 0. -1.
         -1    1    6    6    0  503 -0.52178102497E+02  0.16076170291E+03  0.27340753849E+02  0.17121447464E+03  0.00000000000E+00 0.  1.
<mgrwt>
<rscale>  0 0.13719446E+04</rscale>
<asrwt>0</asrwt>
<pdfrwt beam="1">  1        2 0.12020458E+00 0.13719446E+04</pdfrwt>
<pdfrwt beam="2">  1       -1 0.92654276E-01 0.13719446E+04</pdfrwt>
<totfact> 0.44840197E+01</totfact>
</mgrwt>
</event>
<event>
12    7  0.1637954E-007  0.1865257E+04  0.7818608E-02  0.8672346E-01
          2   -1    0    0  501    0  0.00000000000E+00  0.00000000000E+00  0.13787902878E+04  0.13787902878E+04  0.00000000000E+00 0. -1.
         -1   -1    0    0    0  501 -0.00000000000E+00 -0.00000000000E+00 -0.63084003354E+03  0.63084003354E+03  0.00000000000E+00 0.  1.
         24    2    1    2    0    0 -0.26659806555E+03 -0.59450593420E+03  0.60013174358E+03  0.88950349886E+03  0.80910632722E+02 0.  0.
        254    2    1    2    0    0  0.26659806555E+03  0.59450593420E+03  0.14781851068E+03  0.11201268225E+04  0.89906726777E+03 0.  0.
         23    2    4    4    0    0  0.54113327729E+03  0.59500817850E+03  0.18102831343E+03  0.82923492274E+03  0.89439088464E+02 0.  0.
         23    2    4    4    0    0 -0.27453521175E+03 -0.50224430435E+00 -0.33209802759E+02  0.29089189974E+03  0.90251712429E+02 0.  0.
          4    1    3    3  502    0 -0.24899839056E+03 -0.57495564685E+03  0.59193204210E+03  0.86194996190E+03  0.00000000000E+00 0. -1.
         -3    1    3    3    0  502 -0.17599674990E+02 -0.19550287347E+02  0.81997014797E+01  0.27553536968E+02  0.00000000000E+00 0.  1.
         13    1    5    5    0    0  0.50371330879E+03  0.51515533037E+03  0.15162075332E+03  0.73627506048E+03  0.00000000000E+00 0. -1.
        -13    1    5    5    0    0  0.37419968506E+02  0.79852848132E+02  0.29407560118E+02  0.92959862252E+02  0.00000000000E+00 0.  1.
          2    1    6    6  503    0 -0.26343324893E+03  0.13142466348E+02 -0.12974771805E+02  0.26407980946E+03  0.00000000000E+00 0. -1.
         -2    1    6    6    0  503 -0.11101962817E+02 -0.13644710653E+02 -0.20235030954E+02  0.26812090274E+02  0.00000000000E+00 0.  1.
<mgrwt>
<rscale>  0 0.18652572E+04</rscale>
<asrwt>0</asrwt>
<pdfrwt beam="1">  1        2 0.21212158E+00 0.18652572E+04</pdfrwt>
<pdfrwt beam="2">  1       -1 0.97052313E-01 0.18652572E+04</pdfrwt>
<totfact> 0.16254320E+01</totfact>
</mgrwt>
</event>
<event>
12    7  0.1637954E-007  0.2159010E+04  0.7818608E-02  0.8535685E-01
          2   -1    0    0  501    0  0.00000000000E+00  0.00000000000E+00  0.10807815328E+04  0.10807815328E+04  0.00000000000E+00 0. -1.
         -1   -1    0    0    0  501 -0.00000000000E+00 -0.00000000000E+00 -0.10782303351E+04  0.10782303351E+04  0.00000000000E+00 0.  1.
         24    2    1    2    0    0  0.13381989234E+03  0.45365011075E+03  0.70478381831E+03  0.85251512070E+03  0.79722104280E+02 0.  0.
        254    2    1    2    0    0 -0.13381989234E+03 -0.45365011075E+03 -0.70223262064E+03  0.13064967472E+04  0.99503613521E+03 0.  0.
         23    2    4    4    0    0 -0.12366927567E+02 -0.13774804833E+03 -0.89289076464E+03  0.90787429279E+03  0.88624760712E+02 0.  0.
         23    2    4    4    0    0 -0.12145296477E+03 -0.31590206241E+03  0.19065814400E+03  0.39862245440E+03  0.89467298992E+02 0.  0.
          4    1    3    3  502    0  0.13284752739E+03  0.32919851813E+03  0.53246281084E+03  0.63995060340E+03  0.00000000000E+00 0. -1.
         -3    1    3    3    0  502  0.97236494921E+00  0.12445159262E+03  0.17232100747E+03  0.21256451730E+03  0.00000000000E+00 0.  1.
         13    1    5    5    0    0 -0.15419467478E+02 -0.55800761236E+02 -0.15530865267E+03  0.16574758679E+03  0.00000000000E+00 0.  1.
        -13    1    5    5    0    0  0.30525399111E+01 -0.81947287096E+02 -0.73758211197E+03  0.74212670600E+03  0.00000000000E+00 0. -1.
          3    1    6    6  503    0 -0.82540536303E+02 -0.21324542349E+03  0.78719182250E+02  0.24183312516E+03  0.00000000000E+00 0. -1.
         -3    1    6    6    0  503 -0.38912428470E+02 -0.10265663893E+03  0.11193896175E+03  0.15678932924E+03  0.00000000000E+00 0.  1.
<mgrwt>
<rscale>  0 0.21590104E+04</rscale>
<asrwt>0</asrwt>
<pdfrwt beam="1">  1        2 0.16627408E+00 0.21590104E+04</pdfrwt>
<pdfrwt beam="2">  1       -1 0.16588159E+00 0.21590104E+04</pdfrwt>
<totfact> 0.61816391E+00</totfact>
</mgrwt>
</event>
<event>
12    7  0.1637954E-007  0.2370269E+04  0.7818608E-02  0.8450719E-01
          2   -1    0    0  501    0  0.00000000000E+00  0.00000000000E+00  0.38431552027E+04  0.38431552027E+04  0.00000000000E+00 0. -1.
         -1   -1    0    0    0  501 -0.00000000000E+00 -0.00000000000E+00 -0.36546636797E+03  0.36546636797E+03  0.00000000000E+00 0.  1.
         24    2    1    2    0    0  0.40754547715E+03  0.84386228087E+03  0.21737298184E+04  0.23684727838E+04  0.79781822952E+02 0.  0.
        254    2    1    2    0    0 -0.40754547715E+03 -0.84386228087E+03  0.13039590163E+04  0.18401487869E+04  0.89868880957E+03 0.  0.
         23    2    4    4    0    0 -0.37611698825E+03 -0.91670597506E+02  0.89276929511E+03  0.97726773800E+03  0.90264778024E+02 0.  0.
         23    2    4    4    0    0 -0.31428488902E+02 -0.75219168336E+03  0.41118972124E+03  0.86288104886E+03  0.93309373564E+02 0.  0.
          4    1    3    3  502    0  0.37804471313E+03  0.81754095837E+03  0.20929402588E+04  0.22785280228E+04  0.00000000000E+00 0. -1.
         -3    1    3    3    0  502  0.29500764022E+02  0.26321322496E+02  0.80789559554E+02  0.89944760985E+02  0.00000000000E+00 0.  1.
         13    1    5    5    0    0 -0.23990833924E+03 -0.98893539679E+02  0.54214940915E+03  0.60105068444E+03  0.00000000000E+00 0. -1.
        -13    1    5    5    0    0 -0.13620864901E+03  0.72229421727E+01  0.35061988596E+03  0.37621705356E+03  0.00000000000E+00 0.  1.
          3    1    6    6  503    0 -0.17810989281E+02 -0.59118278717E+03  0.27822647043E+03  0.65362396531E+03  0.00000000000E+00 0. -1.
         -3    1    6    6    0  503 -0.13617499621E+02 -0.16100889620E+03  0.13296325080E+03  0.20925708355E+03  0.00000000000E+00 0.  1.
<mgrwt>
<rscale>  0 0.23702692E+04</rscale>
<asrwt>0</asrwt>
<pdfrwt beam="1">  1        2 0.59125462E+00 0.23702692E+04</pdfrwt>
<pdfrwt beam="2">  1       -1 0.56225598E-01 0.23702692E+04</pdfrwt>
<totfact> 0.14996294E+00</totfact>
</mgrwt>
</event>
<event>
12    7  0.1637954E-007  0.1316612E+04  0.7818608E-02  0.9016494E-01
         -1   -1    0    0    0  501 -0.00000000000E+00  0.00000000000E+00  0.51644389482E+03  0.51644389482E+03  0.00000000000E+00 0.  1.
          2   -1    0    0  501    0  0.00000000000E+00 -0.00000000000E+00 -0.83913677311E+03  0.83913677311E+03  0.00000000000E+00 0. -1.
         24    2    1    2    0    0  0.23498010948E+03 -0.12897339558E+03 -0.33252484800E+03  0.43467272685E+03  0.80732993948E+02 0.  0.
        254    2    1    2    0    0 -0.23498010948E+03  0.12897339558E+03  0.98319697061E+01  0.92090794109E+03  0.88097955692E+03 0.  0.
         23    2    4    4    0    0 -0.54169675547E+03 -0.48702127820E+02 -0.33851824602E+02  0.55256212557E+03  0.91496909499E+02 0.  0.
         23    2    4    4    0    0  0.30671664599E+03  0.17767552340E+03  0.43683794308E+02  0.36834581552E+03  0.90148063674E+02 0.  0.
          2    1    3    3  502    0  0.84940085407E+02 -0.74714792486E+02 -0.18792784447E+03  0.21934902109E+03  0.00000000000E+00 0. -1.
         -1    1    3    3    0  502  0.15004002407E+03 -0.54258603091E+02 -0.14459700353E+03  0.21532370576E+03  0.00000000000E+00 0.  1.
         13    1    5    5    0    0 -0.46417119849E+03 -0.49865982449E+02 -0.60123660670E+02  0.47069775046E+03  0.00000000000E+00 0. -1.
        -13    1    5    5    0    0 -0.77525556978E+02  0.11638546285E+01  0.26271836068E+02  0.81864375113E+02  0.00000000000E+00 0.  1.
          1    1    6    6  503    0  0.25399086784E+03  0.16230978591E+03  0.66839247387E+02  0.30874473686E+03  0.00000000000E+00 0. -1.
         -1    1    6    6    0  503  0.52725778146E+02  0.15365737489E+02 -0.23155453080E+02  0.59601078656E+02  0.00000000000E+00 0.  1.
<mgrwt>
<rscale>  0 0.13166124E+04</rscale>
<asrwt>0</asrwt>
<pdfrwt beam="1">  1        2 0.12909796E+00 0.13166124E+04</pdfrwt>
<pdfrwt beam="2">  1       -1 0.79452907E-01 0.13166124E+04</pdfrwt>
<totfact> 0.57162082E+01</totfact>
</mgrwt>
</event>
<event>
12    7  0.1637954E-007  0.1776325E+04  0.7818608E-02  0.8718992E-01
         -1   -1    0    0    0  501 -0.00000000000E+00  0.00000000000E+00  0.24118254033E+03  0.24118254033E+03  0.00000000000E+00 0.  1.
          2   -1    0    0  501    0  0.00000000000E+00 -0.00000000000E+00 -0.32706866800E+04  0.32706866800E+04  0.00000000000E+00 0. -1.
         24    2    1    2    0    0 -0.62448148404E+03 -0.20710458572E+02 -0.75045609425E+03  0.97972989907E+03  0.79248209656E+02 0.  0.
        254    2    1    2    0    0  0.62448148404E+03  0.20710458572E+02 -0.22790480454E+04  0.25321393213E+04  0.90954026954E+03 0.  0.
         23    2    4    4    0    0 -0.16804337460E+03 -0.61688352671E+02 -0.10126654968E+04  0.10332619347E+04  0.10047282610E+03 0.  0.
         23    2    4    4    0    0  0.79252485864E+03  0.82398811243E+02 -0.12663825487E+04  0.14988773865E+04  0.89573683065E+02 0.  0.
          2    1    3    3  502    0 -0.61206132566E+03 -0.30764149471E+02 -0.72134969617E+03  0.94652569084E+03  0.00000000000E+00 0. -1.
         -1    1    3    3    0  502 -0.12420158383E+02  0.10053690899E+02 -0.29106398085E+02  0.33204208233E+02  0.00000000000E+00 0.  1.
         13    1    5    5    0    0 -0.92956019000E+02 -0.22377401298E+02 -0.77619041184E+03  0.78205698321E+03  0.00000000000E+00 0.  1.
        -13    1    5    5    0    0 -0.75087355596E+02 -0.39310951373E+02 -0.23647508494E+03  0.25120495152E+03  0.00000000000E+00 0. -1.
          4    1    6    6  503    0  0.11232182297E+03  0.18729404874E+01 -0.23920851256E+03  0.26427336662E+03  0.00000000000E+00 0. -1.
         -4    1    6    6    0  503  0.68020303566E+03  0.80525870756E+02 -0.10271740361E+04  0.12346040199E+04  0.00000000000E+00 0.  1.
<mgrwt>
<rscale>  0 0.17763249E+04</rscale>
<asrwt>0</asrwt>
<pdfrwt beam="1">  1        2 0.50318254E+00 0.17763249E+04</pdfrwt>
<pdfrwt beam="2">  1       -1 0.37105008E-01 0.17763249E+04</pdfrwt>
<totfact> 0.88174738E+00</totfact>
</mgrwt>
</event>
<event>
12    7  0.1637954E-007  0.1852876E+04  0.7818608E-02  0.8678675E-01
          2   -1    0    0  501    0  0.00000000000E+00  0.00000000000E+00  0.15138870438E+04  0.15138870438E+04  0.00000000000E+00 0. -1.
         -1   -1    0    0    0  501 -0.00000000000E+00 -0.00000000000E+00 -0.56694268427E+03  0.56694268427E+03  0.00000000000E+00 0.  1.
         24    2    1    2    0    0  0.25225383782E+03  0.64652482257E+03  0.50129362561E+03  0.85986653561E+03  0.80304514730E+02 0.  0.
        254    2    1    2    0    0 -0.25225383782E+03 -0.64652482257E+03  0.44565073388E+03  0.12209631924E+04  0.90028895126E+03 0.  0.
         23    2    4    4    0    0 -0.48425438953E+02 -0.67523519097E+03  0.63013540666E+03  0.92933484776E+03  0.91132004671E+02 0.  0.
         23    2    4    4    0    0 -0.20382839887E+03  0.28710368404E+02 -0.18448467277E+03  0.29162834467E+03  0.92963409392E+02 0.  0.
          2    1    3    3  502    0  0.46652260446E+02  0.83116146300E+02  0.10057578050E+03  0.13856483971E+03  0.00000000000E+00 0. -1.
         -1    1    3    3    0  502  0.20560157737E+03  0.56340867627E+03  0.40071784511E+03  0.72130169590E+03  0.00000000000E+00 0.  1.
         13    1    5    5    0    0  0.19925028119E+02 -0.10155027818E+03  0.12148536275E+03  0.15958746538E+03  0.00000000000E+00 0. -1.
        -13    1    5    5    0    0 -0.68350467072E+02 -0.57368491280E+03  0.50865004390E+03  0.76974738238E+03  0.00000000000E+00 0.  1.
          1    1    6    6  503    0 -0.22701317757E+02 -0.19811294570E+02 -0.23532466369E+01  0.30222094405E+02  0.00000000000E+00 0. -1.
         -1    1    6    6    0  503 -0.18112708111E+03  0.48521662975E+02 -0.18213142614E+03  0.26140625026E+03  0.00000000000E+00 0.  1.
<mgrwt>
<rscale>  0 0.18528758E+04</rscale>
<asrwt>0</asrwt>
<pdfrwt beam="1">  1        2 0.23290570E+00 0.18528758E+04</pdfrwt>
<pdfrwt beam="2">  1       -1 0.87221952E-01 0.18528758E+04</pdfrwt>
<totfact> 0.17282102E+01</totfact>
</mgrwt>
</event>
<event>
12    7  0.1637954E-007  0.2103448E+04  0.7818608E-02  0.8559726E-01
         -1   -1    0    0    0  501 -0.00000000000E+00  0.00000000000E+00  0.58448966825E+03  0.58448966825E+03  0.00000000000E+00 0.  1.
          2   -1    0    0  501    0  0.00000000000E+00 -0.00000000000E+00 -0.18924606847E+04  0.18924606847E+04  0.00000000000E+00 0. -1.
         24    2    1    2    0    0  0.36619352695E+03  0.25895366256E+03 -0.14209138498E+04  0.14927338054E+04  0.90018590973E+02 0.  0.
        254    2    1    2    0    0 -0.36619352695E+03 -0.25895366256E+03  0.11294283336E+03  0.98421654753E+03  0.86877582280E+03 0.  0.
         23    2    4    4    0    0 -0.47122217613E+03  0.68726503484E+02 -0.18574988681E+03  0.51933471779E+03  0.91825144097E+02 0.  0.
         23    2    4    4    0    0  0.10502864918E+03 -0.32768016604E+03  0.29869272018E+03  0.46488182974E+03  0.92154577595E+02 0.  0.
          4    1    3    3  502    0  0.30710758397E+03  0.18356148145E+03 -0.10344413381E+04  0.10945678451E+04  0.00000000000E+00 0. -1.
         -3    1    3    3    0  502  0.59085942981E+02  0.75392181107E+02 -0.38647251175E+03  0.39816596033E+03  0.00000000000E+00 0.  1.
         13    1    5    5    0    0 -0.45959354017E+03  0.61533067002E+02 -0.19478554607E+03  0.50294527481E+03  0.00000000000E+00 0.  1.
        -13    1    5    5    0    0 -0.11628635960E+02  0.71934364822E+01  0.90356592561E+01  0.16389442971E+02  0.00000000000E+00 0. -1.
          1    1    6    6  503    0  0.61054272833E+02 -0.62594252490E+02  0.69150783956E+02  0.11147867777E+03  0.00000000000E+00 0. -1.
         -1    1    6    6    0  503  0.43974376350E+02 -0.26508591355E+03  0.22954193622E+03  0.35340315197E+03  0.00000000000E+00 0.  1.
<mgrwt>
<rscale>  0 0.21034483E+04</rscale>
<asrwt>0</asrwt>
<pdfrwt beam="1">  1        2 0.29114779E+00 0.21034483E+04</pdfrwt>
<pdfrwt beam="2">  1       -1 0.89921488E-01 0.21034483E+04</pdfrwt>
<totfact> 0.97325164E+00</totfact>
</mgrwt>
</event>
<event>
12    7  0.1637954E-007  0.1649185E+04  0.7818608E-02  0.8790889E-01
          2   -1    0    0  501    0  0.00000000000E+00  0.00000000000E+00  0.15813260301E+04  0.15813260301E+04  0.00000000000E+00 0. -1.
         -1   -1    0    0    0  501 -0.00000000000E+00 -0.00000000000E+00 -0.42998919641E+03  0.42998919641E+03  0.00000000000E+00 0.  1.
         24    2    1    2    0    0  0.32878100531E+03  0.11061143221E+03 -0.14945808302E+03  0.38983802531E+03  0.96457913182E+02 0.  0.
        254    2    1    2    0    0 -0.32878100531E+03 -0.11061143221E+03  0.13007949167E+04  0.16214772012E+04  0.90376382992E+03 0.  0.
         23    2    4    4    0    0  0.25239404730E+02  0.15509383933E+03  0.11211158522E+04  0.11356392540E+04  0.89914596653E+02 0.  0.
         23    2    4    4    0    0 -0.35402041004E+03 -0.26570527154E+03  0.17967906450E+03  0.48583794717E+03  0.88454523018E+02 0.  0.
          2    1    3    3  502    0  0.91040294988E+02  0.59876071131E+02 -0.96110412008E+01  0.10938853376E+03  0.00000000000E+00 0. -1.
         -1    1    3    3    0  502  0.23774071032E+03  0.50735361076E+02 -0.13984704182E+03  0.28044949155E+03  0.00000000000E+00 0.  1.
         13    1    5    5    0    0  0.52372985440E+02  0.49672236246E+02  0.44499163332E+03  0.45080795732E+03  0.00000000000E+00 0.  1.
        -13    1    5    5    0    0 -0.27133580710E+02  0.10542160308E+03  0.67612421883E+03  0.68483129666E+03  0.00000000000E+00 0. -1.
          1    1    6    6  503    0 -0.73668585669E+02 -0.10030537300E+03  0.32633215702E+02  0.12865906550E+03  0.00000000000E+00 0. -1.
         -1    1    6    6    0  503 -0.28035182437E+03 -0.16539989853E+03  0.14704584880E+03  0.35717888167E+03  0.00000000000E+00 0.  1.
<mgrwt>
<rscale>  0 0.16491854E+04</rscale>
<asrwt>0</asrwt>
<pdfrwt beam="1">  1        2 0.24328092E+00 0.16491854E+04</pdfrwt>
<pdfrwt beam="2">  1       -1 0.66152185E-01 0.16491854E+04</pdfrwt>
<totfact> 0.28794812E+01</totfact>
</mgrwt>
</event>
<event>
12    7  0.1637954E-007  0.1835009E+04  0.7818608E-02  0.8687900E-01
          2   -1    0    0  501    0  0.00000000000E+00  0.00000000000E+00  0.16328200196E+04  0.16328200196E+04  0.00000000000E+00 0. -1.
         -1   -1    0    0    0  501 -0.00000000000E+00 -0.00000000000E+00 -0.51555876447E+03  0.51555876447E+03  0.00000000000E+00 0.  1.
         24    2    1    2    0    0  0.34806941019E+03 -0.35884825628E+03  0.99319390289E+03  0.11147624983E+04  0.79604733174E+02 0.  0.
        254    2    1    2    0    0 -0.34806941019E+03  0.35884825628E+03  0.12406735225E+03  0.10336162858E+04  0.89612807844E+03 0.  0.
         23    2    4    4    0    0 -0.12647575995E+03  0.12958826250E+02  0.46583768141E+03  0.49108656845E+03  0.89427195297E+02 0.  0.
         23    2    4    4    0    0 -0.22159365024E+03  0.34588943003E+03 -0.34177032916E+03  0.54252971732E+03  0.93745894012E+02 0.  0.
          2    1    3    3  502    0  0.16533353618E+03 -0.22403705565E+03  0.51771443810E+03  0.58784013125E+03  0.00000000000E+00 0. -1.
         -1    1    3    3    0  502  0.18273587402E+03 -0.13481120063E+03  0.47547946479E+03  0.52692236706E+03  0.00000000000E+00 0.  1.
         13    1    5    5    0    0 -0.13052998315E+03  0.45713523592E+01  0.32966395049E+03  0.35459454877E+03  0.00000000000E+00 0. -1.
        -13    1    5    5    0    0  0.40542232032E+01  0.83874738904E+01  0.13617373092E+03  0.13649201968E+03  0.00000000000E+00 0.  1.
          4    1    6    6  503    0 -0.19669267592E+03  0.34369761534E+03 -0.31600715341E+03  0.50663258932E+03  0.00000000000E+00 0. -1.
         -4    1    6    6    0  503 -0.24900974327E+02  0.21918146887E+01 -0.25763175750E+02  0.35897128003E+02  0.00000000000E+00 0.  1.
<mgrwt>
<rscale>  0 0.18350092E+04</rscale>
<asrwt>0</asrwt>
<pdfrwt beam="1">  1        2 0.25120308E+00 0.18350092E+04</pdfrwt>
<pdfrwt beam="2">  1       -1 0.79316734E-01 0.18350092E+04</pdfrwt>
<totfact> 0.18213466E+01</totfact>
</mgrwt>
</event>
<event>
12    7  0.1637954E-007  0.1726133E+04  0.7818608E-02  0.8746598E-01
         -1   -1    0    0    0  501 -0.00000000000E+00  0.00000000000E+00  0.39527313438E+03  0.39527313438E+03  0.00000000000E+00 0.  1.
          2   -1    0    0  501    0  0.00000000000E+00 -0.00000000000E+00 -0.18844790992E+04  0.18844790992E+04  0.00000000000E+00 0. -1.
         24    2    1    2    0    0 -0.33257361908E+03 -0.40198589380E+03 -0.99987244473E+03  0.11304914469E+04  0.77898233907E+02 0.  0.
        254    2    1    2    0    0  0.33257361908E+03  0.40198589380E+03 -0.48933352013E+03  0.11492607867E+04  0.89953053925E+03 0.  0.
         23    2    4    4    0    0  0.32950747571E+03  0.66806329242E+03 -0.29428515841E+03  0.80606691046E+03  0.90864571974E+02 0.  0.
         23    2    4    4    0    0  0.30661433627E+01 -0.26607739862E+03 -0.19504836171E+03  0.34319387626E+03  0.94507089708E+02 0.  0.
          2    1    3    3  502    0 -0.83193448931E+02 -0.97343412073E+02 -0.32290399728E+03  0.34736706994E+03  0.00000000000E+00 0. -1.
         -1    1    3    3    0  502 -0.24938017014E+03 -0.30464248173E+03 -0.67696844746E+03  0.78312437696E+03  0.00000000000E+00 0.  1.
         13    1    5    5    0    0  0.89008433445E+02  0.12062416415E+03 -0.86383522233E+02  0.17301677120E+03  0.00000000000E+00 0. -1.
        -13    1    5    5    0    0  0.24049904227E+03  0.54743912827E+03 -0.20790163618E+03  0.63305013926E+03  0.00000000000E+00 0.  1.
          1    1    6    6  503    0  0.13072028117E+02 -0.22974343491E+03 -0.12072184803E+03  0.25985897790E+03  0.00000000000E+00 0. -1.
         -1    1    6    6    0  503 -0.10005884755E+02 -0.36333963708E+02 -0.74326513682E+02  0.83334898359E+02  0.00000000000E+00 0.  1.
<mgrwt>
<rscale>  0 0.17261332E+04</rscale>
<asrwt>0</asrwt>
<pdfrwt beam="1">  1        2 0.28991986E+00 0.17261332E+04</pdfrwt>
<pdfrwt beam="2">  1       -1 0.60811252E-01 0.17261332E+04</pdfrwt>
<totfact> 0.22974509E+01</totfact>
</mgrwt>
</event>
<event>
12    7  0.1637954E-007  0.1509427E+04  0.7818608E-02  0.8878208E-01
         -1   -1    0    0    0  501 -0.00000000000E+00  0.00000000000E+00  0.34737025087E+03  0.34737025087E+03  0.00000000000E+00 0.  1.
          2   -1    0    0  501    0  0.00000000000E+00 -0.00000000000E+00 -0.16397274471E+04  0.16397274471E+04  0.00000000000E+00 0. -1.
         24    2    1    2    0    0 -0.23856463098E+03 -0.39379244770E+03 -0.24032584224E+03  0.52546935909E+03  0.79849620363E+02 0.  0.
        254    2    1    2    0    0  0.23856463098E+03  0.39379244770E+03 -0.10520313540E+04  0.14616283389E+04  0.90421339086E+03 0.  0.
         23    2    4    4    0    0  0.14844171488E+03 -0.27266402098E+03 -0.45159423905E+03  0.55549054406E+03  0.90839290766E+02 0.  0.
         23    2    4    4    0    0  0.90122916095E+02  0.66645646867E+03 -0.60043711493E+03  0.90613779481E+03  0.90964880884E+02 0.  0.
          2    1    3    3  502    0 -0.76009498096E+02 -0.18855968686E+03 -0.13032681647E+03  0.24148970662E+03  0.00000000000E+00 0. -1.
         -1    1    3    3    0  502 -0.16255513288E+03 -0.20523276084E+03 -0.10999902577E+03  0.28397965247E+03  0.00000000000E+00 0.  1.
         13    1    5    5    0    0  0.23374609791E+02 -0.13684698268E+03 -0.19157117196E+03  0.23658610056E+03  0.00000000000E+00 0. -1.
        -13    1    5    5    0    0  0.12506710509E+03 -0.13581703830E+03 -0.26002306709E+03  0.31890444350E+03  0.00000000000E+00 0.  1.
          2    1    6    6  503    0 -0.15599003141E+02  0.18619236411E+03 -0.16100396867E+03  0.24664387947E+03  0.00000000000E+00 0.  1.
         -2    1    6    6    0  503  0.10572191924E+03  0.48026410456E+03 -0.43943314627E+03  0.65949391534E+03  0.00000000000E+00 0. -1.
<mgrwt>
<rscale>  0 0.15094271E+04</rscale>
<asrwt>0</asrwt>
<pdfrwt beam="1">  1        2 0.25226576E+00 0.15094271E+04</pdfrwt>
<pdfrwt beam="2">  1       -1 0.53441577E-01 0.15094271E+04</pdfrwt>
<totfact> 0.41170111E+01</totfact>
</mgrwt>
</event>
<event>
12    7  0.1637954E-007  0.1225288E+04  0.7818608E-02  0.9091006E-01
         -1   -1    0    0    0  501 -0.00000000000E+00  0.00000000000E+00  0.33184310811E+03  0.33184310811E+03  0.00000000000E+00 0.  1.
          2   -1    0    0  501    0  0.00000000000E+00 -0.00000000000E+00 -0.11310543895E+04  0.11310543895E+04  0.00000000000E+00 0. -1.
         24    2    1    2    0    0  0.12881881111E+03  0.15442282899E+03 -0.39576881437E+03  0.45350577794E+03  0.92702966457E+02 0.  0.
        254    2    1    2    0    0 -0.12881881111E+03 -0.15442282899E+03 -0.40344246704E+03  0.10093917197E+04  0.90314180690E+03 0.  0.
         23    2    4    4    0    0  0.16342645978E+03  0.90443155611E+02  0.20092879347E+03  0.28903913083E+03  0.91011356187E+02 0.  0.
         23    2    4    4    0    0 -0.29224527089E+03 -0.24486598460E+03 -0.60437126051E+03  0.72035258886E+03  0.90975727425E+02 0.  0.
          2    1    3    3  502    0  0.78794110455E+02  0.15089428397E+03 -0.32329987867E+03  0.36537707690E+03  0.00000000000E+00 0. -1.
         -1    1    3    3    0  502  0.50024700655E+02  0.35285450198E+01 -0.72468935703E+02  0.88128701043E+02  0.00000000000E+00 0.  1.
         13    1    5    5    0    0  0.29870751449E+02  0.58319319734E+02  0.95786414989E+02  0.11605361753E+03  0.00000000000E+00 0.  1.
        -13    1    5    5    0    0  0.13355570833E+03  0.32123835877E+02  0.10514237848E+03  0.17298551330E+03  0.00000000000E+00 0. -1.
          1    1    6    6  503    0 -0.90631735031E+02 -0.48111759777E+02 -0.10380507735E+03  0.14596008669E+03  0.00000000000E+00 0. -1.
         -1    1    6    6    0  503 -0.20161353586E+03 -0.19675422483E+03 -0.50056618316E+03  0.57439250217E+03  0.00000000000E+00 0.  1.
<mgrwt>
<rscale>  0 0.12252879E+04</rscale>
<asrwt>0</asrwt>
<pdfrwt beam="1">  1        2 0.17400837E+00 0.12252879E+04</pdfrwt>
<pdfrwt beam="2">  1       -1 0.51052786E-01 0.12252879E+04</pdfrwt>
<totfact> 0.90311102E+01</totfact>
</mgrwt>
</event>
<event>
12    7  0.1637954E-007  0.1859040E+04  0.7818608E-02  0.8675518E-01
         -1   -1    0    0    0  501 -0.00000000000E+00  0.00000000000E+00  0.10429904455E+04  0.10429904455E+04  0.00000000000E+00 0.  1.
          2   -1    0    0  501    0  0.00000000000E+00 -0.00000000000E+00 -0.82839429518E+03  0.82839429518E+03  0.00000000000E+00 0. -1.
         24    2    1    2    0    0 -0.29587594791E+03  0.13336395770E+03  0.70865733028E+03  0.78382560599E+03  0.82818156762E+02 0.  0.
        254    2    1    2    0    0  0.29587594791E+03 -0.13336395770E+03 -0.49406118000E+03  0.10875591346E+04  0.91288548022E+03 0.  0.
         23    2    4    4    0    0  0.25760428589E+02  0.79629594241E+01  0.25558168025E+03  0.27307507372E+03  0.92309220585E+02 0.  0.
         23    2    4    4    0    0  0.27011551933E+03 -0.14132691713E+03 -0.74964286025E+03  0.81448406093E+03  0.92109588529E+02 0.  0.
          2    1    3    3  502    0 -0.14160441301E+03  0.10588143932E+03  0.41163637874E+03  0.44800356838E+03  0.00000000000E+00 0. -1.
         -1    1    3    3    0  502 -0.15427153490E+03  0.27482518388E+02  0.29702095153E+03  0.33582203761E+03  0.00000000000E+00 0.  1.
         13    1    5    5    0    0 -0.31511548401E+02  0.41668871726E+01  0.46993383191E+02  0.56733752697E+02  0.00000000000E+00 0.  1.
        -13    1    5    5    0    0  0.57271976990E+02  0.37960722514E+01  0.20858829706E+03  0.21634132102E+03  0.00000000000E+00 0. -1.
          2    1    6    6  503    0  0.26354130474E+03 -0.15267704855E+03 -0.72846841383E+03  0.78957617137E+03  0.00000000000E+00 0. -1.
         -2    1    6    6    0  503  0.65742145886E+01  0.11350131424E+02 -0.21174446418E+02  0.24907889551E+02  0.00000000000E+00 0.  1.
<mgrwt>
<rscale>  0 0.18590399E+04</rscale>
<asrwt>0</asrwt>
<pdfrwt beam="1">  1        2 0.12744528E+00 0.18590399E+04</pdfrwt>
<pdfrwt beam="2">  1       -1 0.16046007E+00 0.18590399E+04</pdfrwt>
<totfact> 0.10219531E+01</totfact>
</mgrwt>
</event>
<event>
12    7  0.1637954E-007  0.2912110E+04  0.7818608E-02  0.8269283E-01
         -1   -1    0    0    0  501 -0.00000000000E+00  0.00000000000E+00  0.17836798525E+04  0.17836798525E+04  0.00000000000E+00 0.  1.
          2   -1    0    0  501    0  0.00000000000E+00 -0.00000000000E+00 -0.11886080844E+04  0.11886080844E+04  0.00000000000E+00 0. -1.
         24    2    1    2    0    0 -0.71154403100E+03  0.71881831900E+03  0.11858857542E+04  0.15608764390E+04  0.83758892318E+02 0.  0.
        254    2    1    2    0    0  0.71154403100E+03 -0.71881831900E+03 -0.59081398605E+03  0.14114114979E+04  0.78741765694E+03 0.  0.
         23    2    4    4    0    0  0.39452899193E+03 -0.65749605952E+03 -0.48567454870E+02  0.77332418607E+03  0.87848194783E+02 0.  0.
         23    2    4    4    0    0  0.31701503906E+03 -0.61322259477E+02 -0.54224653118E+03  0.63808731181E+03  0.94154991419E+02 0.  0.
          2    1    3    3  502    0 -0.35678200441E+02  0.62729602331E+02  0.69314730440E+02  0.10006232483E+03  0.00000000000E+00 0. -1.
         -1    1    3    3    0  502 -0.67586583055E+03  0.65608871667E+03  0.11165710238E+04  0.14608141142E+04  0.00000000000E+00 0.  1.
         13    1    5    5    0    0  0.39792125231E+03 -0.64976346490E+03 -0.53034831835E+02  0.76377128562E+03  0.00000000000E+00 0.  1.
        -13    1    5    5    0    0 -0.33922603715E+01 -0.77325946291E+01  0.44673769654E+01  0.95529004536E+01  0.00000000000E+00 0. -1.
          2    1    6    6  503    0  0.12270317732E+03 -0.68077681565E+02 -0.19716386275E+03  0.24200047361E+03  0.00000000000E+00 0. -1.
         -2    1    6    6    0  503  0.19431186174E+03  0.67554220881E+01 -0.34508266844E+03  0.39608683820E+03  0.00000000000E+00 0.  1.
<mgrwt>
<rscale>  0 0.29121101E+04</rscale>
<asrwt>0</asrwt>
<pdfrwt beam="1">  1        2 0.18286278E+00 0.29121101E+04</pdfrwt>
<pdfrwt beam="2">  1       -1 0.27441229E+00 0.29121101E+04</pdfrwt>
<totfact> 0.91430346E-01</totfact>
</mgrwt>
</event>
<event>
12    7  0.1637954E-007  0.2039665E+04  0.7818608E-02  0.8588297E-01
          2   -1    0    0  501    0  0.00000000000E+00  0.00000000000E+00  0.16501110646E+04  0.16501110646E+04  0.00000000000E+00 0. -1.
         -1   -1    0    0    0  501 -0.00000000000E+00 -0.00000000000E+00 -0.63029616715E+03  0.63029616715E+03  0.00000000000E+00 0.  1.
         24    2    1    2    0    0 -0.55670642511E+03 -0.30050509379E+03  0.89764579532E+03  0.11010877843E+04  0.80006122713E+02 0.  0.
        254    2    1    2    0    0  0.55670642511E+03  0.30050509379E+03  0.12216910217E+03  0.11793194475E+04  0.98774678667E+03 0.  0.
         23    2    4    4    0    0  0.77264861844E+02 -0.13672854325E+03 -0.33535791562E+03  0.38126939846E+03  0.90757199251E+02 0.  0.
         23    2    4    4    0    0  0.47944156327E+03  0.43723363705E+03  0.45752701779E+03  0.79805004904E+03  0.80718292948E+02 0.  0.
          4    1    3    3  502    0 -0.15138633083E+03 -0.42741381149E+02  0.22593659078E+03  0.27530345054E+03  0.00000000000E+00 0. -1.
         -1    1    3    3    0  502 -0.40532009428E+03 -0.25776371264E+03  0.67170920454E+03  0.82578433374E+03  0.00000000000E+00 0.  1.
         13    1    5    5    0    0  0.42400623820E+02 -0.40269724125E+02 -0.21658421535E+03  0.22433944352E+03  0.00000000000E+00 0. -1.
        -13    1    5    5    0    0  0.34864238024E+02 -0.96458819128E+02 -0.11877370028E+03  0.15692995494E+03  0.00000000000E+00 0.  1.
          3    1    6    6  503    0  0.10006694496E+03  0.59557013841E+02  0.10727897496E+03  0.15833259247E+03  0.00000000000E+00 0. -1.
         -3    1    6    6    0  503  0.37937461831E+03  0.37767662321E+03  0.35024804283E+03  0.63971745657E+03  0.00000000000E+00 0.  1.
<mgrwt>
<rscale>  0 0.20396653E+04</rscale>
<asrwt>0</asrwt>
<pdfrwt beam="1">  1        2 0.25386324E+00 0.20396653E+04</pdfrwt>
<pdfrwt beam="2">  1       -1 0.96968642E-01 0.20396653E+04</pdfrwt>
<totfact> 0.11274467E+01</totfact>
</mgrwt>
</event>
<event>
12    7  0.1637954E-007  0.1394819E+04  0.7818608E-02  0.8957578E-01
          2   -1    0    0  501    0  0.00000000000E+00  0.00000000000E+00  0.12616015228E+04  0.12616015228E+04  0.00000000000E+00 0. -1.
         -1   -1    0    0    0  501 -0.00000000000E+00 -0.00000000000E+00 -0.38552561731E+03  0.38552561731E+03  0.00000000000E+00 0.  1.
         24    2    1    2    0    0 -0.37570164107E+03 -0.11196509191E+03  0.31292139864E+03  0.50764620750E+03  0.78083066985E+02 0.  0.
        254    2    1    2    0    0  0.37570164107E+03  0.11196509191E+03  0.56315450688E+03  0.11394809326E+04  0.90971747940E+03 0.  0.
         23    2    4    4    0    0  0.62744486737E+03  0.25539125577E+03  0.34701710472E+03  0.76665623944E+03  0.91810475413E+02 0.  0.
         23    2    4    4    0    0 -0.25174322630E+03 -0.14342616386E+03  0.21613740216E+03  0.37282469320E+03  0.91308043332E+02 0.  0.
          4    1    3    3  502    0 -0.33834037437E+02 -0.23817292271E+02  0.61895363999E+02  0.74451605658E+02  0.00000000000E+00 0. -1.
         -3    1    3    3    0  502 -0.34186760363E+03 -0.88147799636E+02  0.25102603464E+03  0.43319460184E+03  0.00000000000E+00 0.  1.
         13    1    5    5    0    0  0.33360551027E+03  0.93472161410E+02  0.20306970800E+03  0.40158061177E+03  0.00000000000E+00 0. -1.
        -13    1    5    5    0    0  0.29383935711E+03  0.16191909436E+03  0.14394739671E+03  0.36507562768E+03  0.00000000000E+00 0.  1.
          4    1    6    6  503    0 -0.24389774089E+03 -0.13927699283E+03  0.22530521321E+03  0.36006475507E+03  0.00000000000E+00 0. -1.
         -4    1    6    6    0  503 -0.78454854076E+01 -0.41491710317E+01 -0.91678110507E+01  0.12759938126E+02  0.00000000000E+00 0.  1.
<mgrwt>
<rscale>  0 0.13948186E+04</rscale>
<asrwt>0</asrwt>
<pdfrwt beam="1">  1        2 0.19409254E+00 0.13948186E+04</pdfrwt>
<pdfrwt beam="2">  1       -1 0.59311634E-01 0.13948186E+04</pdfrwt>
<totfact> 0.55688967E+01</totfact>
</mgrwt>
</event>
<event>
12    7  0.1637954E-007  0.1918456E+04  0.7818608E-02  0.8645724E-01
          2   -1    0    0  501    0  0.00000000000E+00  0.00000000000E+00  0.11778158777E+04  0.11778158777E+04  0.00000000000E+00 0. -1.
         -1   -1    0    0    0  501 -0.00000000000E+00 -0.00000000000E+00 -0.78120745019E+03  0.78120745019E+03  0.00000000000E+00 0.  1.
         24    2    1    2    0    0  0.60967822818E+03  0.46017730066E+02 -0.27927794782E+03  0.67716627562E+03  0.82053758577E+02 0.  0.
        254    2    1    2    0    0 -0.60967822818E+03 -0.46017730066E+02  0.67588637535E+03  0.12818570523E+04  0.90139333077E+03 0.  0.
         23    2    4    4    0    0 -0.13218607399E+03 -0.42537215485E+03  0.40129386665E+03  0.60653194908E+03  0.91812905214E+02 0.  0.
         23    2    4    4    0    0 -0.47749215420E+03  0.37935442479E+03  0.27459250870E+03  0.67532510322E+03  0.93565016324E+02 0.  0.
          2    1    3    3  502    0  0.20436421119E+03  0.31380018275E+01 -0.53678863713E+02  0.21131965900E+03  0.00000000000E+00 0. -1.
         -1    1    3    3    0  502  0.40531401699E+03  0.42879728239E+02 -0.22559908410E+03  0.46584661661E+03  0.00000000000E+00 0.  1.
         13    1    5    5    0    0 -0.13478384387E+03 -0.32026334773E+03  0.28188388852E+03  0.44743024381E+03  0.00000000000E+00 0. -1.
        -13    1    5    5    0    0  0.25977698813E+01 -0.10510880712E+03  0.11940997814E+03  0.15910170527E+03  0.00000000000E+00 0.  1.
          1    1    6    6  503    0 -0.44623458429E+03  0.32112294979E+03  0.23210747666E+03  0.59675718162E+03  0.00000000000E+00 0. -1.
         -1    1    6    6    0  503 -0.31257569909E+02  0.58231474996E+02  0.42485032033E+02  0.78567921594E+02  0.00000000000E+00 0.  1.
<mgrwt>
<rscale>  0 0.19184562E+04</rscale>
<asrwt>0</asrwt>
<pdfrwt beam="1">  1        2 0.18120244E+00 0.19184562E+04</pdfrwt>
<pdfrwt beam="2">  1       -1 0.12018576E+00 0.19184562E+04</pdfrwt>
<totfact> 0.12845920E+01</totfact>
</mgrwt>
</event>
<event>
12    7  0.1637954E-007  0.2588133E+04  0.7818608E-02  0.8372243E-01
         -1   -1    0    0    0  501 -0.00000000000E+00  0.00000000000E+00  0.10562720174E+04  0.10562720174E+04  0.00000000000E+00 0.  1.
          2   -1    0    0  501    0  0.00000000000E+00 -0.00000000000E+00 -0.15853942736E+04  0.15853942736E+04  0.00000000000E+00 0. -1.
         24    2    1    2    0    0  0.11067532930E+03 -0.10803704701E+04  0.10520705701E+03  0.10940944044E+04  0.80775365265E+02 0.  0.
        254    2    1    2    0    0 -0.11067532930E+03  0.10803704701E+04 -0.63432931317E+03  0.15475718867E+04  0.90175145447E+03 0.  0.
         23    2    4    4    0    0 -0.46727777422E+03  0.62356017281E+03 -0.17694488737E+03  0.80387942586E+03  0.87959256249E+02 0.  0.
         23    2    4    4    0    0  0.35660244492E+03  0.45681029729E+03 -0.45738442581E+03  0.74369246080E+03  0.89649382824E+02 0.  0.
          4    1    3    3  502    0  0.31344325522E+02 -0.28946070859E+03 -0.75956343751E+01  0.29125188793E+03  0.00000000000E+00 0. -1.
         -3    1    3    3    0  502  0.79331003777E+02 -0.79090976152E+03  0.11280269139E+03  0.80284251644E+03  0.00000000000E+00 0.  1.
         13    1    5    5    0    0 -0.41584949734E+03  0.57728099392E+03 -0.13881299411E+03  0.72488150598E+03  0.00000000000E+00 0. -1.
        -13    1    5    5    0    0 -0.51428276884E+02  0.46279178892E+02 -0.38131893261E+02  0.78997919883E+02  0.00000000000E+00 0.  1.
          2    1    6    6  503    0  0.31290908351E+03  0.42935384187E+03 -0.43806335986E+03  0.68859009819E+03  0.00000000000E+00 0. -1.
         -2    1    6    6    0  503  0.43693361408E+02  0.27456455420E+02 -0.19321065944E+02  0.55102362605E+02  0.00000000000E+00 0.  1.
<mgrwt>
<rscale>  0 0.25881326E+04</rscale>
<asrwt>0</asrwt>
<pdfrwt beam="1">  1        2 0.24390681E+00 0.25881326E+04</pdfrwt>
<pdfrwt beam="2">  1       -1 0.16250339E+00 0.25881326E+04</pdfrwt>
<totfact> 0.32058929E+00</totfact>
</mgrwt>
</event>
<event>
12    7  0.1637954E-007  0.2182203E+04  0.7818608E-02  0.8525872E-01
         -1   -1    0    0    0  501 -0.00000000000E+00  0.00000000000E+00  0.73797606245E+03  0.73797606245E+03  0.00000000000E+00 0.  1.
          2   -1    0    0  501    0  0.00000000000E+00 -0.00000000000E+00 -0.16131997086E+04  0.16131997086E+04  0.00000000000E+00 0. -1.
         24    2    1    2    0    0 -0.65464151513E+02 -0.75884921483E+03 -0.86569236003E+03  0.11558827886E+04  0.80647831588E+02 0.  0.
        254    2    1    2    0    0  0.65464151513E+02  0.75884921483E+03 -0.95312861310E+01  0.11952929825E+04  0.92113885085E+03 0.  0.
         23    2    4    4    0    0  0.13814457043E+02  0.68628789972E+03  0.37692080330E+03  0.78828421475E+03  0.90226330617E+02 0.  0.
         23    2    4    4    0    0  0.51649694470E+02  0.72561315111E+02 -0.38645208943E+03  0.40700876772E+03  0.91531875237E+02 0.  0.
          2    1    3    3  502    0 -0.77423197943E+02 -0.73650813248E+03 -0.83559372619E+03  0.11165372614E+04  0.00000000000E+00 0. -1.
         -1    1    3    3    0  502  0.11959046430E+02 -0.22341082349E+02 -0.30098633832E+02  0.39345527199E+02  0.00000000000E+00 0.  1.
         13    1    5    5    0    0 -0.45309310658E+01  0.42529797331E+03  0.28030205249E+03  0.50938014888E+03  0.00000000000E+00 0. -1.
        -13    1    5    5    0    0  0.18345388109E+02  0.26098992641E+03  0.96618750808E+02  0.27890406588E+03  0.00000000000E+00 0.  1.
          3    1    6    6  503    0  0.20221256296E+02  0.86719357496E+02 -0.31986848906E+03  0.33203161968E+03  0.00000000000E+00 0. -1.
         -3    1    6    6    0  503  0.31428438174E+02 -0.14158042385E+02 -0.66583600372E+02  0.74977148043E+02  0.00000000000E+00 0.  1.
<mgrwt>
<rscale>  0 0.21822033E+04</rscale>
<asrwt>0</asrwt>
<pdfrwt beam="1">  1        2 0.24818457E+00 0.21822033E+04</pdfrwt>
<pdfrwt beam="2">  1       -1 0.11353478E+00 0.21822033E+04</pdfrwt>
<totfact> 0.80910678E+00</totfact>
</mgrwt>
</event>
<event>
12    7  0.1637954E-007  0.1803931E+04  0.7818608E-02  0.8704212E-01
         -1   -1    0    0    0  501 -0.00000000000E+00  0.00000000000E+00  0.93250552286E+03  0.93250552286E+03  0.00000000000E+00 0.  1.
          2   -1    0    0  501    0  0.00000000000E+00 -0.00000000000E+00 -0.87242592165E+03  0.87242592165E+03  0.00000000000E+00 0. -1.
         24    2    1    2    0    0 -0.59365928209E+03 -0.19858110281E+03 -0.23366809270E+03  0.67299913858E+03  0.80381996586E+02 0.  0.
        254    2    1    2    0    0  0.59365928209E+03  0.19858110281E+03  0.29374769392E+03  0.11319323059E+04  0.89616808686E+03 0.  0.
         23    2    4    4    0    0  0.18528635856E+03 -0.31771663326E+03  0.27186992862E+03  0.46662485668E+03  0.92469481820E+02 0.  0.
         23    2    4    4    0    0  0.40837292353E+03  0.51629773607E+03  0.21877765296E+02  0.66530744924E+03  0.93933851501E+02 0.  0.
          2    1    3    3  502    0 -0.36644293240E+03 -0.16045454156E+03 -0.16352901731E+03  0.43216642872E+03  0.00000000000E+00 0. -1.
         -3    1    3    3    0  502 -0.22721634969E+03 -0.38126561254E+02 -0.70139075389E+02  0.24083270986E+03  0.00000000000E+00 0.  1.
         13    1    5    5    0    0  0.19368997205E+03 -0.29102564307E+03  0.23910143238E+03  0.42353420778E+03  0.00000000000E+00 0.  1.
        -13    1    5    5    0    0 -0.84036134860E+01 -0.26690990191E+02  0.32768496235E+02  0.43090648899E+02  0.00000000000E+00 0. -1.
          1    1    6    6  503    0  0.11467784762E+03  0.10940331501E+03 -0.28258114332E+02  0.16099259329E+03  0.00000000000E+00 0. -1.
         -1    1    6    6    0  503  0.29369507592E+03  0.40689442106E+03  0.50135879628E+02  0.50431485595E+03  0.00000000000E+00 0.  1.
<mgrwt>
<rscale>  0 0.18039313E+04</rscale>
<asrwt>0</asrwt>
<pdfrwt beam="1">  1        2 0.13421937E+00 0.18039313E+04</pdfrwt>
<pdfrwt beam="2">  1       -1 0.14346239E+00 0.18039313E+04</pdfrwt>
<totfact> 0.12964547E+01</totfact>
</mgrwt>
</event>
<event>
12    7  0.1637954E-007  0.2200502E+04  0.7818608E-02  0.8518219E-01
         -1   -1    0    0    0  501 -0.00000000000E+00  0.00000000000E+00  0.13236692228E+04  0.13236692228E+04  0.00000000000E+00 0.  1.
          2   -1    0    0  501    0  0.00000000000E+00 -0.00000000000E+00 -0.91454252332E+03  0.91454252332E+03  0.00000000000E+00 0. -1.
         24    2    1    2    0    0  0.20763943084E+03  0.60828967937E+03 -0.48038897494E+03  0.80633768287E+03  0.79223887249E+02 0.  0.
        254    2    1    2    0    0 -0.20763943084E+03 -0.60828967937E+03  0.88951567438E+03  0.14318740632E+04  0.91972535612E+03 0.  0.
         23    2    4    4    0    0 -0.11602262649E+03 -0.59079399253E+03  0.83395223410E+02  0.61475105296E+03  0.92007077740E+02 0.  0.
         23    2    4    4    0    0 -0.91616804354E+02 -0.17495686834E+02  0.80612045097E+03  0.81712301027E+03  0.95708382776E+02 0.  0.
          4    1    3    3  502    0  0.21409577524E+03  0.58956274897E+03 -0.45939331250E+03  0.77747247637E+03  0.00000000000E+00 0. -1.
         -3    1    3    3    0  502 -0.64563443943E+01  0.18726930397E+02 -0.20995662432E+02  0.28865206495E+02  0.00000000000E+00 0.  1.
         13    1    5    5    0    0 -0.10441535219E+03 -0.54573559650E+03  0.50823996455E+02  0.55795428637E+03  0.00000000000E+00 0. -1.
        -13    1    5    5    0    0 -0.11607274302E+02 -0.45058396034E+02  0.32571226955E+02  0.56796766591E+02  0.00000000000E+00 0.  1.
          4    1    6    6  503    0 -0.57460688640E+02 -0.35835464230E+02  0.71363244973E+03  0.71683832525E+03  0.00000000000E+00 0. -1.
         -4    1    6    6    0  503 -0.34156115715E+02  0.18339777395E+02  0.92488001238E+02  0.10028468502E+03  0.00000000000E+00 0.  1.
<mgrwt>
<rscale>  0 0.22005016E+04</rscale>
<asrwt>0</asrwt>
<pdfrwt beam="1">  1        2 0.14069885E+00 0.22005016E+04</pdfrwt>
<pdfrwt beam="2">  1       -1 0.20364142E+00 0.22005016E+04</pdfrwt>
<totfact> 0.42456166E+00</totfact>
</mgrwt>
</event>
<event>
12    7  0.1637954E-007  0.2349294E+04  0.7818608E-02  0.8458735E-01
          2   -1    0    0  501    0  0.00000000000E+00  0.00000000000E+00  0.20279323345E+04  0.20279323345E+04  0.00000000000E+00 0. -1.
         -1   -1    0    0    0  501 -0.00000000000E+00 -0.00000000000E+00 -0.68039554523E+03  0.68039554523E+03  0.00000000000E+00 0.  1.
         24    2    1    2    0    0  0.13481318947E+02  0.97875438966E+03  0.33071145385E+03  0.10362999591E+04  0.80035231986E+02 0.  0.
        254    2    1    2    0    0 -0.13481318947E+02 -0.97875438966E+03  0.10168253354E+04  0.16720279206E+04  0.89643834326E+03 0.  0.
         23    2    4    4    0    0  0.22337297833E+03 -0.87260489803E+03  0.10596155409E+04  0.13937404778E+04  0.91611296138E+02 0.  0.
         23    2    4    4    0    0 -0.23685429728E+03 -0.10614949163E+03 -0.42790205469E+02  0.27828744275E+03  0.90803228993E+02 0.  0.
          2    1    3    3  502    0  0.37769920336E+02  0.65436575061E+03  0.19517267194E+03  0.68389580662E+03  0.00000000000E+00 0. -1.
         -1    1    3    3    0  502 -0.24288601390E+02  0.32438863905E+03  0.13553878191E+03  0.35240415251E+03  0.00000000000E+00 0.  1.
         13    1    5    5    0    0  0.91020128043E+01 -0.16680989901E+03  0.17453422820E+03  0.24160005351E+03  0.00000000000E+00 0. -1.
        -13    1    5    5    0    0  0.21427096553E+03 -0.70579499902E+03  0.88508131269E+03  0.11521404243E+04  0.00000000000E+00 0.  1.
          1    1    6    6  503    0 -0.15843242672E+03 -0.23454267969E+02 -0.35766422669E+02  0.16410415447E+03  0.00000000000E+00 0. -1.
         -1    1    6    6    0  503 -0.78421870558E+02 -0.82695223664E+02 -0.70237828000E+01  0.11418328828E+03  0.00000000000E+00 0.  1.
<mgrwt>
<rscale>  0 0.23492945E+04</rscale>
<asrwt>0</asrwt>
<pdfrwt beam="1">  1        2 0.31198959E+00 0.23492945E+04</pdfrwt>
<pdfrwt beam="2">  1       -1 0.10467624E+00 0.23492945E+04</pdfrwt>
<totfact> 0.56797265E+00</totfact>
</mgrwt>
</event>
<event>
12    7  0.1637954E-007  0.2469340E+04  0.7818608E-02  0.8413991E-01
         -1   -1    0    0    0  501 -0.00000000000E+00  0.00000000000E+00  0.62656750869E+03  0.62656750869E+03  0.00000000000E+00 0.  1.
          2   -1    0    0  501    0  0.00000000000E+00 -0.00000000000E+00 -0.24329533518E+04  0.24329533518E+04  0.00000000000E+00 0. -1.
         24    2    1    2    0    0  0.16584947093E+03  0.10539965243E+04 -0.85098563998E+03  0.13671189900E+04  0.80143952255E+02 0.  0.
        254    2    1    2    0    0 -0.16584947093E+03 -0.10539965243E+04 -0.95540020314E+03  0.16924018705E+04  0.90167611866E+03 0.  0.
         23    2    4    4    0    0 -0.45678791553E+03 -0.79930890549E+03 -0.90042065125E+03  0.12909171447E+04  0.90331606527E+02 0.  0.
         23    2    4    4    0    0  0.29093844460E+03 -0.25468761880E+03 -0.54979551891E+02  0.40148472581E+03  0.93039089741E+02 0.  0.
          2    1    3    3  502    0  0.10966957748E+03  0.73546165473E+03 -0.63857559328E+03  0.98015817607E+03  0.00000000000E+00 0. -1.
         -1    1    3    3    0  502  0.56179893457E+02  0.31853486957E+03 -0.21241004671E+03  0.38696081391E+03  0.00000000000E+00 0.  1.
         13    1    5    5    0    0 -0.27360987479E+03 -0.56381179831E+03 -0.61070201578E+03  0.87504460433E+03  0.00000000000E+00 0. -1.
        -13    1    5    5    0    0 -0.18317804075E+03 -0.23549710718E+03 -0.28971863547E+03  0.41587254038E+03  0.00000000000E+00 0.  1.
          2    1    6    6  503    0  0.27192565904E+03 -0.25139009629E+03 -0.32335601131E+02  0.37173395817E+03  0.00000000000E+00 0. -1.
         -2    1    6    6    0  503  0.19012785556E+02 -0.32975225136E+01 -0.22643950759E+02  0.29750767642E+02  0.00000000000E+00 0.  1.
<mgrwt>
<rscale>  0 0.24693396E+04</rscale>
<asrwt>0</asrwt>
<pdfrwt beam="1">  1        2 0.37430052E+00 0.24693396E+04</pdfrwt>
<pdfrwt beam="2">  1       -1 0.96395001E-01 0.24693396E+04</pdfrwt>
<totfact> 0.40099868E+00</totfact>
</mgrwt>
</event>
<event>
12    7  0.1637954E-007  0.1032195E+04  0.7818608E-02  0.9273922E-01
         -1   -1    0    0    0  501 -0.00000000000E+00  0.00000000000E+00  0.26323797660E+03  0.26323797660E+03  0.00000000000E+00 0.  1.
          2   -1    0    0  501    0  0.00000000000E+00 -0.00000000000E+00 -0.10118471946E+04  0.10118471946E+04  0.00000000000E+00 0. -1.
         24    2    1    2    0    0 -0.10388665260E+03  0.90216470611E+01 -0.44466728424E+02  0.13690545509E+03  0.76759279519E+02 0.  0.
        254    2    1    2    0    0  0.10388665260E+03 -0.90216470611E+01 -0.70414248962E+03  0.11381797161E+04  0.88812307360E+03 0.  0.
         23    2    4    4    0    0 -0.25885600426E+03  0.28641226612E+03 -0.19659209841E+03  0.44232227624E+03  0.89230744576E+02 0.  0.
         23    2    4    4    0    0  0.36274265686E+03 -0.29543391318E+03 -0.50755039121E+03  0.69585743990E+03  0.88015594546E+02 0.  0.
          2    1    3    3  502    0  0.88947619157E+01 -0.11338034025E+02 -0.87738404431E+01  0.16871516862E+02  0.00000000000E+00 0. -1.
         -1    1    3    3    0  502 -0.11278141451E+03  0.20359681086E+02 -0.35692887981E+02  0.12003393822E+03  0.00000000000E+00 0.  1.
         13    1    5    5    0    0 -0.56529516045E+02  0.25601191807E+02 -0.55826558041E+02  0.83472221660E+02  0.00000000000E+00 0. -1.
        -13    1    5    5    0    0 -0.20232648822E+03  0.26081107432E+03 -0.14076554036E+03  0.35885005458E+03  0.00000000000E+00 0.  1.
          1    1    6    6  503    0  0.35980315766E+03 -0.27218323175E+03 -0.49298799928E+03  0.66826580890E+03  0.00000000000E+00 0. -1.
         -1    1    6    6    0  503  0.29394991997E+01 -0.23250681434E+02 -0.14562391930E+02  0.27591631003E+02  0.00000000000E+00 0.  1.
<mgrwt>
<rscale>  0 0.10321950E+04</rscale>
<asrwt>0</asrwt>
<pdfrwt beam="1">  1        2 0.15566880E+00 0.10321950E+04</pdfrwt>
<pdfrwt beam="2">  1       -1 0.40498151E-01 0.10321950E+04</pdfrwt>
<totfact> 0.16733566E+02</totfact>
</mgrwt>
</event>
<event>
12    7  0.1637954E-007  0.1588378E+04  0.7818608E-02  0.8827720E-01
          2   -1    0    0  501    0  0.00000000000E+00  0.00000000000E+00  0.68890406332E+03  0.68890406332E+03  0.00000000000E+00 0. -1.
         -1   -1    0    0    0  501 -0.00000000000E+00 -0.00000000000E+00 -0.91556409400E+03  0.91556409400E+03  0.00000000000E+00 0.  1.
         24    2    1    2    0    0  0.28113144176E+03  0.18293538090E+03 -0.48075357241E+03  0.59158647003E+03  0.79688851223E+02 0.  0.
        254    2    1    2    0    0 -0.28113144176E+03 -0.18293538090E+03  0.25409354173E+03  0.10128816873E+04  0.92133899482E+03 0.  0.
         23    2    4    4    0    0  0.21694989817E+03  0.19394100132E+03 -0.54134535851E+02  0.30988807870E+03  0.91758939819E+02 0.  0.
         23    2    4    4    0    0 -0.49808133993E+03 -0.37687638222E+03  0.30822807758E+03  0.70299360859E+03  0.95260890479E+02 0.  0.
          4    1    3    3  502    0  0.97614357293E+02  0.23643494022E+02 -0.11795082245E+03  0.15491925018E+03  0.00000000000E+00 0. -1.
         -3    1    3    3    0  502  0.18351708447E+03  0.15929188688E+03 -0.36280274996E+03  0.43666721985E+03  0.00000000000E+00 0.  1.
         13    1    5    5    0    0  0.21232164672E+03  0.14908174453E+03 -0.52909953042E+02  0.26477407605E+03  0.00000000000E+00 0. -1.
        -13    1    5    5    0    0  0.46282514457E+01  0.44859256790E+02 -0.12245828090E+01  0.45114002640E+02  0.00000000000E+00 0.  1.
          1    1    6    6  503    0 -0.24191725733E+03 -0.14119476313E+03  0.17499846736E+03  0.33027925171E+03  0.00000000000E+00 0.  1.
         -1    1    6    6    0  503 -0.25616408260E+03 -0.23568161909E+03  0.13322961022E+03  0.37271435689E+03  0.00000000000E+00 0. -1.
<mgrwt>
<rscale>  0 0.15883776E+04</rscale>
<asrwt>0</asrwt>
<pdfrwt beam="1">  1        2 0.10598524E+00 0.15883776E+04</pdfrwt>
<pdfrwt beam="2">  1       -1 0.14085601E+00 0.15883776E+04</pdfrwt>
<totfact> 0.18908962E+01</totfact>
</mgrwt>
</event>
<event>
12    7  0.1637954E-007  0.2240058E+04  0.7818608E-02  0.8501938E-01
          2   -1    0    0  501    0  0.00000000000E+00  0.00000000000E+00  0.17897318030E+04  0.17897318030E+04  0.00000000000E+00 0. -1.
         -1   -1    0    0    0  501 -0.00000000000E+00 -0.00000000000E+00 -0.70092333286E+03  0.70092333286E+03  0.00000000000E+00 0.  1.
         24    2    1    2    0    0  0.14362783812E+03 -0.17301606737E+03 -0.55454682453E+03  0.60365656549E+03  0.79470453716E+02 0.  0.
        254    2    1    2    0    0 -0.14362783812E+03  0.17301606737E+03  0.16433552947E+04  0.18869985704E+04  0.89976856172E+03 0.  0.
         23    2    4    4    0    0  0.28171085083E+03  0.13744579992E+03  0.12749755087E+04  0.13160222438E+04  0.89998039636E+02 0.  0.
         23    2    4    4    0    0 -0.42533868895E+03  0.35570267452E+02  0.36837978599E+03  0.57097632655E+03  0.90177904781E+02 0.  0.
          4    1    3    3  502    0 -0.10065285787E+02 -0.14255902386E+02 -0.44694945003E+02  0.47981025829E+02  0.00000000000E+00 0. -1.
         -1    1    3    3    0  502  0.15369312391E+03 -0.15876016499E+03 -0.50985187952E+03  0.55567553966E+03  0.00000000000E+00 0.  1.
         13    1    5    5    0    0  0.24536043132E+03  0.10848095531E+03  0.11821788679E+04  0.12122362536E+04  0.00000000000E+00 0. -1.
        -13    1    5    5    0    0  0.36350419506E+02  0.28964844610E+02  0.92796640829E+02  0.10378599024E+03  0.00000000000E+00 0.  1.
          2    1    6    6  503    0 -0.32817572063E+03  0.25761834502E+02  0.22986977353E+03  0.40150104422E+03  0.00000000000E+00 0. -1.
         -2    1    6    6    0  503 -0.97162968325E+02  0.98084329503E+01  0.13851001246E+03  0.16947528233E+03  0.00000000000E+00 0.  1.
<mgrwt>
<rscale>  0 0.22400578E+04</rscale>
<asrwt>0</asrwt>
<pdfrwt beam="1">  1        2 0.27534335E+00 0.22400578E+04</pdfrwt>
<pdfrwt beam="2">  1       -1 0.10783436E+00 0.22400578E+04</pdfrwt>
<totfact> 0.72533243E+00</totfact>
</mgrwt>
</event>
<event>
12    7  0.1637954E-007  0.2435608E+04  0.7818608E-02  0.8426292E-01
         -1   -1    0    0    0  501 -0.00000000000E+00  0.00000000000E+00  0.65010137723E+03  0.65010137723E+03  0.00000000000E+00 0.  1.
          2   -1    0    0  501    0  0.00000000000E+00 -0.00000000000E+00 -0.22812543561E+04  0.22812543561E+04  0.00000000000E+00 0. -1.
         24    2    1    2    0    0 -0.56603355392E+03  0.63938176278E+03  0.32218328460E+02  0.85743191145E+03  0.70345144464E+02 0.  0.
        254    2    1    2    0    0  0.56603355392E+03 -0.63938176278E+03 -0.16633713074E+04  0.20739238219E+04  0.89730312056E+03 0.  0.
         23    2    4    4    0    0  0.26997805459E+03  0.13411934762E+03 -0.15511353841E+03  0.35076738557E+03  0.90007775298E+02 0.  0.
         23    2    4    4    0    0  0.29605549934E+03 -0.77350111039E+03 -0.15082577689E+04  0.17231564363E+04  0.92053137049E+02 0.  0.
          4    1    3    3  502    0 -0.91405136468E+02  0.79766863256E+02 -0.14395622923E+02  0.12216744822E+03  0.00000000000E+00 0. -1.
         -3    1    3    3    0  502 -0.47462841745E+03  0.55961489952E+03  0.46613951383E+02  0.73526446323E+03  0.00000000000E+00 0.  1.
         13    1    5    5    0    0  0.19213104952E+03  0.12339770881E+03 -0.14744717639E+03  0.27181244371E+03  0.00000000000E+00 0. -1.
        -13    1    5    5    0    0  0.77847005064E+02  0.10721638802E+02 -0.76663620175E+01  0.78954941850E+02  0.00000000000E+00 0.  1.
          1    1    6    6  503    0  0.26875262891E+03 -0.67498073862E+03 -0.12562837966E+04  0.14512325626E+04  0.00000000000E+00 0. -1.
         -1    1    6    6    0  503  0.27302870431E+02 -0.98520371778E+02 -0.25197397234E+03  0.27192387377E+03  0.00000000000E+00 0.  1.
<mgrwt>
<rscale>  0 0.24356080E+04</rscale>
<asrwt>0</asrwt>
<pdfrwt beam="1">  1        2 0.35096221E+00 0.24356080E+04</pdfrwt>
<pdfrwt beam="2">  1       -1 0.10001560E+00 0.24356080E+04</pdfrwt>
<totfact> 0.45145354E+00</totfact>
</mgrwt>
</event>
<event>
12    7  0.1637954E-007  0.1777115E+04  0.7818608E-02  0.8718565E-01
          2   -1    0    0  501    0  0.00000000000E+00  0.00000000000E+00  0.17415952829E+04  0.17415952829E+04  0.00000000000E+00 0. -1.
         -1   -1    0    0    0  501 -0.00000000000E+00 -0.00000000000E+00 -0.45333992923E+03  0.45333992923E+03  0.00000000000E+00 0.  1.
         24    2    1    2    0    0  0.29584687286E+03  0.15801075119E+03  0.11966875024E+04  0.12452813597E+04  0.78561547780E+02 0.  0.
        254    2    1    2    0    0 -0.29584687286E+03 -0.15801075119E+03  0.91567851193E+02  0.94965385233E+03  0.88372224042E+03 0.  0.
         23    2    4    4    0    0 -0.50035426130E+03 -0.22564455561E+03 -0.18494351610E+03  0.58661429836E+03  0.92964394328E+02 0.  0.
         23    2    4    4    0    0  0.20450738844E+03  0.67633804426E+02  0.27651136729E+03  0.36303955397E+03  0.94559917942E+02 0.  0.
          4    1    3    3  502    0  0.12783653567E+02  0.22450317360E+02  0.16181780703E+03  0.16386714503E+03  0.00000000000E+00 0. -1.
         -3    1    3    3    0  502  0.28306321929E+03  0.13556043383E+03  0.10348696954E+04  0.10814142147E+04  0.00000000000E+00 0.  1.
         13    1    5    5    0    0 -0.37738387960E+03 -0.15483184875E+03 -0.95715696636E+02  0.41899043969E+03  0.00000000000E+00 0. -1.
        -13    1    5    5    0    0 -0.12297038170E+03 -0.70812706857E+02 -0.89227819462E+02  0.16762385866E+03  0.00000000000E+00 0.  1.
          1    1    6    6  503    0  0.57685533312E+02  0.14904684161E+02  0.15258336437E+03  0.16380309352E+03  0.00000000000E+00 0. -1.
         -1    1    6    6    0  503  0.14682185513E+03  0.52729120265E+02  0.12392800292E+03  0.19923646046E+03  0.00000000000E+00 0.  1.
<mgrwt>
<rscale>  0 0.17771153E+04</rscale>
<asrwt>0</asrwt>
<pdfrwt beam="1">  1        2 0.26793773E+00 0.17771153E+04</pdfrwt>
<pdfrwt beam="2">  1       -1 0.69744606E-01 0.17771153E+04</pdfrwt>
<totfact> 0.20822235E+01</totfact>
</mgrwt>
</event>
<event>
12    7  0.1637954E-007  0.1304662E+04  0.7818608E-02  0.9025877E-01
         -1   -1    0    0    0  501 -0.00000000000E+00  0.00000000000E+00  0.60769564410E+03  0.60769564410E+03  0.00000000000E+00 0.  1.
          2   -1    0    0  501    0  0.00000000000E+00 -0.00000000000E+00 -0.70024444483E+03  0.70024444483E+03  0.00000000000E+00 0. -1.
         24    2    1    2    0    0 -0.48748661366E+02 -0.10861607098E+03  0.27650545079E+03  0.31387167956E+03  0.88804752437E+02 0.  0.
        254    2    1    2    0    0  0.48748661366E+02  0.10861607098E+03 -0.36905425152E+03  0.99406840937E+03  0.91531255814E+03 0.  0.
         23    2    4    4    0    0  0.17483464003E+03  0.43672326958E+03 -0.36573975877E+01  0.47936752802E+03  0.92116691287E+02 0.  0.
         23    2    4    4    0    0 -0.12608597867E+03 -0.32810719860E+03 -0.36539685393E+03  0.51470088136E+03  0.88600951550E+02 0.  0.
          2    1    3    3  502    0  0.21584881617E+02 -0.42564093797E+02  0.58707629089E+02  0.75658409370E+02  0.00000000000E+00 0. -1.
         -1    1    3    3    0  502 -0.70333542983E+02 -0.66051977181E+02  0.21779782170E+03  0.23821327019E+03  0.00000000000E+00 0.  1.
         13    1    5    5    0    0  0.82725373807E+02  0.26667415321E+03 -0.41585365109E+02  0.28229051357E+03  0.00000000000E+00 0. -1.
        -13    1    5    5    0    0  0.92109266224E+02  0.17004911637E+03  0.37927967521E+02  0.19707701445E+03  0.00000000000E+00 0.  1.
          1    1    6    6  503    0 -0.54202544282E+02 -0.15664026439E+03 -0.11053502721E+03  0.19922871398E+03  0.00000000000E+00 0. -1.
         -1    1    6    6    0  503 -0.71883434383E+02 -0.17146693421E+03 -0.25486182673E+03  0.31547216737E+03  0.00000000000E+00 0.  1.
<mgrwt>
<rscale>  0 0.13046616E+04</rscale>
<asrwt>0</asrwt>
<pdfrwt beam="1">  1        2 0.10772991E+00 0.13046616E+04</pdfrwt>
<pdfrwt beam="2">  1       -1 0.93491638E-01 0.13046616E+04</pdfrwt>
<totfact> 0.50900641E+01</totfact>
</mgrwt>
</event>
<event>
12    7  0.1637954E-007  0.1661440E+04  0.7818608E-02  0.8783667E-01
          2   -1    0    0  501    0  0.00000000000E+00  0.00000000000E+00  0.17705016078E+04  0.17705016078E+04  0.00000000000E+00 0. -1.
         -1   -1    0    0    0  501 -0.00000000000E+00 -0.00000000000E+00 -0.38977402346E+03  0.38977402346E+03  0.00000000000E+00 0.  1.
         24    2    1    2    0    0 -0.40047081337E+03  0.19656465904E+03  0.15235035479E+01  0.45326029436E+03  0.80175032497E+02 0.  0.
        254    2    1    2    0    0  0.40047081337E+03 -0.19656465904E+03  0.13792040808E+04  0.17070153369E+04  0.90148928244E+03 0.  0.
         23    2    4    4    0    0 -0.20059724899E+03 -0.35389809502E+02  0.86648643287E+03  0.89566331822E+03  0.99610974940E+02 0.  0.
         23    2    4    4    0    0  0.60106806236E+03 -0.16117484954E+03  0.51271764791E+03  0.81135201866E+03  0.90291549997E+02 0.  0.
          2    1    3    3  502    0 -0.80782702881E+02  0.77723039834E+02  0.43515396625E+01  0.11218579190E+03  0.00000000000E+00 0. -1.
         -1    1    3    3    0  502 -0.31968811049E+03  0.11884161921E+03 -0.28280361146E+01  0.34107450247E+03  0.00000000000E+00 0.  1.
         13    1    5    5    0    0 -0.10186860103E+03  0.87609969229E+01  0.58969242739E+03  0.59849070658E+03  0.00000000000E+00 0. -1.
        -13    1    5    5    0    0 -0.98728647954E+02 -0.44150806425E+02  0.27679400549E+03  0.29717261164E+03  0.00000000000E+00 0.  1.
          3    1    6    6  503    0  0.14053801372E+03 -0.67728335213E+02  0.95271331935E+02  0.18279684729E+03  0.00000000000E+00 0. -1.
         -3    1    6    6    0  503  0.46053004864E+03 -0.93446514329E+02  0.41744631597E+03  0.62855517137E+03  0.00000000000E+00 0.  1.
<mgrwt>
<rscale>  0 0.16614398E+04</rscale>
<asrwt>0</asrwt>
<pdfrwt beam="1">  1        2 0.27238486E+00 0.16614398E+04</pdfrwt>
<pdfrwt beam="2">  1       -1 0.59965236E-01 0.16614398E+04</pdfrwt>
<totfact> 0.27468655E+01</totfact>
</mgrwt>
</event>
<event>
12    7  0.1637954E-007  0.1761101E+04  0.7818608E-02  0.8727263E-01
         -1   -1    0    0    0  501 -0.00000000000E+00  0.00000000000E+00  0.36774672445E+03  0.36774672445E+03  0.00000000000E+00 0.  1.
          2   -1    0    0  501    0  0.00000000000E+00 -0.00000000000E+00 -0.21084325944E+04  0.21084325944E+04  0.00000000000E+00 0. -1.
         24    2    1    2    0    0 -0.56204666251E+03 -0.27398718198E+03 -0.40536168282E+03  0.75003316650E+03  0.85242185744E+02 0.  0.
        254    2    1    2    0    0  0.56204666251E+03  0.27398718198E+03 -0.13353241872E+04  0.17261461524E+04  0.89751012685E+03 0.  0.
         23    2    4    4    0    0  0.43226436504E+03  0.40974352636E+03 -0.13856055321E+04  0.15109053780E+04  0.90499348609E+02 0.  0.
         23    2    4    4    0    0  0.12978229747E+03 -0.13575634438E+03  0.50281344924E+02  0.21524077435E+03  0.92342555314E+02 0.  0.
          2    1    3    3  502    0 -0.74672418852E+02 -0.24243637543E+02 -0.84409989054E+02  0.11527692896E+03  0.00000000000E+00 0. -1.
         -1    1    3    3    0  502 -0.48737424366E+03 -0.24974354444E+03 -0.32095169376E+03  0.63475623754E+03  0.00000000000E+00 0.  1.
         13    1    5    5    0    0  0.11151709826E+02  0.41082177240E+02 -0.88697745722E+02  0.98383921527E+02  0.00000000000E+00 0.  1.
        -13    1    5    5    0    0  0.42111265521E+03  0.36866134912E+03 -0.12969077864E+04  0.14125214565E+04  0.00000000000E+00 0. -1.
          4    1    6    6  503    0  0.98586186749E+02 -0.84047452497E+02  0.75332512794E+02  0.14986059513E+03  0.00000000000E+00 0. -1.
         -4    1    6    6    0  503  0.31196110721E+02 -0.51708891882E+02 -0.25051167870E+02  0.65380179225E+02  0.00000000000E+00 0.  1.
<mgrwt>
<rscale>  0 0.17611010E+04</rscale>
<asrwt>0</asrwt>
<pdfrwt beam="1">  1        2 0.32437425E+00 0.17611010E+04</pdfrwt>
<pdfrwt beam="2">  1       -1 0.56576419E-01 0.17611010E+04</pdfrwt>
<totfact> 0.19824578E+01</totfact>
</mgrwt>
</event>
<event>
12    7  0.1637954E-007  0.1342914E+04  0.7818608E-02  0.8996210E-01
         -1   -1    0    0    0  501 -0.00000000000E+00  0.00000000000E+00  0.90091979476E+03  0.90091979476E+03  0.00000000000E+00 0.  1.
          2   -1    0    0  501    0  0.00000000000E+00 -0.00000000000E+00 -0.50043796934E+03  0.50043796934E+03  0.00000000000E+00 0. -1.
         24    2    1    2    0    0  0.28588589461E+03  0.18097990744E+03  0.22559916190E+03  0.41453374904E+03  0.80366508005E+02 0.  0.
        254    2    1    2    0    0 -0.28588589461E+03 -0.18097990744E+03  0.17488266351E+03  0.98682401505E+03  0.91035884082E+03 0.  0.
         23    2    4    4    0    0 -0.12385347808E+03  0.33842578553E+02  0.51796565468E+03  0.54164761880E+03  0.92783184706E+02 0.  0.
         23    2    4    4    0    0 -0.16203241653E+03 -0.21482248599E+03 -0.34308299117E+03  0.44517639625E+03  0.89849209538E+02 0.  0.
          2    1    3    3  502    0  0.49745668764E+02  0.24939703267E+02  0.53636000419E+01  0.55905174763E+02  0.00000000000E+00 0. -1.
         -3    1    3    3    0  502  0.23614022585E+03  0.15604020417E+03  0.22023556186E+03  0.35862857428E+03  0.00000000000E+00 0.  1.
         13    1    5    5    0    0  0.14218144894E+02 -0.99061351295E+00  0.75471413209E+02  0.76805411079E+02  0.00000000000E+00 0. -1.
        -13    1    5    5    0    0 -0.13807162297E+03  0.34833192066E+02  0.44249424148E+03  0.46484220772E+03  0.00000000000E+00 0.  1.
          1    1    6    6  503    0 -0.72164213793E+02 -0.62933540416E+02 -0.18469956976E+03  0.20804383031E+03  0.00000000000E+00 0. -1.
         -1    1    6    6    0  503 -0.89868202741E+02 -0.15188894557E+03 -0.15838342141E+03  0.23713256594E+03  0.00000000000E+00 0.  1.
<mgrwt>
<rscale>  0 0.13429140E+04</rscale>
<asrwt>0</asrwt>
<pdfrwt beam="1">  1        2 0.76990457E-01 0.13429140E+04</pdfrwt>
<pdfrwt beam="2">  1       -1 0.13860305E+00 0.13429140E+04</pdfrwt>
<totfact> 0.29585792E+01</totfact>
</mgrwt>
</event>
<event>
12    7  0.1637954E-007  0.1336425E+04  0.7818608E-02  0.9001168E-01
         -1   -1    0    0    0  501 -0.00000000000E+00  0.00000000000E+00  0.55178180798E+03  0.55178180798E+03  0.00000000000E+00 0.  1.
          2   -1    0    0  501    0  0.00000000000E+00 -0.00000000000E+00 -0.80921124368E+03  0.80921124368E+03  0.00000000000E+00 0. -1.
         24    2    1    2    0    0 -0.20837105492E+03 -0.14964974420E+02 -0.37105552029E+03  0.43300133857E+03  0.78520781206E+02 0.  0.
        254    2    1    2    0    0  0.20837105492E+03  0.14964974420E+02  0.11362608460E+03  0.92799171308E+03  0.89700350360E+03 0.  0.
         23    2    4    4    0    0  0.30916879906E+03 -0.46501934114E+02 -0.32758943631E+03  0.46220480489E+03  0.92577895241E+02 0.  0.
         23    2    4    4    0    0 -0.10079774413E+03  0.61466908534E+02  0.44121552091E+03  0.46578690820E+03  0.91367072228E+02 0.  0.
          2    1    3    3  502    0 -0.19968737705E+03 -0.24797490690E+02 -0.30324335867E+03  0.36393199733E+03  0.00000000000E+00 0. -1.
         -1    1    3    3    0  502 -0.86836778733E+01  0.98325162700E+01 -0.67812161616E+02  0.69069341249E+02  0.00000000000E+00 0.  1.
         13    1    5    5    0    0  0.94998629505E+02  0.14052969199E+02 -0.14700640300E+03  0.17559358780E+03  0.00000000000E+00 0. -1.
        -13    1    5    5    0    0  0.21417016955E+03 -0.60554903313E+02 -0.18058303331E+03  0.28661121709E+03  0.00000000000E+00 0.  1.
          1    1    6    6  503    0 -0.21285706006E+02 -0.15947920506E+02  0.31099716388E+02  0.40921996629E+02  0.00000000000E+00 0. -1.
         -1    1    6    6    0  503 -0.79512038129E+02  0.77414829040E+02  0.41011580452E+03  0.42486491157E+03  0.00000000000E+00 0.  1.
<mgrwt>
<rscale>  0 0.13364251E+04</rscale>
<asrwt>0</asrwt>
<pdfrwt beam="1">  1        2 0.12449404E+00 0.13364251E+04</pdfrwt>
<pdfrwt beam="2">  1       -1 0.84889509E-01 0.13364251E+04</pdfrwt>
<totfact> 0.52009662E+01</totfact>
</mgrwt>
</event>
<event>
12    7  0.1637954E-007  0.2433648E+04  0.7818608E-02  0.8427013E-01
         -1   -1    0    0    0  501 -0.00000000000E+00  0.00000000000E+00  0.73484519454E+03  0.73484519454E+03  0.00000000000E+00 0.  1.
          2   -1    0    0  501    0  0.00000000000E+00 -0.00000000000E+00 -0.20149286981E+04  0.20149286981E+04  0.00000000000E+00 0. -1.
         24    2    1    2    0    0  0.78074094937E+02 -0.10440123924E+04 -0.55389966508E+03  0.11870333450E+04  0.78650387020E+02 0.  0.
        254    2    1    2    0    0 -0.78074094937E+02  0.10440123924E+04 -0.72618383848E+03  0.15627405477E+04  0.90485225997E+03 0.  0.
         23    2    4    4    0    0  0.20282925092E+03 -0.67622502164E+02 -0.10381603212E+03  0.25497382700E+03  0.92311299988E+02 0.  0.
         23    2    4    4    0    0 -0.28090334585E+03  0.11116348945E+04 -0.62236780636E+03  0.13077667207E+04  0.90957577297E+02 0.  0.
          4    1    3    3  502    0  0.67533001430E+02 -0.61755180398E+03 -0.36465499018E+03  0.72035005292E+03  0.00000000000E+00 0. -1.
         -3    1    3    3    0  502  0.10541093507E+02 -0.42646058838E+03 -0.18924467491E+03  0.46668329204E+03  0.00000000000E+00 0.  1.
         13    1    5    5    0    0  0.18418827287E+03 -0.56951314456E+02 -0.12086919882E+03  0.22754809449E+03  0.00000000000E+00 0. -1.
        -13    1    5    5    0    0  0.18640978041E+02 -0.10671187708E+02  0.17053166699E+02  0.27425732513E+02  0.00000000000E+00 0.  1.
          4    1    6    6  503    0 -0.28152787058E+03  0.10805444628E+04 -0.61838885415E+03  0.12764164888E+04  0.00000000000E+00 0. -1.
         -4    1    6    6    0  503  0.62452472393E+00  0.31090431766E+02 -0.39789522083E+01  0.31350231885E+02  0.00000000000E+00 0.  1.
<mgrwt>
<rscale>  0 0.24336480E+04</rscale>
<asrwt>0</asrwt>
<pdfrwt beam="1">  1        2 0.30998903E+00 0.24336480E+04</pdfrwt>
<pdfrwt beam="2">  1       -1 0.11305311E+00 0.24336480E+04</pdfrwt>
<totfact> 0.47824441E+00</totfact>
</mgrwt>
</event>
<event>
12    7  0.1637954E-007  0.1615544E+04  0.7818608E-02  0.8811055E-01
          2   -1    0    0  501    0  0.00000000000E+00  0.00000000000E+00  0.98396775568E+03  0.98396775568E+03  0.00000000000E+00 0. -1.
         -1   -1    0    0    0  501 -0.00000000000E+00 -0.00000000000E+00 -0.66312728265E+03  0.66312728265E+03  0.00000000000E+00 0.  1.
         24    2    1    2    0    0  0.22725753779E+03  0.42143269429E+03  0.40458074851E+03  0.63363141795E+03  0.92475334262E+02 0.  0.
        254    2    1    2    0    0 -0.22725753779E+03 -0.42143269429E+03 -0.83740275475E+02  0.10134636204E+04  0.88929442357E+03 0.  0.
         23    2    4    4    0    0 -0.24468059189E+02 -0.50044098848E+03  0.27884914131E+03  0.58055182590E+03  0.90794879143E+02 0.  0.
         23    2    4    4    0    0 -0.20278947860E+03  0.79008294184E+02 -0.36258941679E+03  0.43291179448E+03  0.92604824111E+02 0.  0.
          4    1    3    3  502    0  0.33637568970E+02  0.17498049551E+02  0.18136226580E+02  0.42030827959E+02  0.00000000000E+00 0. -1.
         -3    1    3    3    0  502  0.19361996882E+03  0.40393464474E+03  0.38644452193E+03  0.59160058999E+03  0.00000000000E+00 0.  1.
         13    1    5    5    0    0  0.13240972382E+02 -0.43379861602E+02  0.31895513282E+01  0.45467669612E+02  0.00000000000E+00 0.  1.
        -13    1    5    5    0    0 -0.37709031571E+02 -0.45706112688E+03  0.27565958998E+03  0.53508415629E+03  0.00000000000E+00 0. -1.
          4    1    6    6  503    0 -0.13347944788E+03  0.84183060951E+02 -0.30183094962E+03  0.34059576172E+03  0.00000000000E+00 0. -1.
         -4    1    6    6    0  503 -0.69310030728E+02 -0.51747667670E+01 -0.60758467169E+02  0.92316032753E+02  0.00000000000E+00 0.  1.
<mgrwt>
<rscale>  0 0.16155443E+04</rscale>
<asrwt>0</asrwt>
<pdfrwt beam="1">  1        2 0.15137965E+00 0.16155443E+04</pdfrwt>
<pdfrwt beam="2">  1       -1 0.10201958E+00 0.16155443E+04</pdfrwt>
<totfact> 0.25665947E+01</totfact>
</mgrwt>
</event>
<event>
12    7  0.1637954E-007  0.1913102E+04  0.7818608E-02  0.8648362E-01
         -1   -1    0    0    0  501 -0.00000000000E+00  0.00000000000E+00  0.27902469302E+03  0.27902469302E+03  0.00000000000E+00 0.  1.
          2   -1    0    0  501    0  0.00000000000E+00 -0.00000000000E+00 -0.32792441588E+04  0.32792441588E+04  0.00000000000E+00 0. -1.
         24    2    1    2    0    0  0.65797993492E+03 -0.12526086819E+03 -0.57659437639E+03  0.88737201421E+03  0.79624976348E+02 0.  0.
        254    2    1    2    0    0 -0.65797993492E+03  0.12526086819E+03 -0.24236250894E+04  0.26708968376E+04  0.90061282657E+03 0.  0.
         23    2    4    4    0    0 -0.28293941187E+03 -0.35571621216E+03 -0.14132942131E+04  0.14873363813E+04  0.90444700630E+02 0.  0.
         23    2    4    4    0    0 -0.37504052305E+03  0.48097708035E+03 -0.10103308762E+04  0.11835604563E+04  0.89735881771E+02 0.  0.
          4    1    3    3  502    0  0.59088330973E+03 -0.12068067193E+03 -0.54585287945E+03  0.81342625744E+03  0.00000000000E+00 0. -1.
         -3    1    3    3    0  502  0.67096625186E+02 -0.45801962640E+01 -0.30741496944E+02  0.73945756765E+02  0.00000000000E+00 0.  1.
         13    1    5    5    0    0 -0.17031814043E+03 -0.27957577131E+03 -0.98320661863E+03  0.10362751255E+04  0.00000000000E+00 0.  1.
        -13    1    5    5    0    0 -0.11262127144E+03 -0.76140440849E+02 -0.43008759450E+03  0.45106125577E+03  0.00000000000E+00 0. -1.
          1    1    6    6  503    0 -0.27800379950E+03  0.39424809774E+03 -0.73726848681E+03  0.88106895119E+03  0.00000000000E+00 0. -1.
         -1    1    6    6    0  503 -0.97036723555E+02  0.86728982609E+02 -0.27306238941E+03  0.30249150509E+03  0.00000000000E+00 0.  1.
<mgrwt>
<rscale>  0 0.19131023E+04</rscale>
<asrwt>0</asrwt>
<pdfrwt beam="1">  1        2 0.50449909E+00 0.19131023E+04</pdfrwt>
<pdfrwt beam="2">  1       -1 0.42926877E-01 0.19131023E+04</pdfrwt>
<totfact> 0.65799559E+00</totfact>
</mgrwt>
</event>
<event>
12    7  0.1637954E-007  0.2116315E+04  0.7818608E-02  0.8554091E-01
          2   -1    0    0  501    0  0.00000000000E+00  0.00000000000E+00  0.13617412467E+04  0.13617412467E+04  0.00000000000E+00 0. -1.
         -1   -1    0    0    0  501 -0.00000000000E+00 -0.00000000000E+00 -0.82225369839E+03  0.82225369839E+03  0.00000000000E+00 0.  1.
         24    2    1    2    0    0  0.62129623155E+03  0.50367718636E+03  0.55770176024E+03  0.97816278309E+03  0.77919583209E+02 0.  0.
        254    2    1    2    0    0 -0.62129623155E+03 -0.50367718636E+03 -0.18214211902E+02  0.12058321620E+04  0.90221933590E+03 0.  0.
         23    2    4    4    0    0  0.11116373862E+03 -0.32976065960E+03 -0.21893453853E+03  0.42136982657E+03  0.92307795876E+02 0.  0.
         23    2    4    4    0    0 -0.73245997017E+03 -0.17391652676E+03  0.20072032662E+03  0.78446233546E+03  0.91367062200E+02 0.  0.
          4    1    3    3  502    0  0.29243480605E+03  0.22983392614E+03  0.30631628700E+03  0.48184169296E+03  0.00000000000E+00 0. -1.
         -3    1    3    3    0  502  0.32886142550E+03  0.27384326022E+03  0.25138547325E+03  0.49632109013E+03  0.00000000000E+00 0.  1.
         13    1    5    5    0    0  0.18613976518E+02 -0.18407190929E+01 -0.63097972921E+01  0.19740362471E+02  0.00000000000E+00 0.  1.
        -13    1    5    5    0    0  0.92549762100E+02 -0.32791994050E+03 -0.21262474123E+03  0.40162946410E+03  0.00000000000E+00 0. -1.
          1    1    6    6  503    0 -0.44068648401E+03 -0.10162433664E+03  0.74082277288E+02  0.45827968185E+03  0.00000000000E+00 0. -1.
         -1    1    6    6    0  503 -0.29177348616E+03 -0.72292190121E+02  0.12663804934E+03  0.32618265361E+03  0.00000000000E+00 0.  1.
<mgrwt>
<rscale>  0 0.21163145E+04</rscale>
<asrwt>0</asrwt>
<pdfrwt beam="1">  1        2 0.20949865E+00 0.21163145E+04</pdfrwt>
<pdfrwt beam="2">  1       -1 0.12650057E+00 0.21163145E+04</pdfrwt>
<totfact> 0.86730501E+00</totfact>
</mgrwt>
</event>
<event>
12    7  0.1637954E-007  0.1640214E+04  0.7818608E-02  0.8796217E-01
          2   -1    0    0  501    0  0.00000000000E+00  0.00000000000E+00  0.12155232223E+04  0.12155232223E+04  0.00000000000E+00 0. -1.
         -1   -1    0    0    0  501 -0.00000000000E+00 -0.00000000000E+00 -0.55332204859E+03  0.55332204859E+03  0.00000000000E+00 0.  1.
         24    2    1    2    0    0 -0.71537112872E+02 -0.23161715657E+03 -0.32494815770E+03  0.41307805240E+03  0.79234502910E+02 0.  0.
        254    2    1    2    0    0  0.71537112872E+02  0.23161715657E+03  0.98714933137E+03  0.13557672185E+04  0.89714930891E+03 0.  0.
         23    2    4    4    0    0  0.65158188521E+02 -0.27888804702E+03  0.80263193039E+02  0.31133590804E+03  0.91998560742E+02 0.  0.
         23    2    4    4    0    0  0.63789243505E+01  0.51050520359E+03  0.90688613833E+03  0.10444313104E+04  0.87966133813E+02 0.  0.
          2    1    3    3  502    0  0.39870743095E+01 -0.57391785922E+01  0.31361472915E+01  0.76596574530E+01  0.00000000000E+00 0. -1.
         -1    1    3    3    0  502 -0.75524187181E+02 -0.22587797798E+03 -0.32808430499E+03  0.40541839495E+03  0.00000000000E+00 0.  1.
         13    1    5    5    0    0  0.19899136801E+02 -0.17234500307E+03  0.89490936835E+02  0.19521117669E+03  0.00000000000E+00 0. -1.
        -13    1    5    5    0    0  0.45259051720E+02 -0.10654304395E+03 -0.92277437954E+01  0.11612473135E+03  0.00000000000E+00 0.  1.
          2    1    6    6  503    0 -0.14527168686E+02  0.26843920269E+02  0.88059281600E+02  0.93199097428E+02  0.00000000000E+00 0. -1.
         -2    1    6    6    0  503  0.20906093037E+02  0.48366128332E+03  0.81882685673E+03  0.95123221298E+03  0.00000000000E+00 0.  1.
<mgrwt>
<rscale>  0 0.16402144E+04</rscale>
<asrwt>0</asrwt>
<pdfrwt beam="1">  1        2 0.18700357E+00 0.16402144E+04</pdfrwt>
<pdfrwt beam="2">  1       -1 0.85126469E-01 0.16402144E+04</pdfrwt>
<totfact> 0.27583306E+01</totfact>
</mgrwt>
</event>
<event>
12    7  0.1637954E-007  0.1004474E+04  0.7818608E-02  0.9303652E-01
         -1   -1    0    0    0  501 -0.00000000000E+00  0.00000000000E+00  0.73288505683E+02  0.73288505683E+02  0.00000000000E+00 0.  1.
          2   -1    0    0  501    0  0.00000000000E+00 -0.00000000000E+00 -0.34417664112E+04  0.34417664112E+04  0.00000000000E+00 0. -1.
         24    2    1    2    0    0  0.51105882806E+02 -0.10673725675E+02 -0.24171495977E+03  0.25859429510E+03  0.75625048781E+02 0.  0.
        254    2    1    2    0    0 -0.51105882806E+02  0.10673725675E+02 -0.31267629458E+04  0.32564606218E+04  0.90838511804E+03 0.  0.
         23    2    4    4    0    0 -0.11959745443E+03 -0.41349519256E+03 -0.19834350452E+04  0.20317352758E+04  0.93015196268E+02 0.  0.
         23    2    4    4    0    0  0.68491571624E+02  0.42416891824E+03 -0.11433279005E+04  0.12247253460E+04  0.90239229380E+02 0.  0.
          4    1    3    3  502    0  0.17599352194E+02 -0.54700224231E+01 -0.21402338057E+03  0.21481542257E+03  0.00000000000E+00 0. -1.
         -3    1    3    3    0  502  0.33506530613E+02 -0.52037032519E+01 -0.27691579199E+02  0.43778872527E+02  0.00000000000E+00 0.  1.
         13    1    5    5    0    0 -0.86210476082E+01 -0.10076619995E+02 -0.17621461486E+03  0.17671290622E+03  0.00000000000E+00 0. -1.
        -13    1    5    5    0    0 -0.11097640682E+03 -0.40341857257E+03 -0.18072204304E+04  0.18550223696E+04  0.00000000000E+00 0.  1.
          4    1    6    6  503    0  0.30726469041E+02  0.89048793570E+02 -0.16623234534E+03  0.19106804069E+03  0.00000000000E+00 0. -1.
         -4    1    6    6    0  503  0.37765102582E+02  0.33512012467E+03 -0.97709555518E+03  0.10336573053E+04  0.00000000000E+00 0.  1.
<mgrwt>
<rscale>  0 0.10044738E+04</rscale>
<asrwt>0</asrwt>
<pdfrwt beam="1">  1        2 0.52950245E+00 0.10044738E+04</pdfrwt>
<pdfrwt beam="2">  1       -1 0.11275156E-01 0.10044738E+04</pdfrwt>
<totfact> 0.54884263E+01</totfact>
</mgrwt>
</event>
<event>
12    7  0.1637954E-007  0.1791352E+04  0.7818608E-02  0.8710912E-01
         -1   -1    0    0    0  501 -0.00000000000E+00  0.00000000000E+00  0.18134723121E+04  0.18134723121E+04  0.00000000000E+00 0.  1.
          2   -1    0    0  501    0  0.00000000000E+00 -0.00000000000E+00 -0.44237543404E+03  0.44237543404E+03  0.00000000000E+00 0. -1.
         24    2    1    2    0    0 -0.43753332793E+03  0.50368533127E+03  0.48086038825E+03  0.82668175087E+03  0.83914708164E+02 0.  0.
        254    2    1    2    0    0  0.43753332793E+03 -0.50368533127E+03  0.89023648982E+03  0.14291659953E+04  0.89713996025E+03 0.  0.
         23    2    4    4    0    0 -0.47728283467E+02 -0.54956728999E+03  0.70516825714E+03  0.89993474351E+03  0.91203489129E+02 0.  0.
         23    2    4    4    0    0  0.48526161140E+03  0.45881958713E+02  0.18506823268E+03  0.52923125177E+03  0.90837665479E+02 0.  0.
          2    1    3    3  502    0 -0.13345727561E+03  0.15506012854E+03  0.19651552228E+03  0.28367734907E+03  0.00000000000E+00 0. -1.
         -1    1    3    3    0  502 -0.30407605232E+03  0.34862520274E+03  0.28434486597E+03  0.54300440181E+03  0.00000000000E+00 0.  1.
         13    1    5    5    0    0 -0.62747513396E+02 -0.50469613441E+03  0.61450621821E+03  0.79766743117E+03  0.00000000000E+00 0. -1.
        -13    1    5    5    0    0  0.15019229928E+02 -0.44871155574E+02  0.90662038932E+02  0.10226731234E+03  0.00000000000E+00 0.  1.
          3    1    6    6  503    0  0.36722757206E+03  0.22907325984E+02  0.17810295633E+03  0.40878050139E+03  0.00000000000E+00 0. -1.
         -3    1    6    6    0  503  0.11803403934E+03  0.22974632730E+02  0.69652763472E+01  0.12045075038E+03  0.00000000000E+00 0.  1.
<mgrwt>
<rscale>  0 0.17913521E+04</rscale>
<asrwt>0</asrwt>
<pdfrwt beam="1">  1        2 0.68057760E-01 0.17913521E+04</pdfrwt>
<pdfrwt beam="2">  1       -1 0.27899574E+00 0.17913521E+04</pdfrwt>
<totfact> 0.34625087E+00</totfact>
</mgrwt>
</event>
<event>
12    7  0.1637954E-007  0.2333255E+04  0.7818608E-02  0.8464923E-01
          2   -1    0    0  501    0  0.00000000000E+00  0.00000000000E+00  0.23667967424E+04  0.23667967424E+04  0.00000000000E+00 0. -1.
         -1   -1    0    0    0  501 -0.00000000000E+00 -0.00000000000E+00 -0.57504726046E+03  0.57504726046E+03  0.00000000000E+00 0.  1.
         24    2    1    2    0    0 -0.48240678849E+03 -0.83779446893E+03  0.81687886964E+03  0.12681180694E+04  0.78844585010E+02 0.  0.
        254    2    1    2    0    0  0.48240678849E+03  0.83779446893E+03  0.97487061233E+03  0.16737259335E+04  0.95727211797E+03 0.  0.
         23    2    4    4    0    0  0.35259820782E+03  0.82567493991E+03  0.11339503810E+04  0.14495670654E+04  0.96626124216E+02 0.  0.
         23    2    4    4    0    0  0.12980858067E+03  0.12119529012E+02 -0.15907976865E+03  0.22415886811E+03  0.89127295252E+02 0.  0.
          2    1    3    3  502    0 -0.45706547350E+01 -0.34505310057E+02  0.22173681303E+02  0.41269594732E+02  0.00000000000E+00 0. -1.
         -1    1    3    3    0  502 -0.47783613376E+03 -0.80328915887E+03  0.79470518834E+03  0.12268484747E+04  0.00000000000E+00 0.  1.
         13    1    5    5    0    0  0.97303246074E+02  0.24839811063E+03  0.40918929534E+03  0.48847254015E+03  0.00000000000E+00 0. -1.
        -13    1    5    5    0    0  0.25529496175E+03  0.57727682929E+03  0.72476108565E+03  0.96109452522E+03  0.00000000000E+00 0.  1.
          4    1    6    6  503    0  0.11770890405E+03  0.26035407373E+02 -0.84213326460E+02  0.14705479551E+03  0.00000000000E+00 0. -1.
         -4    1    6    6    0  503  0.12099676624E+02 -0.13915878361E+02 -0.74866442194E+02  0.77104072602E+02  0.00000000000E+00 0.  1.
<mgrwt>
<rscale>  0 0.23332552E+04</rscale>
<asrwt>0</asrwt>
<pdfrwt beam="1">  1        2 0.36412257E+00 0.23332552E+04</pdfrwt>
<pdfrwt beam="2">  1       -1 0.88468811E-01 0.23332552E+04</pdfrwt>
<totfact> 0.53593969E+00</totfact>
</mgrwt>
</event>
<event>
12    7  0.1637954E-007  0.1164804E+04  0.7818608E-02  0.9144234E-01
          2   -1    0    0  501    0  0.00000000000E+00  0.00000000000E+00  0.34825459677E+03  0.34825459677E+03  0.00000000000E+00 0. -1.
         -1   -1    0    0    0  501 -0.00000000000E+00 -0.00000000000E+00 -0.97397749865E+03  0.97397749865E+03  0.00000000000E+00 0.  1.
         24    2    1    2    0    0 -0.32831173818E+02 -0.95195625343E+02 -0.35917312588E+03  0.38151815897E+03  0.80066710986E+02 0.  0.
        254    2    1    2    0    0  0.32831173818E+02  0.95195625343E+02 -0.26654977599E+03  0.94071393645E+03  0.89652319216E+03 0.  0.
         23    2    4    4    0    0 -0.33276564345E+03 -0.12929882015E+03 -0.33314834663E+03  0.49706526337E+03  0.92924145622E+02 0.  0.
         23    2    4    4    0    0  0.36559681726E+03  0.22449444549E+03  0.66598570637E+02  0.44364867308E+03  0.91268760602E+02 0.  0.
          2    1    3    3  502    0 -0.32720050237E+01  0.13166666202E+02 -0.69884077164E+02  0.71188842923E+02  0.00000000000E+00 0. -1.
         -1    1    3    3    0  502 -0.29559168794E+02 -0.10836229154E+03 -0.28928904872E+03  0.31032931605E+03  0.00000000000E+00 0.  1.
         13    1    5    5    0    0 -0.30003645771E+03 -0.11144734925E+03 -0.25064022361E+03  0.40652541040E+03  0.00000000000E+00 0.  1.
        -13    1    5    5    0    0 -0.32729185740E+02 -0.17851470897E+02 -0.82508123020E+02  0.90539852975E+02  0.00000000000E+00 0. -1.
          2    1    6    6  503    0  0.27738921261E+02  0.48421756465E+02 -0.48771949433E+01  0.56016973163E+02  0.00000000000E+00 0. -1.
         -2    1    6    6    0  503  0.33785789600E+03  0.17607268903E+03  0.71475765580E+02  0.38763169991E+03  0.00000000000E+00 0.  1.
<mgrwt>
<rscale>  0 0.11648041E+04</rscale>
<asrwt>0</asrwt>
<pdfrwt beam="1">  1        2 0.53577630E-01 0.11648041E+04</pdfrwt>
<pdfrwt beam="2">  1       -1 0.14984269E+00 0.11648041E+04</pdfrwt>
<totfact> 0.36828187E+01</totfact>
</mgrwt>
</event>
<event>
12    7  0.1637954E-007  0.1132893E+04  0.7818608E-02  0.9173712E-01
          2   -1    0    0  501    0  0.00000000000E+00  0.00000000000E+00  0.38906031022E+03  0.38906031022E+03  0.00000000000E+00 0. -1.
         -1   -1    0    0    0  501 -0.00000000000E+00 -0.00000000000E+00 -0.82470902054E+03  0.82470902054E+03  0.00000000000E+00 0.  1.
         24    2    1    2    0    0  0.40355893942E+02 -0.14695438668E+03 -0.20374037187E+03  0.26639705162E+03  0.78949731121E+02 0.  0.
        254    2    1    2    0    0 -0.40355893942E+02  0.14695438668E+03 -0.23190833845E+03  0.94737227914E+03  0.90581927994E+03 0.  0.
         23    2    4    4    0    0  0.18702283008E+03  0.39311329163E+03  0.11171514844E+03  0.45882903487E+03  0.92348307077E+02 0.  0.
         23    2    4    4    0    0 -0.22737872402E+03 -0.24615890496E+03 -0.34362348689E+03  0.48854324427E+03  0.91115916021E+02 0.  0.
          2    1    3    3  502    0 -0.20791035270E+02 -0.47697431340E+02 -0.41183897255E+02  0.66358311439E+02  0.00000000000E+00 0. -1.
         -1    1    3    3    0  502  0.61146929212E+02 -0.99256955338E+02 -0.16255647461E+03  0.20003874018E+03  0.00000000000E+00 0.  1.
         13    1    5    5    0    0  0.34397613853E+02  0.84685784994E+02  0.63604854438E+02  0.11135733261E+03  0.00000000000E+00 0.  1.
        -13    1    5    5    0    0  0.15262521623E+03  0.30842750664E+03  0.48110293998E+02  0.34747170226E+03  0.00000000000E+00 0. -1.
          1    1    6    6  503    0 -0.21109691442E+03 -0.17806632265E+03 -0.28904883129E+03  0.39977337256E+03  0.00000000000E+00 0. -1.
         -1    1    6    6    0  503 -0.16281809607E+02 -0.68092582311E+02 -0.54574655594E+02  0.88769871708E+02  0.00000000000E+00 0.  1.
<mgrwt>
<rscale>  0 0.11328928E+04</rscale>
<asrwt>0</asrwt>
<pdfrwt beam="1">  1        2 0.59855432E-01 0.11328928E+04</pdfrwt>
<pdfrwt beam="2">  1       -1 0.12687831E+00 0.11328928E+04</pdfrwt>
<totfact> 0.50194371E+01</totfact>
</mgrwt>
</event>
<event>
12    7  0.1637954E-007  0.1178664E+04  0.7818608E-02  0.9131740E-01
         -1   -1    0    0    0  501 -0.00000000000E+00  0.00000000000E+00  0.15225342679E+04  0.15225342679E+04  0.00000000000E+00 0.  1.
          2   -1    0    0  501    0  0.00000000000E+00 -0.00000000000E+00 -0.22811448636E+03  0.22811448636E+03  0.00000000000E+00 0. -1.
         24    2    1    2    0    0 -0.13919309703E+03  0.18346454297E+03  0.32490947563E+03  0.40841592664E+03  0.90572871183E+02 0.  0.
        254    2    1    2    0    0  0.13919309703E+03 -0.18346454297E+03  0.96951030590E+03  0.13422328276E+04  0.89922454006E+03 0.  0.
         23    2    4    4    0    0  0.71446975336E+02 -0.60734729324E+02  0.11134673269E+04  0.11208926778E+04  0.88303620785E+02 0.  0.
         23    2    4    4    0    0  0.67746121696E+02 -0.12272981365E+03 -0.14395702104E+03  0.22134014976E+03  0.92820761819E+02 0.  0.
          4    1    3    3  502    0 -0.78817030524E+01  0.23274469882E+02  0.18309736826E+01  0.24640914267E+02  0.00000000000E+00 0. -1.
         -3    1    3    3    0  502 -0.13131139398E+03  0.16019007309E+03  0.32307850195E+03  0.38377501238E+03  0.00000000000E+00 0.  1.
         13    1    5    5    0    0  0.88751502874E+02 -0.51521989662E+02  0.10324329966E+04  0.10375207165E+04  0.00000000000E+00 0. -1.
        -13    1    5    5    0    0 -0.17304527538E+02 -0.92127396621E+01  0.81034330299E+02  0.83371961308E+02  0.00000000000E+00 0.  1.
          4    1    6    6  503    0 -0.14471222587E+02 -0.60041415095E+02 -0.34375631146E+02  0.70682896280E+02  0.00000000000E+00 0. -1.
         -4    1    6    6    0  503  0.82217344283E+02 -0.62688398552E+02 -0.10958138990E+03  0.15065725348E+03  0.00000000000E+00 0.  1.
<mgrwt>
<rscale>  0 0.11786639E+04</rscale>
<asrwt>0</asrwt>
<pdfrwt beam="1">  1        2 0.35094537E-01 0.11786639E+04</pdfrwt>
<pdfrwt beam="2">  1       -1 0.23423603E+00 0.11786639E+04</pdfrwt>
<totfact> 0.14985786E+01</totfact>
</mgrwt>
</event>
<event>
12    7  0.1637954E-007  0.2540379E+04  0.7818608E-02  0.8388740E-01
          2   -1    0    0  501    0  0.00000000000E+00  0.00000000000E+00  0.11091212783E+04  0.11091212783E+04  0.00000000000E+00 0. -1.
         -1   -1    0    0    0  501 -0.00000000000E+00 -0.00000000000E+00 -0.14546486342E+04  0.14546486342E+04  0.00000000000E+00 0.  1.
         24    2    1    2    0    0  0.91615940852E+03 -0.24473898671E+03  0.43682206162E+03  0.10470656437E+04  0.79295114975E+02 0.  0.
        254    2    1    2    0    0 -0.91615940852E+03  0.24473898671E+03 -0.78234941755E+03  0.15167042688E+04  0.88829949584E+03 0.  0.
         23    2    4    4    0    0 -0.50510119647E+03  0.56155455750E+03 -0.36466680949E+03  0.84354858983E+03  0.90119929749E+02 0.  0.
         23    2    4    4    0    0 -0.41105821205E+03 -0.31681557079E+03 -0.41768260806E+03  0.67315567893E+03  0.96637712165E+02 0.  0.
          4    1    3    3  502    0  0.57693650957E+03 -0.18480410256E+03  0.30467471043E+03  0.67811132682E+03  0.00000000000E+00 0. -1.
         -3    1    3    3    0  502  0.33922289895E+03 -0.59934884150E+02  0.13214735120E+03  0.36895431687E+03  0.00000000000E+00 0.  1.
         13    1    5    5    0    0 -0.20468448700E+03  0.27974107299E+03 -0.19804925462E+03  0.39921712687E+03  0.00000000000E+00 0.  1.
        -13    1    5    5    0    0 -0.30041670947E+03  0.28181348451E+03 -0.16661755488E+03  0.44433146296E+03  0.00000000000E+00 0. -1.
          3    1    6    6  503    0 -0.30432737220E+03 -0.22394467451E+03 -0.35486081788E+03  0.51835563736E+03  0.00000000000E+00 0. -1.
         -3    1    6    6    0  503 -0.10673083984E+03 -0.92870896279E+02 -0.62821790183E+02  0.15480004157E+03  0.00000000000E+00 0.  1.
<mgrwt>
<rscale>  0 0.25403793E+04</rscale>
<asrwt>0</asrwt>
<pdfrwt beam="1">  1        2 0.17063404E+00 0.25403793E+04</pdfrwt>
<pdfrwt beam="2">  1       -1 0.22379210E+00 0.25403793E+04</pdfrwt>
<totfact> 0.22619052E+00</totfact>
</mgrwt>
</event>
<event>
12    7  0.1637954E-007  0.1716030E+04  0.7818608E-02  0.8752274E-01
          2   -1    0    0  501    0  0.00000000000E+00  0.00000000000E+00  0.78410870640E+03  0.78410870640E+03  0.00000000000E+00 0. -1.
         -1   -1    0    0    0  501 -0.00000000000E+00 -0.00000000000E+00 -0.93888717606E+03  0.93888717606E+03  0.00000000000E+00 0.  1.
         24    2    1    2    0    0  0.14104116472E+03  0.41299211165E+03  0.31278397346E+03  0.54399820296E+03  0.87436470268E+02 0.  0.
        254    2    1    2    0    0 -0.14104116472E+03 -0.41299211165E+03 -0.46756244312E+03  0.11789976795E+04  0.99043717399E+03 0.  0.
         23    2    4    4    0    0  0.29469975930E+03 -0.34898526337E+03 -0.54887255661E+03  0.71999658371E+03  0.92170141472E+02 0.  0.
         23    2    4    4    0    0 -0.43574092402E+03 -0.64006848285E+02  0.81310113490E+02  0.45900109579E+03  0.10051687363E+03 0.  0.
          4    1    3    3  502    0  0.22941455789E+01  0.95080109207E+02  0.95002265701E+02  0.13442812488E+03  0.00000000000E+00 0. -1.
         -3    1    3    3    0  502  0.13874701914E+03  0.31791200245E+03  0.21778170776E+03  0.40957007807E+03  0.00000000000E+00 0.  1.
         13    1    5    5    0    0  0.25391237076E+03 -0.33971675783E+03 -0.49732762009E+03  0.65361588817E+03  0.00000000000E+00 0. -1.
        -13    1    5    5    0    0  0.40787388541E+02 -0.92685055410E+01 -0.51544936522E+02  0.66380695537E+02  0.00000000000E+00 0.  1.
          4    1    6    6  503    0 -0.10229607803E+03  0.27106189910E+02  0.25504513379E+02  0.10885638849E+03  0.00000000000E+00 0. -1.
         -4    1    6    6    0  503 -0.33344484599E+03 -0.91113038194E+02  0.55805600111E+02  0.35014470730E+03  0.00000000000E+00 0.  1.
<mgrwt>
<rscale>  0 0.17160298E+04</rscale>
<asrwt>0</asrwt>
<pdfrwt beam="1">  1        2 0.12063211E+00 0.17160298E+04</pdfrwt>
<pdfrwt beam="2">  1       -1 0.14444418E+00 0.17160298E+04</pdfrwt>
<totfact> 0.14816861E+01</totfact>
</mgrwt>
</event>
<event>
12    7  0.1637954E-007  0.1684630E+04  0.7818608E-02  0.8770179E-01
         -1   -1    0    0    0  501 -0.00000000000E+00  0.00000000000E+00  0.19175149131E+03  0.19175149131E+03  0.00000000000E+00 0.  1.
          2   -1    0    0  501    0  0.00000000000E+00 -0.00000000000E+00 -0.37000724553E+04  0.37000724553E+04  0.00000000000E+00 0. -1.
         24    2    1    2    0    0 -0.13149440846E+03 -0.59328363089E+03 -0.11246870368E+04  0.12808893104E+04  0.80499990637E+02 0.  0.
        254    2    1    2    0    0  0.13149440846E+03  0.59328363089E+03 -0.23836339272E+04  0.26109346362E+04  0.87521010612E+03 0.  0.
         23    2    4    4    0    0 -0.31239762147E+03  0.89685131229E+02 -0.45485124347E+03  0.56662977640E+03  0.92433506635E+02 0.  0.
         23    2    4    4    0    0  0.44389202994E+03  0.50359849966E+03 -0.19287826837E+04  0.20443048598E+04  0.91258621237E+02 0.  0.
          4    1    3    3  502    0  0.49723328856E+00  0.18125647930E+01 -0.30125978631E+00  0.19035202996E+01  0.00000000000E+00 0. -1.
         -3    1    3    3    0  502 -0.13199164175E+03 -0.59509619568E+03 -0.11243857771E+04  0.12789857901E+04  0.00000000000E+00 0.  1.
         13    1    5    5    0    0 -0.20875969815E+03  0.14019966291E+02 -0.29442654496E+03  0.36119823007E+03  0.00000000000E+00 0.  1.
        -13    1    5    5    0    0 -0.10363792332E+03  0.75665164938E+02 -0.16042469851E+03  0.20543154633E+03  0.00000000000E+00 0. -1.
          4    1    6    6  503    0  0.37305782125E+03  0.46696986450E+03 -0.17093523893E+04  0.18108336708E+04  0.00000000000E+00 0.  1.
         -4    1    6    6    0  503  0.70834208683E+02  0.36628635161E+02 -0.21943029439E+03  0.23347118908E+03  0.00000000000E+00 0. -1.
<mgrwt>
<rscale>  0 0.16846298E+04</rscale>
<asrwt>0</asrwt>
<pdfrwt beam="1">  1        2 0.56924189E+00 0.16846298E+04</pdfrwt>
<pdfrwt beam="2">  1       -1 0.29500231E-01 0.16846298E+04</pdfrwt>
<totfact> 0.67396010E+00</totfact>
</mgrwt>
</event>
<event>
12    7  0.1637954E-007  0.1494211E+04  0.7818608E-02  0.8888312E-01
         -1   -1    0    0    0  501 -0.00000000000E+00  0.00000000000E+00  0.23401086815E+03  0.23401086815E+03  0.00000000000E+00 0.  1.
          2   -1    0    0  501    0  0.00000000000E+00 -0.00000000000E+00 -0.23852159090E+04  0.23852159090E+04  0.00000000000E+00 0. -1.
         24    2    1    2    0    0  0.30730742845E+03 -0.22437209473E+03 -0.20583202685E+03  0.43967509450E+03  0.78528166786E+02 0.  0.
        254    2    1    2    0    0 -0.30730742845E+03  0.22437209473E+03 -0.19453730139E+04  0.21795516826E+04  0.90619461555E+03 0.  0.
         23    2    4    4    0    0  0.26807347176E+03 -0.78863670604E+02 -0.36958671459E+03  0.47241788487E+03  0.92203327177E+02 0.  0.
         23    2    4    4    0    0 -0.57538090020E+03  0.30323576533E+03 -0.15757862994E+04  0.17071337977E+04  0.90488852428E+02 0.  0.
          4    1    3    3  502    0  0.13955047659E+03 -0.14772417996E+03 -0.12252854382E+03  0.23729730911E+03  0.00000000000E+00 0. -1.
         -3    1    3    3    0  502  0.16775695186E+03 -0.76647914764E+02 -0.83303483028E+02  0.20237778539E+03  0.00000000000E+00 0.  1.
         13    1    5    5    0    0  0.67827762864E+02 -0.49655641553E+02 -0.62924482310E+02  0.10500370768E+03  0.00000000000E+00 0. -1.
        -13    1    5    5    0    0  0.20024570889E+03 -0.29208029051E+02 -0.30666223228E+03  0.36741417719E+03  0.00000000000E+00 0.  1.
          1    1    6    6  503    0 -0.18003414205E+02  0.20982466473E+02 -0.11638049798E+03  0.11961942623E+03  0.00000000000E+00 0. -1.
         -1    1    6    6    0  503 -0.55737748600E+03  0.28225329886E+03 -0.14594058014E+04  0.15875143715E+04  0.00000000000E+00 0.  1.
<mgrwt>
<rscale>  0 0.14942108E+04</rscale>
<asrwt>0</asrwt>
<pdfrwt beam="1">  1        2 0.36695625E+00 0.14942108E+04</pdfrwt>
<pdfrwt beam="2">  1       -1 0.36001676E-01 0.14942108E+04</pdfrwt>
<totfact> 0.32984590E+01</totfact>
</mgrwt>
</event>
<event>
12    7  0.1637954E-007  0.9968224E+03  0.7818608E-02  0.9312037E-01
          2   -1    0    0  501    0  0.00000000000E+00  0.00000000000E+00  0.56101125430E+03  0.56101125430E+03  0.00000000000E+00 0. -1.
         -1   -1    0    0    0  501 -0.00000000000E+00 -0.00000000000E+00 -0.44279631332E+03  0.44279631332E+03  0.00000000000E+00 0.  1.
         24    2    1    2    0    0  0.15058297524E+02  0.35954747244E+02  0.79668859971E+02  0.11975602623E+03  0.80466653933E+02 0.  0.
        254    2    1    2    0    0 -0.15058297524E+02 -0.35954747244E+02  0.38546081003E+02  0.88405154139E+03  0.88235017499E+03 0.  0.
         23    2    4    4    0    0  0.35336908336E+03  0.22121645608E+03  0.16147572730E+02  0.42695385774E+03  0.90677577241E+02 0.  0.
         23    2    4    4    0    0 -0.36842738088E+03 -0.25717120333E+03  0.22398508273E+02  0.45709768365E+03  0.80998990261E+02 0.  0.
          2    1    3    3  502    0  0.30909085139E+02  0.43811716215E+02  0.19521296571E+02  0.57060661069E+02  0.00000000000E+00 0. -1.
         -1    1    3    3    0  502 -0.15850787615E+02 -0.78569689711E+01  0.60147563400E+02  0.62695365159E+02  0.00000000000E+00 0.  1.
         13    1    5    5    0    0  0.27171478973E+03  0.20829292325E+03 -0.17360273415E+01  0.34237097223E+03  0.00000000000E+00 0. -1.
        -13    1    5    5    0    0  0.81654293627E+02  0.12923532830E+02  0.17883600071E+02  0.84582885503E+02  0.00000000000E+00 0.  1.
          3    1    6    6  503    0 -0.35662127563E+03 -0.24634580474E+03  0.50196674503E+01  0.43346301666E+03  0.00000000000E+00 0.  1.
         -3    1    6    6    0  503 -0.11806105250E+02 -0.10825398587E+02  0.17378840823E+02  0.23634666998E+02  0.00000000000E+00 0. -1.
<mgrwt>
<rscale>  0 0.99682238E+03</rscale>
<asrwt>0</asrwt>
<pdfrwt beam="1">  1        2 0.86309424E-01 0.99682238E+03</pdfrwt>
<pdfrwt beam="2">  1       -1 0.68122510E-01 0.99682238E+03</pdfrwt>
<totfact> 0.13392562E+02</totfact>
</mgrwt>
</event>
<event>
12    7  0.1637954E-007  0.2752498E+04  0.7818608E-02  0.8318170E-01
         -1   -1    0    0    0  501 -0.00000000000E+00  0.00000000000E+00  0.65537017363E+03  0.65537017363E+03  0.00000000000E+00 0.  1.
          2   -1    0    0  501    0  0.00000000000E+00 -0.00000000000E+00 -0.28900623651E+04  0.28900623651E+04  0.00000000000E+00 0. -1.
         24    2    1    2    0    0 -0.18605940932E+03  0.38842595732E+03  0.48211977380E+03  0.65151249985E+03  0.80846973038E+02 0.  0.
        254    2    1    2    0    0  0.18605940932E+03 -0.38842595732E+03 -0.27168119652E+04  0.28939200388E+04  0.89900673448E+03 0.  0.
         23    2    4    4    0    0  0.30690527450E+03  0.11907374341E+03 -0.44265953820E+03  0.55922895832E+03  0.91761414383E+02 0.  0.
         23    2    4    4    0    0 -0.12084586518E+03 -0.50749970074E+03 -0.22741524270E+04  0.23346910805E+04  0.82785933151E+02 0.  0.
          2    1    3    3  502    0 -0.90901611203E+02  0.22056304895E+03  0.20935719216E+03  0.31739816538E+03  0.00000000000E+00 0. -1.
         -1    1    3    3    0  502 -0.95157798122E+02  0.16786290838E+03  0.27276258164E+03  0.33411433447E+03  0.00000000000E+00 0.  1.
         13    1    5    5    0    0  0.97907679253E+02  0.21197724339E+02 -0.20382489512E+03  0.22711196588E+03  0.00000000000E+00 0.  1.
        -13    1    5    5    0    0  0.20899759525E+03  0.97876019076E+02 -0.23883464308E+03  0.33211699244E+03  0.00000000000E+00 0. -1.
          1    1    6    6  503    0 -0.11787325672E+03 -0.41511833899E+03 -0.19745868057E+04  0.20211903407E+04  0.00000000000E+00 0. -1.
         -1    1    6    6    0  503 -0.29726084601E+01 -0.92381361746E+02 -0.29956562135E+03  0.31350073986E+03  0.00000000000E+00 0.  1.
<mgrwt>
<rscale>  0 0.27524975E+04</rscale>
<asrwt>0</asrwt>
<pdfrwt beam="1">  1        2 0.44462498E+00 0.27524975E+04</pdfrwt>
<pdfrwt beam="2">  1       -1 0.10082618E+00 0.27524975E+04</pdfrwt>
<totfact> 0.18915505E+00</totfact>
</mgrwt>
</event>
<event>
12    7  0.1637954E-007  0.2484552E+04  0.7818608E-02  0.8408510E-01
         -3   -1    0    0    0  501 -0.00000000000E+00  0.00000000000E+00  0.15420486928E+04  0.15420486928E+04  0.00000000000E+00 0.  1.
          2   -1    0    0  501    0  0.00000000000E+00 -0.00000000000E+00 -0.10007791121E+04  0.10007791121E+04  0.00000000000E+00 0. -1.
         24    2    1    2    0    0  0.68101270017E+03  0.64630225879E+03 -0.30648175962E+03  0.99084010975E+03  0.79675257115E+02 0.  0.
        254    2    1    2    0    0 -0.68101270017E+03 -0.64630225879E+03  0.84775134039E+03  0.15519876951E+04  0.89916548157E+03 0.  0.
         23    2    4    4    0    0 -0.88172209079E+03 -0.42144072031E+03  0.59033278621E+03  0.11453875326E+04  0.91507788337E+02 0.  0.
         23    2    4    4    0    0  0.20070939062E+03 -0.22486153848E+03  0.25741855418E+03  0.40660016251E+03  0.90622343517E+02 0.  0.
          2    1    3    3  502    0  0.61930655487E+03  0.61483138089E+03 -0.27724232986E+03  0.91565361644E+03  0.00000000000E+00 0. -1.
         -1    1    3    3    0  502  0.61706145297E+02  0.31470877903E+02 -0.29239429764E+02  0.75186493310E+02  0.00000000000E+00 0.  1.
         13    1    5    5    0    0 -0.39078691067E+03 -0.23408724006E+03  0.29301414690E+03  0.54163505776E+03  0.00000000000E+00 0. -1.
        -13    1    5    5    0    0 -0.49093518012E+03 -0.18735348025E+03  0.29731863931E+03  0.60375247488E+03  0.00000000000E+00 0.  1.
          3    1    6    6  503    0  0.49455750678E+02 -0.12216820001E+03  0.11332027946E+03  0.17381722039E+03  0.00000000000E+00 0. -1.
         -3    1    6    6    0  503  0.15125363994E+03 -0.10269333847E+03  0.14409827472E+03  0.23278294212E+03  0.00000000000E+00 0.  1.
<mgrwt>
<rscale>  0 0.24845524E+04</rscale>
<asrwt>0</asrwt>
<pdfrwt beam="1">  1        2 0.15396602E+00 0.24845524E+04</pdfrwt>
<pdfrwt beam="2">  1       -3 0.23723826E+00 0.24845524E+04</pdfrwt>
<totfact> 0.12252141E+00</totfact>
</mgrwt>
</event>
<event>
12    7  0.1637954E-007  0.1283630E+04  0.7818608E-02  0.9042648E-01
         -1   -1    0    0    0  501 -0.00000000000E+00  0.00000000000E+00  0.39168511828E+03  0.39168511828E+03  0.00000000000E+00 0.  1.
          2   -1    0    0  501    0  0.00000000000E+00 -0.00000000000E+00 -0.10516780826E+04  0.10516780826E+04  0.00000000000E+00 0. -1.
         24    2    1    2    0    0 -0.27038564137E+03  0.11958483915E+02 -0.33555400961E+03  0.43829838973E+03  0.79104896698E+02 0.  0.
        254    2    1    2    0    0  0.27038564137E+03 -0.11958483915E+02 -0.32443895469E+03  0.10050648111E+04  0.91194475648E+03 0.  0.
         23    2    4    4    0    0  0.49814518870E+03 -0.27054365373E+03 -0.97146984764E+02  0.58235362182E+03  0.91409554211E+02 0.  0.
         23    2    4    4    0    0 -0.22775954734E+03  0.25858516982E+03 -0.22729196992E+03  0.42271118931E+03  0.91007738800E+02 0.  0.
          2    1    3    3  502    0 -0.25195695835E+03  0.23069900701E+02 -0.33044103297E+03  0.41618001567E+03  0.00000000000E+00 0. -1.
         -1    1    3    3    0  502 -0.18428683020E+02 -0.11111416787E+02 -0.51129766434E+01  0.22118374059E+02  0.00000000000E+00 0.  1.
         13    1    5    5    0    0  0.11815066257E+03 -0.10196122851E+03 -0.28865316483E+01  0.15608972820E+03  0.00000000000E+00 0.  1.
        -13    1    5    5    0    0  0.37999452613E+03 -0.16858242522E+03 -0.94260453116E+02  0.42626389362E+03  0.00000000000E+00 0. -1.
          3    1    6    6  503    0 -0.19958811337E+03  0.16685131166E+03 -0.15829631772E+03  0.30452011330E+03  0.00000000000E+00 0. -1.
         -3    1    6    6    0  503 -0.28171433965E+02  0.91733858160E+02 -0.68995652203E+02  0.11819107601E+03  0.00000000000E+00 0.  1.
<mgrwt>
<rscale>  0 0.12836302E+04</rscale>
<asrwt>0</asrwt>
<pdfrwt beam="1">  1        2 0.16179663E+00 0.12836302E+04</pdfrwt>
<pdfrwt beam="2">  1       -1 0.60259249E-01 0.12836302E+04</pdfrwt>
<totfact> 0.72985570E+01</totfact>
</mgrwt>
</event>
<event>
12    7  0.1637954E-007  0.1762626E+04  0.7818608E-02  0.8726431E-01
          2   -1    0    0  501    0  0.00000000000E+00  0.00000000000E+00  0.25125709815E+04  0.25125709815E+04  0.00000000000E+00 0. -1.
         -1   -1    0    0    0  501 -0.00000000000E+00 -0.00000000000E+00 -0.30913075655E+03  0.30913075655E+03  0.00000000000E+00 0.  1.
         24    2    1    2    0    0 -0.38277460453E+03  0.22822399240E+03  0.15861205420E+04  0.16494357657E+04  0.79103622073E+02 0.  0.
        254    2    1    2    0    0  0.38277460453E+03 -0.22822399240E+03  0.61731968296E+03  0.11722659723E+04  0.89135925994E+03 0.  0.
         23    2    4    4    0    0  0.31221958150E+02 -0.44875254702E+03  0.58718652361E+03  0.74558870603E+03  0.93599390578E+02 0.  0.
         23    2    4    4    0    0  0.35155264638E+03  0.22052855463E+03  0.30133159349E+02  0.42667726628E+03  0.94463620946E+02 0.  0.
          4    1    3    3  502    0 -0.24174454157E+03  0.10078734331E+03  0.87602641156E+03  0.91434172261E+03  0.00000000000E+00 0. -1.
         -3    1    3    3    0  502 -0.14103006296E+03  0.12743664908E+03  0.71009413039E+03  0.73509404310E+03  0.00000000000E+00 0.  1.
         13    1    5    5    0    0 -0.12959962993E+02 -0.51611840494E+02  0.33902188952E+02  0.63095967666E+02  0.00000000000E+00 0. -1.
        -13    1    5    5    0    0  0.44181921144E+02 -0.39714070653E+03  0.55328433466E+03  0.68249273836E+03  0.00000000000E+00 0.  1.
          3    1    6    6  503    0  0.13108896168E+03  0.11103992847E+03  0.52156412613E+02  0.17953961392E+03  0.00000000000E+00 0. -1.
         -3    1    6    6    0  503  0.22046368470E+03  0.10948862616E+03 -0.22023253265E+02  0.24713765236E+03  0.00000000000E+00 0.  1.
<mgrwt>
<rscale>  0 0.17626264E+04</rscale>
<asrwt>0</asrwt>
<pdfrwt beam="1">  1        2 0.38654937E+00 0.17626264E+04</pdfrwt>
<pdfrwt beam="2">  1       -1 0.47558580E-01 0.17626264E+04</pdfrwt>
<totfact> 0.16312938E+01</totfact>
</mgrwt>
</event>
<event>
12    7  0.1637954E-007  0.1397854E+04  0.7818608E-02  0.8955373E-01
         -1   -1    0    0    0  501 -0.00000000000E+00  0.00000000000E+00  0.15658534649E+03  0.15658534649E+03  0.00000000000E+00 0.  1.
          2   -1    0    0  501    0  0.00000000000E+00 -0.00000000000E+00 -0.31196998656E+04  0.31196998656E+04  0.00000000000E+00 0. -1.
         24    2    1    2    0    0  0.31127093279E+02 -0.39911963105E+03 -0.10058412115E+04  0.10855034381E+04  0.79597711490E+02 0.  0.
        254    2    1    2    0    0 -0.31127093279E+02  0.39911963105E+03 -0.19572733077E+04  0.21907817740E+04  0.89907764096E+03 0.  0.
         23    2    4    4    0    0  0.21682205746E+03  0.59849320253E+03 -0.11543361223E+04  0.13218571611E+04  0.98023226729E+02 0.  0.
         23    2    4    4    0    0 -0.24794915074E+03 -0.19937357149E+03 -0.80293718539E+03  0.86892461292E+03  0.95358570125E+02 0.  0.
          4    1    3    3  502    0  0.15031989876E+01 -0.25308520993E+03 -0.71942462699E+03  0.76264420080E+03  0.00000000000E+00 0. -1.
         -3    1    3    3    0  502  0.29623894291E+02 -0.14603442111E+03 -0.28641658447E+03  0.32285923732E+03  0.00000000000E+00 0.  1.
         13    1    5    5    0    0  0.12425178869E+03  0.43980470121E+03 -0.76007591042E+03  0.88689462271E+03  0.00000000000E+00 0.  1.
        -13    1    5    5    0    0  0.92570268764E+02  0.15868850133E+03 -0.39426021189E+03  0.43496253837E+03  0.00000000000E+00 0. -1.
          2    1    6    6  503    0 -0.22194470436E+02 -0.41342344780E+02 -0.57709186249E+02  0.74378317858E+02  0.00000000000E+00 0. -1.
         -2    1    6    6    0  503 -0.22575468030E+03 -0.15803122671E+03 -0.74522799914E+03  0.79454629506E+03  0.00000000000E+00 0.  1.
<mgrwt>
<rscale>  0 0.13978545E+04</rscale>
<asrwt>0</asrwt>
<pdfrwt beam="1">  1        2 0.47995379E+00 0.13978545E+04</pdfrwt>
<pdfrwt beam="2">  1       -1 0.24090055E-01 0.13978545E+04</pdfrwt>
<totfact> 0.24452778E+01</totfact>
</mgrwt>
</event>
<event>
12    7  0.1637954E-007  0.2811322E+04  0.7818608E-02  0.8299762E-01
         -1   -1    0    0    0  501 -0.00000000000E+00  0.00000000000E+00  0.16726804469E+04  0.16726804469E+04  0.00000000000E+00 0.  1.
          2   -1    0    0  501    0  0.00000000000E+00 -0.00000000000E+00 -0.11812676173E+04  0.11812676173E+04  0.00000000000E+00 0. -1.
         24    2    1    2    0    0 -0.11933108561E+04 -0.27403849410E+03 -0.84377794951E+02  0.12298708292E+04  0.79842021962E+02 0.  0.
        254    2    1    2    0    0  0.11933108561E+04  0.27403849410E+03  0.57579062455E+03  0.16240772350E+04  0.89833408384E+03 0.  0.
         23    2    4    4    0    0  0.13207408242E+04  0.26603269378E+03  0.57339236314E+03  0.14671980922E+04  0.93604062957E+02 0.  0.
         23    2    4    4    0    0 -0.12742996807E+03  0.80058003182E+01  0.23982614170E+01  0.15687914282E+03  0.91119834253E+02 0.  0.
          2    1    3    3  502    0 -0.96631857560E+03 -0.24239649779E+03 -0.92484993299E+02  0.10005404168E+04  0.00000000000E+00 0. -1.
         -1    1    3    3    0  502 -0.22699228055E+03 -0.31641996308E+02  0.81071983472E+01  0.22933041234E+03  0.00000000000E+00 0.  1.
         13    1    5    5    0    0  0.39790198510E+03  0.10378474602E+03  0.13578447878E+03  0.43305275421E+03  0.00000000000E+00 0. -1.
        -13    1    5    5    0    0  0.92283883912E+03  0.16224794776E+03  0.43760788436E+03  0.10341453379E+04  0.00000000000E+00 0.  1.
          2    1    6    6  503    0 -0.65384924635E+02 -0.41528543024E+02  0.20449650419E+01  0.77485418868E+02  0.00000000000E+00 0. -1.
         -2    1    6    6    0  503 -0.62045043434E+02  0.49534343342E+02  0.35329637507E+00  0.79393723954E+02  0.00000000000E+00 0.  1.
<mgrwt>
<rscale>  0 0.28113223E+04</rscale>
<asrwt>0</asrwt>
<pdfrwt beam="1">  1        2 0.18173348E+00 0.28113223E+04</pdfrwt>
<pdfrwt beam="2">  1       -1 0.25733545E+00 0.28113223E+04</pdfrwt>
<totfact> 0.12022865E+00</totfact>
</mgrwt>
</event>
<event>
12    7  0.1637954E-007  0.1843332E+04  0.7818608E-02  0.8683590E-01
          2   -1    0    0  501    0  0.00000000000E+00  0.00000000000E+00  0.14074302562E+04  0.14074302562E+04  0.00000000000E+00 0. -1.
         -1   -1    0    0    0  501 -0.00000000000E+00 -0.00000000000E+00 -0.60355954889E+03  0.60355954889E+03  0.00000000000E+00 0.  1.
         24    2    1    2    0    0 -0.67744722502E+03 -0.45614894173E+02  0.52115145414E+03  0.85956715361E+03  0.79002481967E+02 0.  0.
        254    2    1    2    0    0  0.67744722502E+03  0.45614894173E+02  0.28271925322E+03  0.11514226515E+04  0.88590546055E+03 0.  0.
         23    2    4    4    0    0  0.49960898746E+03  0.43693611691E+03  0.10898071084E+03  0.67891179689E+03  0.92315340054E+02 0.  0.
         23    2    4    4    0    0  0.17783823756E+03 -0.39132122274E+03  0.17373854238E+03  0.47251085463E+03  0.91228770295E+02 0.  0.
          4    1    3    3  502    0 -0.48875569131E+03 -0.22404748919E+02  0.33125019064E+03  0.59085597853E+03  0.00000000000E+00 0. -1.
         -3    1    3    3    0  502 -0.18869153371E+03 -0.23210145254E+02  0.18990126349E+03  0.26871117508E+03  0.00000000000E+00 0.  1.
         13    1    5    5    0    0  0.19459648746E+03  0.11417934599E+03  0.47959249219E+02  0.23066166905E+03  0.00000000000E+00 0.  1.
        -13    1    5    5    0    0  0.30501250000E+03  0.32275677092E+03  0.61021461623E+02  0.44825012784E+03  0.00000000000E+00 0. -1.
          4    1    6    6  503    0  0.72543970482E+02 -0.78328649620E+02  0.64253250257E+02  0.12460531760E+03  0.00000000000E+00 0. -1.
         -4    1    6    6    0  503  0.10529426708E+03 -0.31299257312E+03  0.10948529212E+03  0.34790553703E+03  0.00000000000E+00 0.  1.
<mgrwt>
<rscale>  0 0.18433317E+04</rscale>
<asrwt>0</asrwt>
<pdfrwt beam="1">  1        2 0.21652773E+00 0.18433317E+04</pdfrwt>
<pdfrwt beam="2">  1       -1 0.92855316E-01 0.18433317E+04</pdfrwt>
<totfact> 0.17315686E+01</totfact>
</mgrwt>
</event>
<event>
12    7  0.1637954E-007  0.1871709E+04  0.7818608E-02  0.8669068E-01
          2   -1    0    0  501    0  0.00000000000E+00  0.00000000000E+00  0.10423453090E+04  0.10423453090E+04  0.00000000000E+00 0. -1.
         -1   -1    0    0    0  501 -0.00000000000E+00 -0.00000000000E+00 -0.84024320276E+03  0.84024320276E+03  0.00000000000E+00 0.  1.
         24    2    1    2    0    0 -0.49677867593E+03  0.14175450028E+03  0.57697999973E+03  0.77863927703E+03  0.80559372152E+02 0.  0.
        254    2    1    2    0    0  0.49677867593E+03 -0.14175450028E+03 -0.37487789352E+03  0.11039492347E+04  0.90071476425E+03 0.  0.
         23    2    4    4    0    0  0.37171326830E+03 -0.11002379905E+03  0.24299848577E+03  0.46629030842E+03  0.90013318175E+02 0.  0.
         23    2    4    4    0    0  0.12506540763E+03 -0.31730701232E+02 -0.61787637929E+03  0.63765892628E+03  0.90495815320E+02 0.  0.
          2    1    3    3  502    0 -0.41621075176E+03  0.13309856234E+03  0.52179899812E+03  0.68060327035E+03  0.00000000000E+00 0. -1.
         -1    1    3    3    0  502 -0.80567924174E+02  0.86559379393E+01  0.55181001610E+02  0.98036006682E+02  0.00000000000E+00 0.  1.
         13    1    5    5    0    0  0.19898851074E+02 -0.33502621588E+01 -0.73908626352E+01  0.21489843673E+02  0.00000000000E+00 0. -1.
        -13    1    5    5    0    0  0.35181441722E+03 -0.10667353689E+03  0.25038934841E+03  0.44480046474E+03  0.00000000000E+00 0.  1.
          2    1    6    6  503    0  0.11127295531E+03 -0.34979323265E+02 -0.34056484945E+03  0.35998561127E+03  0.00000000000E+00 0. -1.
         -2    1    6    6    0  503  0.13792452324E+02  0.32486220326E+01 -0.27731152984E+03  0.27767331501E+03  0.00000000000E+00 0.  1.
<mgrwt>
<rscale>  0 0.18717089E+04</rscale>
<asrwt>0</asrwt>
<pdfrwt beam="1">  1        2 0.16036082E+00 0.18717089E+04</pdfrwt>
<pdfrwt beam="2">  1       -1 0.12926818E+00 0.18717089E+04</pdfrwt>
<totfact> 0.13039450E+01</totfact>
</mgrwt>
</event>
<event>
12    7  0.1637954E-007  0.3009592E+04  0.7818608E-02  0.8240997E-01
         -1   -1    0    0    0  501 -0.00000000000E+00  0.00000000000E+00  0.10596491636E+04  0.10596491636E+04  0.00000000000E+00 0.  1.
          2   -1    0    0  501    0  0.00000000000E+00 -0.00000000000E+00 -0.21369439711E+04  0.21369439711E+04  0.00000000000E+00 0. -1.
         24    2    1    2    0    0 -0.13574768630E+04  0.10550057510E+03 -0.33551876656E+03  0.14038406194E+04  0.65740679728E+02 0.  0.
        254    2    1    2    0    0  0.13574768630E+04 -0.10550057510E+03 -0.74177604091E+03  0.17927525152E+04  0.89992004141E+03 0.  0.
         23    2    4    4    0    0  0.90597638284E+03 -0.45942156494E+03 -0.63684143337E+03  0.12024873139E+04  0.92451869451E+02 0.  0.
         23    2    4    4    0    0  0.45150048021E+03  0.35392098985E+03 -0.10493460753E+03  0.59026520135E+03  0.91043865194E+02 0.  0.
          4    1    3    3  502    0 -0.11744574234E+04  0.86222281779E+02 -0.31248753135E+03  0.12183730868E+04  0.00000000000E+00 0. -1.
         -3    1    3    3    0  502 -0.18301943964E+03  0.19278293317E+02 -0.23031235206E+02  0.18546753267E+03  0.00000000000E+00 0.  1.
         13    1    5    5    0    0  0.86463275185E+02 -0.17239992510E+02 -0.43397950441E+02  0.98267478852E+02  0.00000000000E+00 0. -1.
        -13    1    5    5    0    0  0.81951310765E+03 -0.44218157243E+03 -0.59344348293E+03  0.11042198350E+04  0.00000000000E+00 0.  1.
          2    1    6    6  503    0  0.36420987951E+03  0.31698279699E+03 -0.11050829566E+03  0.49531708362E+03  0.00000000000E+00 0.  1.
         -2    1    6    6    0  503  0.87290600692E+02  0.36938192861E+02  0.55736881232E+01  0.94948117729E+02  0.00000000000E+00 0. -1.
<mgrwt>
<rscale>  0 0.30095919E+04</rscale>
<asrwt>0</asrwt>
<pdfrwt beam="1">  1        2 0.32876061E+00 0.30095919E+04</pdfrwt>
<pdfrwt beam="2">  1       -1 0.16302295E+00 0.30095919E+04</pdfrwt>
<totfact> 0.15110624E+00</totfact>
</mgrwt>
</event>
<event>
12    7  0.1637954E-007  0.1548229E+04  0.7818608E-02  0.8853000E-01
          2   -1    0    0  501    0  0.00000000000E+00  0.00000000000E+00  0.54536029500E+03  0.54536029500E+03  0.00000000000E+00 0. -1.
         -1   -1    0    0    0  501 -0.00000000000E+00 -0.00000000000E+00 -0.10988213804E+04  0.10988213804E+04  0.00000000000E+00 0.  1.
         24    2    1    2    0    0 -0.45540772077E+03  0.24159091035E+03 -0.14058688636E+03  0.54256706464E+03  0.94084998329E+02 0.  0.
        254    2    1    2    0    0  0.45540772077E+03 -0.24159091035E+03 -0.41287419900E+03  0.11016146107E+04  0.88166166200E+03 0.  0.
         23    2    4    4    0    0  0.38948744048E+03  0.57188220400E+02 -0.60508449466E+03  0.72754022695E+03  0.90645338025E+02 0.  0.
         23    2    4    4    0    0  0.65920280296E+02 -0.29877913075E+03  0.19221029566E+03  0.37407438377E+03  0.96811128012E+02 0.  0.
          4    1    3    3  502    0  0.39242112717E+01 -0.12434064768E+01 -0.29808392991E+01  0.50824105205E+01  0.00000000000E+00 0. -1.
         -3    1    3    3    0  502 -0.45933193204E+03  0.24283431683E+03 -0.13760604706E+03  0.53748465412E+03  0.00000000000E+00 0.  1.
         13    1    5    5    0    0  0.23482532931E+03  0.36828042376E+02 -0.44200288288E+03  0.50186232022E+03  0.00000000000E+00 0.  1.
        -13    1    5    5    0    0  0.15466211117E+03  0.20360178024E+02 -0.16308161178E+03  0.22567790672E+03  0.00000000000E+00 0. -1.
          4    1    6    6  503    0  0.20761615272E+02 -0.58682266361E+02  0.89585801859E+02  0.10908835386E+03  0.00000000000E+00 0. -1.
         -4    1    6    6    0  503  0.45158665024E+02 -0.24009686439E+03  0.10262449380E+03  0.26498602990E+03  0.00000000000E+00 0.  1.
<mgrwt>
<rscale>  0 0.15482294E+04</rscale>
<asrwt>0</asrwt>
<pdfrwt beam="1">  1        2 0.83901584E-01 0.15482294E+04</pdfrwt>
<pdfrwt beam="2">  1       -1 0.16904944E+00 0.15482294E+04</pdfrwt>
<totfact> 0.15298971E+01</totfact>
</mgrwt>
</event>
<event>
12    7  0.1637954E-007  0.1412579E+04  0.7818608E-02  0.8944763E-01
          4   -1    0    0  501    0  0.00000000000E+00  0.00000000000E+00  0.45571839247E+03  0.45571839247E+03  0.00000000000E+00 0. -1.
         -1   -1    0    0    0  501 -0.00000000000E+00 -0.00000000000E+00 -0.10946341241E+04  0.10946341241E+04  0.00000000000E+00 0.  1.
         24    2    1    2    0    0 -0.22544854732E+03 -0.20179060361E+03 -0.50248921223E+03  0.59197875715E+03  0.79980905919E+02 0.  0.
        254    2    1    2    0    0  0.22544854732E+03  0.20179060361E+03 -0.13642651942E+03  0.95837375944E+03  0.89906705667E+03 0.  0.
         23    2    4    4    0    0 -0.33386816352E+03  0.15640299937E+03 -0.69658180545E+02  0.38609819411E+03  0.91047814678E+02 0.  0.
         23    2    4    4    0    0  0.55931671084E+03  0.45387604249E+02 -0.66768338871E+02  0.57227556533E+03  0.90255714265E+02 0.  0.
          4    1    3    3  502    0 -0.78467267072E+02 -0.40706941001E+02 -0.94698239527E+02  0.12954506404E+03  0.00000000000E+00 0. -1.
         -3    1    3    3    0  502 -0.14698128025E+03 -0.16108366261E+03 -0.40779097271E+03  0.46243369311E+03  0.00000000000E+00 0.  1.
         13    1    5    5    0    0 -0.32270007466E+03  0.16754159330E+03 -0.63192608673E+02  0.36905125588E+03  0.00000000000E+00 0.  1.
        -13    1    5    5    0    0 -0.11168088855E+02 -0.11138593936E+02 -0.64655718714E+01  0.17046938234E+02  0.00000000000E+00 0. -1.
          2    1    6    6  503    0  0.24142115571E+03  0.59562314871E+02 -0.87205355884E+01  0.24881296494E+03  0.00000000000E+00 0. -1.
         -2    1    6    6    0  503  0.31789555512E+03 -0.14174710622E+02 -0.58047803283E+02  0.32346260039E+03  0.00000000000E+00 0.  1.
<mgrwt>
<rscale>  0 0.14125791E+04</rscale>
<asrwt>0</asrwt>
<pdfrwt beam="1">  1        4 0.70110524E-01 0.14125791E+04</pdfrwt>
<pdfrwt beam="2">  1       -1 0.16840525E+00 0.14125791E+04</pdfrwt>
<totfact> 0.19176939E+00</totfact>
</mgrwt>
</event>
<event>
12    7  0.1637954E-007  0.1988797E+04  0.7818608E-02  0.8611876E-01
         -1   -1    0    0    0  501 -0.00000000000E+00  0.00000000000E+00  0.36632468731E+03  0.36632468731E+03  0.00000000000E+00 0.  1.
          2   -1    0    0  501    0  0.00000000000E+00 -0.00000000000E+00 -0.26993234769E+04  0.26993234769E+04  0.00000000000E+00 0. -1.
         24    2    1    2    0    0 -0.77087846331E+03  0.11738866960E+03 -0.75283497362E+03  0.10867830491E+04  0.79392652803E+02 0.  0.
        254    2    1    2    0    0  0.77087846331E+03 -0.11738866960E+03 -0.15801638159E+04  0.19788651151E+04  0.90053081769E+03 0.  0.
         23    2    4    4    0    0  0.52089697341E+02 -0.17487131207E+03 -0.10745721865E+04  0.10934751027E+04  0.87687534774E+02 0.  0.
         23    2    4    4    0    0  0.71878876597E+03  0.57482642470E+02 -0.50559162940E+03  0.88539001242E+03  0.91274498574E+02 0.  0.
          2    1    3    3  502    0 -0.51310567524E+03  0.60926157790E+02 -0.54378659016E+03  0.75012884647E+03  0.00000000000E+00 0. -1.
         -1    1    3    3    0  502 -0.25777278807E+03  0.56462511811E+02 -0.20904838346E+03  0.33665420262E+03  0.00000000000E+00 0.  1.
         13    1    5    5    0    0  0.58835006916E+02 -0.49520833272E+02 -0.41282658937E+03  0.41992816511E+03  0.00000000000E+00 0.  1.
        -13    1    5    5    0    0 -0.67453095750E+01 -0.12535047880E+03 -0.66174559717E+03  0.67354693757E+03  0.00000000000E+00 0. -1.
          4    1    6    6  503    0  0.70722557733E+03  0.67596632390E+02 -0.50108239437E+03  0.86937959942E+03  0.00000000000E+00 0. -1.
         -4    1    6    6    0  503  0.11563188645E+02 -0.10113989920E+02 -0.45092350291E+01  0.16010412995E+02  0.00000000000E+00 0.  1.
<mgrwt>
<rscale>  0 0.19887975E+04</rscale>
<asrwt>0</asrwt>
<pdfrwt beam="1">  1        2 0.41528053E+00 0.19887975E+04</pdfrwt>
<pdfrwt beam="2">  1       -1 0.56357645E-01 0.19887975E+04</pdfrwt>
<totfact> 0.89743773E+00</totfact>
</mgrwt>
</event>
<event>
12    7  0.1637954E-007  0.1237385E+04  0.7818608E-02  0.9080748E-01
          2   -1    0    0  501    0  0.00000000000E+00  0.00000000000E+00  0.20888396534E+04  0.20888396534E+04  0.00000000000E+00 0. -1.
         -1   -1    0    0    0  501 -0.00000000000E+00 -0.00000000000E+00 -0.18325040023E+03  0.18325040023E+03  0.00000000000E+00 0.  1.
         24    2    1    2    0    0  0.82353054860E+02  0.27029419350E+03  0.22890567969E+03  0.37250460002E+03  0.80752028796E+02 0.  0.
        254    2    1    2    0    0 -0.82353054860E+02 -0.27029419350E+03  0.16766835735E+04  0.18995854536E+04  0.84694516549E+03 0.  0.
         23    2    4    4    0    0  0.12500863606E+03  0.50928073429E+02  0.14218753289E+04  0.14313750604E+04  0.94256484739E+02 0.  0.
         23    2    4    4    0    0 -0.20736169092E+03 -0.32122226693E+03  0.25480824459E+03  0.46821039321E+03  0.90061729735E+02 0.  0.
          4    1    3    3  502    0  0.41401853297E+02  0.99497108099E+02  0.41023546304E+02  0.11531140155E+03  0.00000000000E+00 0. -1.
         -3    1    3    3    0  502  0.40951201563E+02  0.17079708540E+03  0.18788213339E+03  0.25719319847E+03  0.00000000000E+00 0.  1.
         13    1    5    5    0    0  0.42432062199E+01  0.13280907735E+02  0.56890521076E+03  0.56907602844E+03  0.00000000000E+00 0.  1.
        -13    1    5    5    0    0  0.12076542984E+03  0.37647165693E+02  0.85297011814E+03  0.86229903199E+03  0.00000000000E+00 0. -1.
          3    1    6    6  503    0 -0.10988932055E+03 -0.98076748726E+02  0.11926596797E+03  0.18952330339E+03  0.00000000000E+00 0. -1.
         -3    1    6    6    0  503 -0.97472370372E+02 -0.22314551821E+03  0.13554227662E+03  0.27868708982E+03  0.00000000000E+00 0.  1.
<mgrwt>
<rscale>  0 0.12373855E+04</rscale>
<asrwt>0</asrwt>
<pdfrwt beam="1">  1        2 0.32135993E+00 0.12373855E+04</pdfrwt>
<pdfrwt beam="2">  1       -1 0.28192371E-01 0.12373855E+04</pdfrwt>
<totfact> 0.76171217E+01</totfact>
</mgrwt>
</event>
<event>
12    7  0.1637954E-007  0.2709707E+04  0.7818608E-02  0.8331862E-01
         -1   -1    0    0    0  501 -0.00000000000E+00  0.00000000000E+00  0.65389549118E+03  0.65389549118E+03  0.00000000000E+00 0.  1.
          2   -1    0    0  501    0  0.00000000000E+00 -0.00000000000E+00 -0.28072196945E+04  0.28072196945E+04  0.00000000000E+00 0. -1.
         24    2    1    2    0    0  0.84743784321E+03  0.40311275575E+03 -0.19280028690E+04  0.21457872271E+04  0.80975114436E+02 0.  0.
        254    2    1    2    0    0 -0.84743784321E+03 -0.40311275575E+03 -0.22532133433E+03  0.13153279586E+04  0.89368179068E+03 0.  0.
         23    2    4    4    0    0 -0.60768265672E+03  0.19311465399E+03 -0.76874278903E+02  0.64875180136E+03  0.91639315514E+02 0.  0.
         23    2    4    4    0    0 -0.23975518649E+03 -0.59622740974E+03 -0.14844705543E+03  0.66657615723E+03  0.96527568880E+02 0.  0.
          2    1    3    3  502    0  0.35279725826E+03  0.14934156854E+03 -0.86996571037E+03  0.95058358220E+03  0.00000000000E+00 0. -1.
         -1    1    3    3    0  502  0.49464058495E+03  0.25377118721E+03 -0.10580371586E+04  0.11952036449E+04  0.00000000000E+00 0.  1.
         13    1    5    5    0    0 -0.57262094941E+03  0.20115512990E+03 -0.62957575727E+02  0.61018177155E+03  0.00000000000E+00 0. -1.
        -13    1    5    5    0    0 -0.35061707308E+02 -0.80404759120E+01 -0.13916703177E+02  0.38570029810E+02  0.00000000000E+00 0.  1.
          1    1    6    6  503    0 -0.15014813999E+03 -0.47917035055E+03 -0.12284920794E+03  0.51695320550E+03  0.00000000000E+00 0. -1.
         -1    1    6    6    0  503 -0.89607046500E+02 -0.11705705919E+03 -0.25597847492E+02  0.14962295173E+03  0.00000000000E+00 0.  1.
<mgrwt>
<rscale>  0 0.27097072E+04</rscale>
<asrwt>0</asrwt>
<pdfrwt beam="1">  1        2 0.43187995E+00 0.27097072E+04</pdfrwt>
<pdfrwt beam="2">  1       -1 0.10059931E+00 0.27097072E+04</pdfrwt>
<totfact> 0.21440176E+00</totfact>
</mgrwt>
</event>
<event>
12    7  0.1637954E-007  0.2115004E+04  0.7818608E-02  0.8554663E-01
         -1   -1    0    0    0  501 -0.00000000000E+00  0.00000000000E+00  0.69957146739E+03  0.69957146739E+03  0.00000000000E+00 0.  1.
          2   -1    0    0  501    0  0.00000000000E+00 -0.00000000000E+00 -0.15985645262E+04  0.15985645262E+04  0.00000000000E+00 0. -1.
         24    2    1    2    0    0 -0.31678962459E+03  0.27384029326E+03  0.44633657636E+03  0.61721890361E+03  0.79991644085E+02 0.  0.
        254    2    1    2    0    0  0.31678962459E+03 -0.27384029326E+03 -0.13453296352E+04  0.16809170900E+04  0.91663856763E+03 0.  0.
         23    2    4    4    0    0  0.21866320487E+03 -0.80688599782E+02 -0.14139212262E+04  0.14361184929E+04  0.94545460991E+02 0.  0.
         23    2    4    4    0    0  0.98126419713E+02 -0.19315169348E+03  0.68591591063E+02  0.24479859714E+03  0.91022941370E+02 0.  0.
          4    1    3    3  502    0 -0.91374676493E+01 -0.33778971060E+01  0.23145510188E+02  0.25112111535E+02  0.00000000000E+00 0. -1.
         -1    1    3    3    0  502 -0.30765215694E+03  0.27721819037E+03  0.42319106617E+03  0.59210679208E+03  0.00000000000E+00 0.  1.
         13    1    5    5    0    0  0.36983094358E+02 -0.27659440649E+02 -0.53826908915E+03  0.54024661615E+03  0.00000000000E+00 0. -1.
        -13    1    5    5    0    0  0.18168011052E+03 -0.53029159133E+02 -0.87565213710E+03  0.89587187671E+03  0.00000000000E+00 0.  1.
          1    1    6    6  503    0  0.94295181862E+02 -0.19563576353E+03  0.46314631374E+02  0.22205850214E+03  0.00000000000E+00 0. -1.
         -1    1    6    6    0  503  0.38312378507E+01  0.24840700470E+01  0.22276959690E+02  0.22740094997E+02  0.00000000000E+00 0.  1.
<mgrwt>
<rscale>  0 0.21150037E+04</rscale>
<asrwt>0</asrwt>
<pdfrwt beam="1">  1        2 0.24593300E+00 0.21150037E+04</pdfrwt>
<pdfrwt beam="2">  1       -1 0.10762638E+00 0.21150037E+04</pdfrwt>
<totfact> 0.94117306E+00</totfact>
</mgrwt>
</event>
<event>
12    7  0.1637954E-007  0.1504067E+04  0.7818608E-02  0.8881753E-01
         -1   -1    0    0    0  501 -0.00000000000E+00  0.00000000000E+00  0.55230821590E+03  0.55230821590E+03  0.00000000000E+00 0.  1.
          2   -1    0    0  501    0  0.00000000000E+00 -0.00000000000E+00 -0.10239829900E+04  0.10239829900E+04  0.00000000000E+00 0. -1.
         24    2    1    2    0    0  0.16387860159E+03 -0.29222689985E+01 -0.61030922955E+03  0.63690156595E+03  0.79382071760E+02 0.  0.
        254    2    1    2    0    0 -0.16387860159E+03  0.29222689985E+01  0.13863445543E+03  0.93938963998E+03  0.91453192823E+03 0.  0.
         23    2    4    4    0    0  0.34637719950E+03  0.15234664767E+03  0.39042576786E+02  0.39101991784E+03  0.90474239177E+02 0.  0.
         23    2    4    4    0    0 -0.51025580110E+03 -0.14942437868E+03  0.99591878644E+02  0.54836972214E+03  0.90012123440E+02 0.  0.
          2    1    3    3  502    0  0.84932606524E+02 -0.21177184169E+02 -0.43571865450E+03  0.44442408424E+03  0.00000000000E+00 0. -1.
         -1    1    3    3    0  502  0.78945995070E+02  0.18254915170E+02 -0.17459057505E+03  0.19247748170E+03  0.00000000000E+00 0.  1.
         13    1    5    5    0    0  0.24335064423E+03  0.12381146250E+03 -0.10401475232E+02  0.27323434078E+03  0.00000000000E+00 0.  1.
        -13    1    5    5    0    0  0.10302655527E+03  0.28535185170E+02  0.49444052018E+02  0.11778557706E+03  0.00000000000E+00 0. -1.
          2    1    6    6  503    0 -0.30887774196E+03 -0.98624057182E+02  0.16445808733E+02  0.32465771015E+03  0.00000000000E+00 0. -1.
         -2    1    6    6    0  503 -0.20137805914E+03 -0.50800321494E+02  0.83146069911E+02  0.22371201199E+03  0.00000000000E+00 0.  1.
<mgrwt>
<rscale>  0 0.15040668E+04</rscale>
<asrwt>0</asrwt>
<pdfrwt beam="1">  1        2 0.15753584E+00 0.15040668E+04</pdfrwt>
<pdfrwt beam="2">  1       -1 0.84970496E-01 0.15040668E+04</pdfrwt>
<totfact> 0.36716439E+01</totfact>
</mgrwt>
</event>
<event>
12    7  0.1637954E-007  0.2777820E+04  0.7818608E-02  0.8310188E-01
          2   -1    0    0  501    0  0.00000000000E+00  0.00000000000E+00  0.19373211579E+04  0.19373211579E+04  0.00000000000E+00 0. -1.
         -1   -1    0    0    0  501 -0.00000000000E+00 -0.00000000000E+00 -0.99574141037E+03  0.99574141037E+03  0.00000000000E+00 0.  1.
         24    2    1    2    0    0  0.44340498302E+03 -0.50459520925E+03 -0.68163184188E+03  0.95998612693E+03  0.75677551911E+02 0.  0.
        254    2    1    2    0    0 -0.44340498302E+03  0.50459520925E+03  0.16232115895E+04  0.19730764414E+04  0.89832648587E+03 0.  0.
         23    2    4    4    0    0 -0.13150100773E+03  0.10615863463E+03  0.14002614044E+04  0.14133449565E+04  0.90828380021E+02 0.  0.
         23    2    4    4    0    0 -0.31190397529E+03  0.39843657462E+03  0.22295018506E+03  0.55973148489E+03  0.86929605827E+02 0.  0.
          2    1    3    3  502    0  0.22593458470E+02 -0.43792444009E+02 -0.29752487802E+02  0.57562601125E+02  0.00000000000E+00 0. -1.
         -1    1    3    3    0  502  0.42081152455E+03 -0.46080276525E+03 -0.65187935408E+03  0.90242352580E+03  0.00000000000E+00 0.  1.
         13    1    5    5    0    0 -0.10726591208E+03  0.33392495011E+02  0.94701803328E+03  0.95365831930E+03  0.00000000000E+00 0. -1.
        -13    1    5    5    0    0 -0.24235095651E+02  0.72766139619E+02  0.45324337113E+03  0.45968663718E+03  0.00000000000E+00 0.  1.
          2    1    6    6  503    0 -0.16622808102E+03  0.25834707899E+03  0.16867304084E+03  0.35046480971E+03  0.00000000000E+00 0. -1.
         -2    1    6    6    0  503 -0.14567589426E+03  0.14008949563E+03  0.54277144219E+02  0.20926667518E+03  0.00000000000E+00 0.  1.
<mgrwt>
<rscale>  0 0.27778199E+04</rscale>
<asrwt>0</asrwt>
<pdfrwt beam="1">  1        2 0.29804941E+00 0.27778199E+04</pdfrwt>
<pdfrwt beam="2">  1       -1 0.15319099E+00 0.27778199E+04</pdfrwt>
<totfact> 0.23662187E+00</totfact>
</mgrwt>
</event>
<event>
12    7  0.1637954E-007  0.1882843E+04  0.7818608E-02  0.8663444E-01
          2   -1    0    0  501    0  0.00000000000E+00  0.00000000000E+00  0.79502096034E+03  0.79502096034E+03  0.00000000000E+00 0. -1.
         -1   -1    0    0    0  501 -0.00000000000E+00 -0.00000000000E+00 -0.11147815859E+04  0.11147815859E+04  0.00000000000E+00 0.  1.
         24    2    1    2    0    0  0.63576681665E+03  0.23018493460E+03 -0.34175485456E+03  0.76567114737E+03  0.11077624311E+03 0.  0.
        254    2    1    2    0    0 -0.63576681665E+03 -0.23018493460E+03  0.21994229022E+02  0.11441313988E+04  0.92269624604E+03 0.  0.
         23    2    4    4    0    0 -0.49437799116E+02  0.12197468533E+03  0.34583077796E+03  0.38180220898E+03  0.94085492786E+02 0.  0.
         23    2    4    4    0    0 -0.58632901753E+03 -0.35215961993E+03 -0.32383654894E+03  0.76232918987E+03  0.92073712830E+02 0.  0.
          2    1    3    3  502    0  0.22955415518E+03  0.67111061933E+02 -0.65158424775E+02  0.24788026367E+03  0.00000000000E+00 0. -1.
         -1    1    3    3    0  502  0.40621266146E+03  0.16307387267E+03 -0.27659642978E+03  0.51779088371E+03  0.00000000000E+00 0.  1.
         13    1    5    5    0    0 -0.11568674630E+02  0.72118266636E+02  0.78444615814E+02  0.10718412366E+03  0.00000000000E+00 0.  1.
        -13    1    5    5    0    0 -0.37869124486E+02  0.49856418693E+02  0.26738616214E+03  0.27461808531E+03  0.00000000000E+00 0. -1.
          1    1    6    6  503    0 -0.38611977687E+03 -0.18158496130E+03 -0.21322158975E+03  0.47699583499E+03  0.00000000000E+00 0. -1.
         -1    1    6    6    0  503 -0.20020924066E+03 -0.17057465863E+03 -0.11061495919E+03  0.28533335489E+03  0.00000000000E+00 0.  1.
<mgrwt>
<rscale>  0 0.18828433E+04</rscale>
<asrwt>0</asrwt>
<pdfrwt beam="1">  1        2 0.12231092E+00 0.18828433E+04</pdfrwt>
<pdfrwt beam="2">  1       -1 0.17150486E+00 0.18828433E+04</pdfrwt>
<totfact> 0.89188442E+00</totfact>
</mgrwt>
</event>
<event>
12    7  0.1637954E-007  0.1380768E+04  0.7818608E-02  0.8967859E-01
          2   -1    0    0  501    0  0.00000000000E+00  0.00000000000E+00  0.10350785679E+04  0.10350785679E+04  0.00000000000E+00 0. -1.
         -1   -1    0    0    0  501 -0.00000000000E+00 -0.00000000000E+00 -0.46047701533E+03  0.46047701533E+03  0.00000000000E+00 0.  1.
         24    2    1    2    0    0  0.10258407305E+03 -0.97186963071E+02  0.55352841799E+03  0.57707201762E+03  0.81545117360E+02 0.  0.
        254    2    1    2    0    0 -0.10258407305E+03  0.97186963071E+02  0.21073134551E+02  0.91848356557E+03  0.90730324886E+03 0.  0.
         23    2    4    4    0    0 -0.34935822991E+03  0.47987790509E+02 -0.31964851077E+03  0.48480604470E+03  0.92237355174E+02 0.  0.
         23    2    4    4    0    0  0.24677415686E+03  0.49199172563E+02  0.34072164533E+03  0.43367752087E+03  0.93096237538E+02 0.  0.
          2    1    3    3  502    0  0.65097071703E+02 -0.45137574545E+02  0.43638774208E+03  0.44351921133E+03  0.00000000000E+00 0. -1.
         -1    1    3    3    0  502  0.37487001349E+02 -0.52049388526E+02  0.11714067591E+03  0.13355280629E+03  0.00000000000E+00 0.  1.
         13    1    5    5    0    0 -0.34687738883E+03  0.58965984482E+02 -0.31613867838E+03  0.47301646291E+03  0.00000000000E+00 0.  1.
        -13    1    5    5    0    0 -0.24808410763E+01 -0.10978193973E+02 -0.35098323900E+01  0.11789581789E+02  0.00000000000E+00 0. -1.
          4    1    6    6  503    0  0.65437897861E+02  0.37351319724E+02  0.16263322997E+03  0.17923952425E+03  0.00000000000E+00 0. -1.
         -4    1    6    6    0  503  0.18133625900E+03  0.11847852839E+02  0.17808841536E+03  0.25443799663E+03  0.00000000000E+00 0.  1.
<mgrwt>
<rscale>  0 0.13807677E+04</rscale>
<asrwt>0</asrwt>
<pdfrwt beam="1">  1        2 0.15924286E+00 0.13807677E+04</pdfrwt>
<pdfrwt beam="2">  1       -1 0.70842618E-01 0.13807677E+04</pdfrwt>
<totfact> 0.53548580E+01</totfact>
</mgrwt>
</event>
<event>
12    7  0.1637954E-007  0.1680715E+04  0.7818608E-02  0.8772440E-01
          2   -1    0    0  501    0  0.00000000000E+00  0.00000000000E+00  0.17522947382E+04  0.17522947382E+04  0.00000000000E+00 0. -1.
         -1   -1    0    0    0  501 -0.00000000000E+00 -0.00000000000E+00 -0.40301490722E+03  0.40301490722E+03  0.00000000000E+00 0.  1.
         24    2    1    2    0    0  0.27024540285E+03 -0.42462257671E+03  0.61346297989E+02  0.51165435843E+03  0.68482872342E+02 0.  0.
        254    2    1    2    0    0 -0.27024540285E+03  0.42462257671E+03  0.12879335330E+04  0.16436552870E+04  0.88853418991E+03 0.  0.
         23    2    4    4    0    0 -0.50293643944E+03 -0.14862547120E+02  0.57674629629E+03  0.77167490808E+03  0.98386564369E+02 0.  0.
         23    2    4    4    0    0  0.23269103658E+03  0.43948512383E+03  0.71118723674E+03  0.87198037895E+03  0.85265485372E+02 0.  0.
          4    1    3    3  502    0  0.16521696869E+02 -0.20492460755E+02 -0.11902668715E+02  0.28889114520E+02  0.00000000000E+00 0. -1.
         -3    1    3    3    0  502  0.25372370599E+03 -0.40413011596E+03  0.73248966704E+02  0.48276524391E+03  0.00000000000E+00 0.  1.
         13    1    5    5    0    0 -0.10155989633E+03  0.26702822211E+02  0.81993391780E+02  0.13323051284E+03  0.00000000000E+00 0.  1.
        -13    1    5    5    0    0 -0.40137654311E+03 -0.41565369331E+02  0.49475290451E+03  0.63844439524E+03  0.00000000000E+00 0. -1.
          3    1    6    6  503    0  0.14787976657E+03  0.23201367670E+03  0.45369429723E+03  0.53060087342E+03  0.00000000000E+00 0. -1.
         -3    1    6    6    0  503  0.84811270013E+02  0.20747144714E+03  0.25749293950E+03  0.34137950553E+03  0.00000000000E+00 0.  1.
<mgrwt>
<rscale>  0 0.16807152E+04</rscale>
<asrwt>0</asrwt>
<pdfrwt beam="1">  1        2 0.26958380E+00 0.16807152E+04</pdfrwt>
<pdfrwt beam="2">  1       -1 0.62002294E-01 0.16807152E+04</pdfrwt>
<totfact> 0.26268255E+01</totfact>
</mgrwt>
</event>
<event>
12    7  0.2046011E-007  0.1778405E+04  0.7818608E-02  0.8717868E-01
         -1   -1    0    0    0  501 -0.00000000000E+00  0.00000000000E+00  0.60391920572E+03  0.60391920572E+03  0.00000000000E+00 0.  1.
          2   -1    0    0  501    0  0.00000000000E+00 -0.00000000000E+00 -0.13092499829E+04  0.13092499829E+04  0.00000000000E+00 0. -1.
         24    2    1    2    0    0  0.29844651746E+03  0.51066959252E+03 -0.59731413484E+03  0.84444546804E+03  0.80313238640E+02 0.  0.
        254    2    1    2    0    0 -0.29844651746E+03 -0.51066959252E+03 -0.10801664238E+03  0.10687237206E+04  0.88354345647E+03 0.  0.
         23    2    4    4    0    0 -0.11771352779E+03 -0.39191857790E+03 -0.47441693774E+03  0.63286704289E+03  0.89401436397E+02 0.  0.
         23    2    4    4    0    0 -0.18073298967E+03 -0.11875101462E+03  0.36640029536E+03  0.43585667773E+03  0.94634296395E+02 0.  0.
          2    1    3    3  502    0  0.28114081056E+03  0.45767837360E+03 -0.50890202896E+03  0.73992629640E+03  0.00000000000E+00 0. -1.
         -1    1    3    3    0  502  0.17305706902E+02  0.52991218924E+02 -0.88412105881E+02  0.10451917164E+03  0.00000000000E+00 0.  1.
         13    1    5    5    0    0 -0.10720895634E+03 -0.23568770906E+03 -0.33347385684E+03  0.42219340321E+03  0.00000000000E+00 0. -1.
        -13    1    5    5    0    0 -0.10504571454E+02 -0.15623086884E+03 -0.14094308091E+03  0.21067363968E+03  0.00000000000E+00 0.  1.
          4    1    6    6  503    0 -0.85397722709E+02 -0.93253468240E+02  0.26881430186E+03  0.29706919946E+03  0.00000000000E+00 0. -1.
         -4    1    6    6    0  503 -0.95335266957E+02 -0.25497546380E+02  0.97585993500E+02  0.13878747827E+03  0.00000000000E+00 0.  1.
<mgrwt>
<rscale>  0 0.17784051E+04</rscale>
<asrwt>0</asrwt>
<pdfrwt beam="1">  1        2 0.20142307E+00 0.17784051E+04</pdfrwt>
<pdfrwt beam="2">  1       -1 0.92910647E-01 0.17784051E+04</pdfrwt>
<totfact> 0.19811472E+01</totfact>
</mgrwt>
</event>
<event>
12    7  0.1637954E-007  0.1458179E+04  0.7818608E-02  0.8912750E-01
          2   -1    0    0  501    0  0.00000000000E+00  0.00000000000E+00  0.16117477180E+04  0.16117477180E+04  0.00000000000E+00 0. -1.
         -1   -1    0    0    0  501 -0.00000000000E+00 -0.00000000000E+00 -0.32981039956E+03  0.32981039956E+03  0.00000000000E+00 0.  1.
         24    2    1    2    0    0  0.41709498239E+03  0.16357613947E+03  0.34184093057E+03  0.56955619459E+03  0.82544892305E+02 0.  0.
        254    2    1    2    0    0 -0.41709498239E+03 -0.16357613947E+03  0.94009638787E+03  0.13720019230E+04  0.89324278919E+03 0.  0.
         23    2    4    4    0    0  0.27252749571E+02 -0.43882135003E+03  0.29976331554E+03  0.54052266919E+03  0.94867386196E+02 0.  0.
         23    2    4    4    0    0 -0.44434773196E+03  0.27524521056E+03  0.64033307233E+03  0.83147925379E+03  0.90146952986E+02 0.  0.
          2    1    3    3  502    0  0.95822322850E+01  0.11262923986E+01  0.29471768300E+02  0.31010850308E+02  0.00000000000E+00 0. -1.
         -1    1    3    3    0  502  0.40751275010E+03  0.16244984708E+03  0.31236916227E+03  0.53854534428E+03  0.00000000000E+00 0.  1.
         13    1    5    5    0    0  0.60027664453E+02 -0.29825826265E+03  0.22156025197E+03  0.37636452674E+03  0.00000000000E+00 0. -1.
        -13    1    5    5    0    0 -0.32774914882E+02 -0.14056308739E+03  0.78203063571E+02  0.16415814245E+03  0.00000000000E+00 0.  1.
          2    1    6    6  503    0 -0.41969050743E+03  0.27806078209E+03  0.62400068249E+03  0.80176977513E+03  0.00000000000E+00 0. -1.
         -2    1    6    6    0  503 -0.24657224525E+02 -0.28155715298E+01  0.16332389838E+02  0.29709478658E+02  0.00000000000E+00 0.  1.
<mgrwt>
<rscale>  0 0.14581785E+04</rscale>
<asrwt>0</asrwt>
<pdfrwt beam="1">  1        2 0.24796118E+00 0.14581785E+04</pdfrwt>
<pdfrwt beam="2">  1       -1 0.50740062E-01 0.14581785E+04</pdfrwt>
<totfact> 0.47335155E+01</totfact>
</mgrwt>
</event>
<event>
12    7  0.1637954E-007  0.1218713E+04  0.7818608E-02  0.9096633E-01
          2   -1    0    0  501    0  0.00000000000E+00  0.00000000000E+00  0.31581234185E+04  0.31581234185E+04  0.00000000000E+00 0. -1.
         -1   -1    0    0    0  501 -0.00000000000E+00 -0.00000000000E+00 -0.11757460458E+03  0.11757460458E+03  0.00000000000E+00 0.  1.
         24    2    1    2    0    0 -0.69272503975E+02  0.23462475873E+03  0.34898775852E+03  0.43350958129E+03  0.79313581789E+02 0.  0.
        254    2    1    2    0    0  0.69272503975E+02 -0.23462475873E+03  0.26915610554E+04  0.28421884418E+04  0.87959466033E+03 0.  0.
         23    2    4    4    0    0  0.62790625383E+02  0.32521004166E+03  0.10672992991E+04  0.11211390912E+04  0.90115671268E+02 0.  0.
         23    2    4    4    0    0  0.64818785917E+01 -0.55983480039E+03  0.16242617563E+04  0.17210493506E+04  0.10162477837E+03 0.  0.
          4    1    3    3  502    0  0.13920219792E+02  0.98719545290E+01  0.30165536234E+02  0.34658153176E+02  0.00000000000E+00 0. -1.
         -3    1    3    3    0  502 -0.83192723767E+02  0.22475280420E+03  0.31882222229E+03  0.39885142812E+03  0.00000000000E+00 0.  1.
         13    1    5    5    0    0  0.10734527773E+01  0.13552557159E+03  0.31657526866E+03  0.34436642343E+03  0.00000000000E+00 0. -1.
        -13    1    5    5    0    0  0.61717172606E+02  0.18968447007E+03  0.75072403041E+03  0.77677266778E+03  0.00000000000E+00 0.  1.
          4    1    6    6  503    0  0.11391857448E+02 -0.11433515222E+03  0.22612110852E+03  0.25363962066E+03  0.00000000000E+00 0. -1.
         -4    1    6    6    0  503 -0.49099788561E+01 -0.44549964818E+03  0.13981406478E+04  0.14674097299E+04  0.00000000000E+00 0.  1.
<mgrwt>
<rscale>  0 0.12187126E+04</rscale>
<asrwt>0</asrwt>
<pdfrwt beam="1">  1        2 0.48586508E+00 0.12187126E+04</pdfrwt>
<pdfrwt beam="2">  1       -1 0.18088403E-01 0.12187126E+04</pdfrwt>
<totfact> 0.38124113E+01</totfact>
</mgrwt>
</event>
<event>
12    7  0.1637954E-007  0.2040725E+04  0.7818608E-02  0.8587813E-01
         -1   -1    0    0    0  501 -0.00000000000E+00  0.00000000000E+00  0.78890832251E+03  0.78890832251E+03  0.00000000000E+00 0.  1.
          2   -1    0    0  501    0  0.00000000000E+00 -0.00000000000E+00 -0.13197223888E+04  0.13197223888E+04  0.00000000000E+00 0. -1.
         24    2    1    2    0    0  0.11994146814E+03  0.86165917836E+02  0.61948741209E+03  0.64195169212E+03  0.80788613638E+02 0.  0.
        254    2    1    2    0    0 -0.11994146814E+03 -0.86165917836E+02 -0.11503014784E+04  0.14666790192E+04  0.89785485074E+03 0.  0.
         23    2    4    4    0    0 -0.22066806881E+03 -0.43874926438E+03 -0.45912607258E+03  0.67881609918E+03  0.93804223732E+02 0.  0.
         23    2    4    4    0    0  0.10072660067E+03  0.35258334654E+03 -0.69117540585E+03  0.78786292006E+03  0.92432001003E+02 0.  0.
          4    1    3    3  502    0  0.45889913226E+02  0.76725550733E+02  0.26451858397E+03  0.27921815044E+03  0.00000000000E+00 0. -1.
         -3    1    3    3    0  502  0.74051554912E+02  0.94403671028E+01  0.35496882813E+03  0.36273354168E+03  0.00000000000E+00 0.  1.
         13    1    5    5    0    0 -0.20609701270E+03 -0.33061904178E+03 -0.33783244067E+03  0.51567013430E+03  0.00000000000E+00 0. -1.
        -13    1    5    5    0    0 -0.14571056109E+02 -0.10813022259E+03 -0.12129363191E+03  0.16314596488E+03  0.00000000000E+00 0.  1.
          1    1    6    6  503    0  0.77099428896E+02  0.27143734359E+03 -0.43866130000E+03  0.52158056861E+03  0.00000000000E+00 0. -1.
         -1    1    6    6    0  503  0.23627171777E+02  0.81146002952E+02 -0.25251410585E+03  0.26628235145E+03  0.00000000000E+00 0.  1.
<mgrwt>
<rscale>  0 0.20407253E+04</rscale>
<asrwt>0</asrwt>
<pdfrwt beam="1">  1        2 0.20303421E+00 0.20407253E+04</pdfrwt>
<pdfrwt beam="2">  1       -1 0.12137051E+00 0.20407253E+04</pdfrwt>
<totfact> 0.10230780E+01</totfact>
</mgrwt>
</event>
<event>
12    7  0.1637954E-007  0.2409363E+04  0.7818608E-02  0.8436007E-01
         -1   -1    0    0    0  501 -0.00000000000E+00  0.00000000000E+00  0.10247784692E+04  0.10247784692E+04  0.00000000000E+00 0.  1.
          2   -1    0    0  501    0  0.00000000000E+00 -0.00000000000E+00 -0.14161667743E+04  0.14161667743E+04  0.00000000000E+00 0. -1.
         24    2    1    2    0    0 -0.33071411819E+03  0.74399324068E+03 -0.81357048890E+03  0.11536435423E+04  0.78094251953E+02 0.  0.
        254    2    1    2    0    0  0.33071411819E+03 -0.74399324068E+03  0.42218218379E+03  0.12873017011E+04  0.90333277551E+03 0.  0.
         23    2    4    4    0    0  0.42458857445E+03 -0.87593589654E+03  0.20101911225E+03  0.99815656959E+03  0.91480607413E+02 0.  0.
         23    2    4    4    0    0 -0.93874456256E+02  0.13194265586E+03  0.22116307155E+03  0.28914513155E+03  0.92035454658E+02 0.  0.
          4    1    3    3  502    0 -0.18511100262E+03  0.50375511961E+03 -0.51872811931E+03  0.74640080760E+03  0.00000000000E+00 0. -1.
         -1    1    3    3    0  502 -0.14560311557E+03  0.24023812107E+03 -0.29484236959E+03  0.40724273473E+03  0.00000000000E+00 0.  1.
         13    1    5    5    0    0  0.61785098272E+02 -0.98580507384E+02 -0.29928611429E+01  0.11638072015E+03  0.00000000000E+00 0. -1.
        -13    1    5    5    0    0  0.36280347617E+03 -0.77735538916E+03  0.20401197339E+03  0.88177584944E+03  0.00000000000E+00 0.  1.
          2    1    6    6  503    0  0.16956837292E+02  0.28025369760E+02  0.26018589323E+02  0.41832077064E+02  0.00000000000E+00 0. -1.
         -2    1    6    6    0  503 -0.11083129355E+03  0.10391728610E+03  0.19514448222E+03  0.24731305449E+03  0.00000000000E+00 0.  1.
<mgrwt>
<rscale>  0 0.24093628E+04</rscale>
<asrwt>0</asrwt>
<pdfrwt beam="1">  1        2 0.21787181E+00 0.24093628E+04</pdfrwt>
<pdfrwt beam="2">  1       -1 0.15765823E+00 0.24093628E+04</pdfrwt>
<totfact> 0.44155752E+00</totfact>
</mgrwt>
</event>
<event>
12    7  0.1637954E-007  0.1786227E+04  0.7818608E-02  0.8713658E-01
         -1   -1    0    0    0  501 -0.00000000000E+00  0.00000000000E+00  0.41946939794E+03  0.41946939794E+03  0.00000000000E+00 0.  1.
          2   -1    0    0  501    0  0.00000000000E+00 -0.00000000000E+00 -0.19015724153E+04  0.19015724153E+04  0.00000000000E+00 0. -1.
         24    2    1    2    0    0 -0.33427752859E+02 -0.57222062825E+03 -0.85578196358E+02  0.58505188774E+03  0.80051368505E+02 0.  0.
        254    2    1    2    0    0  0.33427752859E+02  0.57222062825E+03 -0.13965248210E+04  0.17359899255E+04  0.85721968231E+03 0.  0.
         23    2    4    4    0    0 -0.38735216449E+03  0.15614936353E+03 -0.67359802661E+03  0.79791318974E+03  0.92232498903E+02 0.  0.
         23    2    4    4    0    0  0.42077991735E+03  0.41607126472E+03 -0.72292679442E+03  0.93807673579E+03  0.84816130297E+02 0.  0.
          2    1    3    3  502    0 -0.59095926382E+02 -0.38174938254E+03 -0.65544723232E+02  0.39181759829E+03  0.00000000000E+00 0. -1.
         -1    1    3    3    0  502  0.25668173523E+02 -0.19047124571E+03 -0.20033473126E+02  0.19323428945E+03  0.00000000000E+00 0.  1.
         13    1    5    5    0    0 -0.13697294417E+03  0.48277430227E+02 -0.32003039085E+03  0.35144238329E+03  0.00000000000E+00 0.  1.
        -13    1    5    5    0    0 -0.25037922032E+03  0.10787193330E+03 -0.35356763576E+03  0.44647080646E+03  0.00000000000E+00 0. -1.
          3    1    6    6  503    0  0.18354459114E+03  0.18469079631E+03 -0.38494298934E+03  0.46473692798E+03  0.00000000000E+00 0. -1.
         -3    1    6    6    0  503  0.23723532621E+03  0.23138046841E+03 -0.33798380508E+03  0.47333980781E+03  0.00000000000E+00 0.  1.
<mgrwt>
<rscale>  0 0.17862267E+04</rscale>
<asrwt>0</asrwt>
<pdfrwt beam="1">  1        2 0.29254961E+00 0.17862267E+04</pdfrwt>
<pdfrwt beam="2">  1       -1 0.64533752E-01 0.17862267E+04</pdfrwt>
<totfact> 0.19860359E+01</totfact>
</mgrwt>
</event>
<event>
12    7  0.1637954E-007  0.1254930E+04  0.7818608E-02  0.9066090E-01
          2   -1    0    0  501    0  0.00000000000E+00  0.00000000000E+00  0.37571705968E+03  0.37571705968E+03  0.00000000000E+00 0. -1.
         -1   -1    0    0    0  501 -0.00000000000E+00 -0.00000000000E+00 -0.10478955903E+04  0.10478955903E+04  0.00000000000E+00 0.  1.
         24    2    1    2    0    0  0.20391412416E+03 -0.15276834976E+03  0.30672586760E+02  0.26880029522E+03  0.79960317711E+02 0.  0.
        254    2    1    2    0    0 -0.20391412416E+03  0.15276834976E+03 -0.70285111739E+03  0.11548123548E+04  0.88015495386E+03 0.  0.
         23    2    4    4    0    0 -0.51702853966E+03 -0.53052868839E+02 -0.44767886209E+03  0.69208529259E+03  0.91829031070E+02 0.  0.
         23    2    4    4    0    0  0.31311441550E+03  0.20582121860E+03 -0.25517225531E+03  0.46272706218E+03  0.92738573291E+02 0.  0.
          4    1    3    3  502    0  0.14318975528E+03 -0.14660997513E+03  0.33716035811E+02  0.20768861764E+03  0.00000000000E+00 0. -1.
         -3    1    3    3    0  502  0.60724368882E+02 -0.61583746266E+01 -0.30434490512E+01  0.61111677577E+02  0.00000000000E+00 0.  1.
         13    1    5    5    0    0 -0.34538971791E+03 -0.76640611280E+02 -0.31763254633E+03  0.47545586022E+03  0.00000000000E+00 0.  1.
        -13    1    5    5    0    0 -0.17163882175E+03  0.23587742440E+02 -0.13004631576E+03  0.21662943237E+03  0.00000000000E+00 0. -1.
          3    1    6    6  503    0  0.98827883522E+02  0.25576840300E+02 -0.40209423825E+02  0.10971746937E+03  0.00000000000E+00 0. -1.
         -3    1    6    6    0  503  0.21428653198E+03  0.18024437830E+03 -0.21496283148E+03  0.35300959281E+03  0.00000000000E+00 0.  1.
<mgrwt>
<rscale>  0 0.12549299E+04</rscale>
<asrwt>0</asrwt>
<pdfrwt beam="1">  1        2 0.57802625E-01 0.12549299E+04</pdfrwt>
<pdfrwt beam="2">  1       -1 0.16121470E+00 0.12549299E+04</pdfrwt>
<totfact> 0.27479358E+01</totfact>
</mgrwt>
</event>
<event>
12    7  0.1637954E-007  0.2598874E+04  0.7818608E-02  0.8368584E-01
         -1   -1    0    0    0  501 -0.00000000000E+00  0.00000000000E+00  0.14147398546E+04  0.14147398546E+04  0.00000000000E+00 0.  1.
          2   -1    0    0  501    0  0.00000000000E+00 -0.00000000000E+00 -0.11935313522E+04  0.11935313522E+04  0.00000000000E+00 0. -1.
         24    2    1    2    0    0 -0.56930824207E+03  0.68663292976E+03  0.80872281221E+03  0.12065779435E+04  0.78873900285E+02 0.  0.
        254    2    1    2    0    0  0.56930824207E+03 -0.68663292976E+03 -0.58751430985E+03  0.14016932633E+04  0.90774130970E+03 0.  0.
         23    2    4    4    0    0  0.79108370912E+03 -0.37805647190E+03 -0.41126034114E+03  0.97250790466E+03  0.88861834577E+02 0.  0.
         23    2    4    4    0    0 -0.22177546704E+03 -0.30857645786E+03 -0.17625396871E+03  0.42918535863E+03  0.93438870116E+02 0.  0.
          4    1    3    3  502    0 -0.24343206329E+03  0.26140273162E+03  0.27986244042E+03  0.45377697506E+03  0.00000000000E+00 0. -1.
         -1    1    3    3    0  502 -0.32587617878E+03  0.42523019814E+03  0.52886037179E+03  0.75280096849E+03  0.00000000000E+00 0.  1.
         13    1    5    5    0    0  0.40370639570E+03 -0.18589058773E+03 -0.25694492774E+03  0.51337594453E+03  0.00000000000E+00 0.  1.
        -13    1    5    5    0    0  0.38737731342E+03 -0.19216588417E+03 -0.15431541339E+03  0.45913196012E+03  0.00000000000E+00 0. -1.
          2    1    6    6  503    0  0.47058900829E+01  0.25620901178E+01 -0.68870808537E+01  0.87259148477E+01  0.00000000000E+00 0. -1.
         -2    1    6    6    0  503 -0.22648135713E+03 -0.31113854798E+03 -0.16936688786E+03  0.42045944378E+03  0.00000000000E+00 0.  1.
<mgrwt>
<rscale>  0 0.25988739E+04</rscale>
<asrwt>0</asrwt>
<pdfrwt beam="1">  1        2 0.18362021E+00 0.25988739E+04</pdfrwt>
<pdfrwt beam="2">  1       -1 0.21765229E+00 0.25988739E+04</pdfrwt>
<totfact> 0.21986214E+00</totfact>
</mgrwt>
</event>
<event>
12    7  0.1637954E-007  0.1493506E+04  0.7818608E-02  0.8888783E-01
         -3   -1    0    0    0  501 -0.00000000000E+00  0.00000000000E+00  0.81908286568E+03  0.81908286568E+03  0.00000000000E+00 0.  1.
          4   -1    0    0  501    0  0.00000000000E+00 -0.00000000000E+00 -0.68081043129E+03  0.68081043129E+03  0.00000000000E+00 0. -1.
         24    2    1    2    0    0  0.19283092601E+02 -0.65251292144E+00 -0.42467349443E+03  0.43234350275E+03  0.78746835261E+02 0.  0.
        254    2    1    2    0    0 -0.19283092601E+02  0.65251292144E+00  0.56294592882E+03  0.10675497942E+04  0.90685289927E+03 0.  0.
         23    2    4    4    0    0  0.42739063513E+03 -0.63143526913E+02  0.33411472440E+03  0.55377957748E+03  0.91593184209E+02 0.  0.
         23    2    4    4    0    0 -0.44667372773E+03  0.63796039834E+02  0.22883120443E+03  0.51377021673E+03  0.89491685316E+02 0.  0.
          2    1    3    3  502    0  0.33221476254E+02  0.31568690703E+02 -0.22774395583E+03  0.23230918650E+03  0.00000000000E+00 0. -1.
         -1    1    3    3    0  502 -0.13938383653E+02 -0.32221203624E+02 -0.19692953860E+03  0.20003431625E+03  0.00000000000E+00 0.  1.
         13    1    5    5    0    0  0.20187158752E+01 -0.72972562981E+00 -0.54956992302E+01  0.59000358735E+01  0.00000000000E+00 0. -1.
        -13    1    5    5    0    0  0.42537191925E+03 -0.62413801283E+02  0.33961042363E+03  0.54787954161E+03  0.00000000000E+00 0.  1.
          3    1    6    6  503    0 -0.12095838757E+03  0.34982210908E+02  0.10559114431E+03  0.16432947502E+03  0.00000000000E+00 0. -1.
         -3    1    6    6    0  503 -0.32571534016E+03  0.28813828926E+02  0.12324006012E+03  0.34944074171E+03  0.00000000000E+00 0.  1.
<mgrwt>
<rscale>  0 0.14935062E+04</rscale>
<asrwt>0</asrwt>
<pdfrwt beam="1">  1        4 0.10474007E+00 0.14935062E+04</pdfrwt>
<pdfrwt beam="2">  1       -3 0.12601275E+00 0.14935062E+04</pdfrwt>
<totfact> 0.81900616E-01</totfact>
</mgrwt>
</event>
<event>
12    7  0.1637954E-007  0.1263886E+04  0.7818608E-02  0.9058704E-01
          2   -1    0    0  501    0  0.00000000000E+00  0.00000000000E+00  0.30510823169E+03  0.30510823169E+03  0.00000000000E+00 0. -1.
         -1   -1    0    0    0  501 -0.00000000000E+00 -0.00000000000E+00 -0.13088866343E+04  0.13088866343E+04  0.00000000000E+00 0.  1.
         24    2    1    2    0    0  0.11941749503E+03  0.28059453269E+03 -0.32266830713E+03  0.45143289248E+03  0.81749557140E+02 0.  0.
        254    2    1    2    0    0 -0.11941749503E+03 -0.28059453269E+03 -0.68111009545E+03  0.11625619735E+04  0.89142893726E+03 0.  0.
         23    2    4    4    0    0 -0.26588440254E+03  0.12858322943E+03 -0.64657897089E+03  0.71702601288E+03  0.93988164947E+02 0.  0.
         23    2    4    4    0    0  0.14646690751E+03 -0.40917776212E+03 -0.34531124568E+02  0.44553596061E+03  0.91819919524E+02 0.  0.
          2    1    3    3  502    0  0.20618647540E+02  0.10036949412E+03 -0.15685259282E+03  0.18735501021E+03  0.00000000000E+00 0. -1.
         -1    1    3    3    0  502  0.98798847486E+02  0.18022503856E+03 -0.16581571431E+03  0.26407788226E+03  0.00000000000E+00 0.  1.
         13    1    5    5    0    0 -0.24317327912E+03  0.11830199203E+03 -0.50096143370E+03  0.56928987612E+03  0.00000000000E+00 0. -1.
        -13    1    5    5    0    0 -0.22711123422E+02  0.10281237405E+02 -0.14561753719E+03  0.14773613676E+03  0.00000000000E+00 0.  1.
          2    1    6    6  503    0  0.11728119044E+03 -0.38399779256E+03 -0.13748875450E+02  0.40174396560E+03  0.00000000000E+00 0. -1.
         -2    1    6    6    0  503  0.29185717077E+02 -0.25179969561E+02 -0.20782249117E+02  0.43791995008E+02  0.00000000000E+00 0.  1.
<mgrwt>
<rscale>  0 0.12638862E+04</rscale>
<asrwt>0</asrwt>
<pdfrwt beam="1">  1        2 0.46939728E-01 0.12638862E+04</pdfrwt>
<pdfrwt beam="2">  1       -1 0.20136717E+00 0.12638862E+04</pdfrwt>
<totfact> 0.17863309E+01</totfact>
</mgrwt>
</event>
<event>
12    7  0.1637954E-007  0.2052885E+04  0.7818608E-02  0.8582287E-01
          2   -1    0    0  501    0  0.00000000000E+00  0.00000000000E+00  0.16726232943E+04  0.16726232943E+04  0.00000000000E+00 0. -1.
         -1   -1    0    0    0  501 -0.00000000000E+00 -0.00000000000E+00 -0.62989901742E+03  0.62989901742E+03  0.00000000000E+00 0.  1.
         24    2    1    2    0    0  0.52998033064E+02  0.87509997924E+02  0.13428262466E+04  0.13491172773E+04  0.80425791563E+02 0.  0.
        254    2    1    2    0    0 -0.52998033064E+02 -0.87509997924E+02 -0.30010196980E+03  0.95340503440E+03  0.89914024273E+03 0.  0.
         23    2    4    4    0    0  0.35709985777E+03  0.84604343148E+01 -0.36347359310E+03  0.51777500469E+03  0.91575188990E+02 0.  0.
         23    2    4    4    0    0 -0.41009789083E+03 -0.95970432239E+02  0.63371623305E+02  0.43563002971E+03  0.91471067640E+02 0.  0.
          2    1    3    3  502    0  0.69280434961E+02  0.41503178780E+02  0.77437612746E+03  0.77857605878E+03  0.00000000000E+00 0. -1.
         -1    1    3    3    0  502 -0.16282401897E+02  0.46006819144E+02  0.56845011918E+03  0.57054121851E+03  0.00000000000E+00 0.  1.
         13    1    5    5    0    0  0.41346921567E+02 -0.29380050561E+02 -0.48288944045E+02  0.70032688161E+02  0.00000000000E+00 0. -1.
        -13    1    5    5    0    0  0.31575293620E+03  0.37840484876E+02 -0.31518464906E+03  0.44774231653E+03  0.00000000000E+00 0.  1.
          3    1    6    6  503    0 -0.35339125944E+02 -0.30009942582E+02  0.26317251727E+02  0.53310863947E+02  0.00000000000E+00 0. -1.
         -3    1    6    6    0  503 -0.37475876489E+03 -0.65960489656E+02  0.37054371578E+02  0.38231916576E+03  0.00000000000E+00 0.  1.
<mgrwt>
<rscale>  0 0.20528846E+04</rscale>
<asrwt>0</asrwt>
<pdfrwt beam="1">  1        2 0.25732666E+00 0.20528846E+04</pdfrwt>
<pdfrwt beam="2">  1       -1 0.96907542E-01 0.20528846E+04</pdfrwt>
<totfact> 0.10956471E+01</totfact>
</mgrwt>
</event>
<event>
12    7  0.1637954E-007  0.2390907E+04  0.7818608E-02  0.8442916E-01
         -1   -1    0    0    0  501 -0.00000000000E+00  0.00000000000E+00  0.52093790195E+03  0.52093790195E+03  0.00000000000E+00 0.  1.
          2   -1    0    0  501    0  0.00000000000E+00 -0.00000000000E+00 -0.27433389532E+04  0.27433389532E+04  0.00000000000E+00 0. -1.
         24    2    1    2    0    0  0.82964721241E+03  0.57712152771E+03 -0.73309005527E+03  0.12511503649E+04  0.81070658305E+02 0.  0.
        254    2    1    2    0    0 -0.82964721241E+03 -0.57712152771E+03 -0.14893109960E+04  0.20131264903E+04  0.90180223341E+03 0.  0.
         23    2    4    4    0    0 -0.41951040039E+03 -0.32049358798E+03 -0.10784370711E+03  0.54655390521E+03  0.91573960091E+02 0.  0.
         23    2    4    4    0    0 -0.41013681202E+03 -0.25662793974E+03 -0.13814672889E+04  0.14665725851E+04  0.91176602894E+02 0.  0.
          2    1    3    3  502    0  0.13894742292E+03  0.65560359490E+02 -0.12859746642E+03  0.20035432474E+03  0.00000000000E+00 0. -1.
         -1    1    3    3    0  502  0.69069978949E+03  0.51156116822E+03 -0.60449258885E+03  0.10507960402E+04  0.00000000000E+00 0.  1.
         13    1    5    5    0    0 -0.29214210456E+03 -0.16882147112E+03 -0.58579322065E+02  0.34246056027E+03  0.00000000000E+00 0. -1.
        -13    1    5    5    0    0 -0.12736829583E+03 -0.15167211685E+03 -0.49264385040E+02  0.20409334494E+03  0.00000000000E+00 0.  1.
          1    1    6    6  503    0 -0.11640919720E+02 -0.20550824908E+02 -0.31595165524E+02  0.39447457470E+02  0.00000000000E+00 0. -1.
         -1    1    6    6    0  503 -0.39849589230E+03 -0.23607711483E+03 -0.13498721234E+04  0.14271251276E+04  0.00000000000E+00 0.  1.
<mgrwt>
<rscale>  0 0.23909071E+04</rscale>
<asrwt>0</asrwt>
<pdfrwt beam="1">  1        2 0.42205214E+00 0.23909071E+04</pdfrwt>
<pdfrwt beam="2">  1       -1 0.80144294E-01 0.23909071E+04</pdfrwt>
<totfact> 0.39796123E+00</totfact>
</mgrwt>
</event>
<event>
12    7  0.1637954E-007  0.2499043E+04  0.7818608E-02  0.8403326E-01
          2   -1    0    0  501    0  0.00000000000E+00  0.00000000000E+00  0.17542438140E+04  0.17542438140E+04  0.00000000000E+00 0. -1.
         -1   -1    0    0    0  501 -0.00000000000E+00 -0.00000000000E+00 -0.89001563068E+03  0.89001563068E+03  0.00000000000E+00 0.  1.
         24    2    1    2    0    0 -0.32077105585E+03 -0.14252092058E+02 -0.72141471954E+03  0.79340652790E+03  0.77185028002E+02 0.  0.
        254    2    1    2    0    0  0.32077105585E+03  0.14252092058E+02  0.15856429029E+04  0.18508529168E+04  0.89905278588E+03 0.  0.
         23    2    4    4    0    0 -0.26890681920E+02  0.40926744335E+03  0.72330242518E+03  0.83659241103E+03  0.92181966625E+02 0.  0.
         23    2    4    4    0    0  0.34766173777E+03 -0.39501535129E+03  0.86234047773E+03  0.10142605058E+04  0.90484597694E+02 0.  0.
          2    1    3    3  502    0 -0.11560590281E+02 -0.21435710510E+01 -0.45561613739E+01  0.12609549990E+02  0.00000000000E+00 0. -1.
         -1    1    3    3    0  502 -0.30921046557E+03 -0.12108521007E+02 -0.71685855817E+03  0.78079697791E+03  0.00000000000E+00 0.  1.
         13    1    5    5    0    0  0.10233961028E+02  0.35096337321E+03  0.61240853926E+03  0.70592084701E+03  0.00000000000E+00 0.  1.
        -13    1    5    5    0    0 -0.37124642948E+02  0.58304070143E+02  0.11089388592E+03  0.13067156402E+03  0.00000000000E+00 0. -1.
          2    1    6    6  503    0  0.15266816530E+01 -0.14124541474E+02  0.55144797638E+02  0.56945431206E+02  0.00000000000E+00 0. -1.
         -2    1    6    6    0  503  0.34613505612E+03 -0.38089080982E+03  0.80719568009E+03  0.95731507459E+03  0.00000000000E+00 0.  1.
<mgrwt>
<rscale>  0 0.24990433E+04</rscale>
<asrwt>0</asrwt>
<pdfrwt beam="1">  1        2 0.26988366E+00 0.24990433E+04</pdfrwt>
<pdfrwt beam="2">  1       -1 0.13692548E+00 0.24990433E+04</pdfrwt>
<totfact> 0.41259039E+00</totfact>
</mgrwt>
</event>
<event>
12    7  0.1637954E-007  0.1744605E+04  0.7818608E-02  0.8736326E-01
          2   -1    0    0  501    0  0.00000000000E+00  0.00000000000E+00  0.14331232490E+04  0.14331232490E+04  0.00000000000E+00 0. -1.
         -1   -1    0    0    0  501 -0.00000000000E+00 -0.00000000000E+00 -0.53094641371E+03  0.53094641371E+03  0.00000000000E+00 0.  1.
         24    2    1    2    0    0 -0.40724168223E+02  0.39915263906E+03 -0.22235203147E+03  0.46566579419E+03  0.80143114687E+02 0.  0.
        254    2    1    2    0    0  0.40724168223E+02 -0.39915263906E+03  0.11245288668E+04  0.14984038685E+04  0.90535500984E+03 0.  0.
         23    2    4    4    0    0  0.15167136769E+03  0.26034283059E+03  0.33354338615E+03  0.45845937420E+03  0.90284074570E+02 0.  0.
         23    2    4    4    0    0 -0.11094719947E+03 -0.65949546966E+03  0.79098548061E+03  0.10399444943E+04  0.92644293725E+02 0.  0.
          2    1    3    3  502    0  0.17718673639E+02  0.20411624108E+03 -0.98280522620E+02  0.22723655603E+03  0.00000000000E+00 0. -1.
         -1    1    3    3    0  502 -0.58442841862E+02  0.19503639798E+03 -0.12407150885E+03  0.23842923816E+03  0.00000000000E+00 0.  1.
         13    1    5    5    0    0  0.82359923905E+02  0.11288558344E+03  0.92736496142E+02  0.16770918201E+03  0.00000000000E+00 0. -1.
        -13    1    5    5    0    0  0.69311443789E+02  0.14745724716E+03  0.24080689001E+03  0.29075019219E+03  0.00000000000E+00 0.  1.
          1    1    6    6  503    0 -0.19309360904E+02 -0.35680718217E+02  0.79718120922E+02  0.89447995362E+02  0.00000000000E+00 0. -1.
         -1    1    6    6    0  503 -0.91637838568E+02 -0.62381475144E+03  0.71126735969E+03  0.95049649896E+03  0.00000000000E+00 0.  1.
<mgrwt>
<rscale>  0 0.17446050E+04</rscale>
<asrwt>0</asrwt>
<pdfrwt beam="1">  1        2 0.22048050E+00 0.17446050E+04</pdfrwt>
<pdfrwt beam="2">  1       -1 0.81684064E-01 0.17446050E+04</pdfrwt>
<totfact> 0.22334725E+01</totfact>
</mgrwt>
</event>
<event>
12    7  0.1637954E-007  0.2525216E+04  0.7818608E-02  0.8394057E-01
          2   -1    0    0  501    0  0.00000000000E+00  0.00000000000E+00  0.39786952117E+04  0.39786952117E+04  0.00000000000E+00 0. -1.
         -1   -1    0    0    0  501 -0.00000000000E+00 -0.00000000000E+00 -0.40067875527E+03  0.40067875527E+03  0.00000000000E+00 0.  1.
         24    2    1    2    0    0  0.85875973240E+03 -0.60073618063E+03  0.21161537284E+04  0.23627396043E+04  0.77971780271E+02 0.  0.
        254    2    1    2    0    0 -0.85875973240E+03  0.60073618063E+03  0.14618627280E+04  0.20166343627E+04  0.91182195665E+03 0.  0.
         23    2    4    4    0    0 -0.57495466284E+03  0.57050426297E+01  0.11341477670E+04  0.12748862496E+04  0.91860655619E+02 0.  0.
         23    2    4    4    0    0 -0.28380506956E+03  0.59503113800E+03  0.32771496102E+03  0.74174811318E+03  0.90475383529E+02 0.  0.
          4    1    3    3  502    0  0.82237175135E+03 -0.59169985400E+03  0.20293835861E+04  0.22682155440E+04  0.00000000000E+00 0. -1.
         -3    1    3    3    0  502  0.36387981046E+02 -0.90363266291E+01  0.86770142387E+02  0.94524060288E+02  0.00000000000E+00 0.  1.
         13    1    5    5    0    0 -0.21415753039E+03  0.44049486905E+02  0.39438263658E+03  0.45093399645E+03  0.00000000000E+00 0.  1.
        -13    1    5    5    0    0 -0.36079713246E+03 -0.38344444275E+02  0.73976513044E+03  0.82395225311E+03  0.00000000000E+00 0. -1.
          4    1    6    6  503    0 -0.11345681923E+03  0.23224486676E+03  0.17832341148E+03  0.31402128438E+03  0.00000000000E+00 0. -1.
         -4    1    6    6    0  503 -0.17034825033E+03  0.36278627125E+03  0.14939154954E+03  0.42772682879E+03  0.00000000000E+00 0.  1.
<mgrwt>
<rscale>  0 0.25252157E+04</rscale>
<asrwt>0</asrwt>
<pdfrwt beam="1">  1        2 0.61210693E+00 0.25252157E+04</pdfrwt>
<pdfrwt beam="2">  1       -1 0.61642888E-01 0.25252157E+04</pdfrwt>
<totfact> 0.96461528E-01</totfact>
</mgrwt>
</event>
<event>
12    7  0.1637954E-007  0.1230075E+04  0.7818608E-02  0.9086931E-01
          2   -1    0    0  501    0  0.00000000000E+00  0.00000000000E+00  0.12106308148E+04  0.12106308148E+04  0.00000000000E+00 0. -1.
         -1   -1    0    0    0  501 -0.00000000000E+00 -0.00000000000E+00 -0.31245804269E+03  0.31245804269E+03  0.00000000000E+00 0.  1.
         24    2    1    2    0    0 -0.12969671323E+03  0.21628160554E+03  0.61544580143E+02  0.27088685518E+03  0.77414356859E+02 0.  0.
        254    2    1    2    0    0  0.12969671323E+03 -0.21628160554E+03  0.83662819197E+03  0.12522020023E+04  0.89691925651E+03 0.  0.
         23    2    4    4    0    0 -0.23438059992E+03 -0.67061449937E+02  0.80668120857E+03  0.84710198558E+03  0.86114447261E+02 0.  0.
         23    2    4    4    0    0  0.36407731315E+03 -0.14922015560E+03  0.29946983402E+02  0.40510001674E+03  0.91598345850E+02 0.  0.
          4    1    3    3  502    0 -0.19568275515E+02  0.35667184528E+02 -0.18521402191E+02  0.44700199082E+02  0.00000000000E+00 0. -1.
         -3    1    3    3    0  502 -0.11012843772E+03  0.18061442101E+03  0.80065982334E+02  0.22618665610E+03  0.00000000000E+00 0.  1.
         13    1    5    5    0    0 -0.79314719744E+02 -0.45577750475E+02  0.19020275173E+03  0.21105743974E+03  0.00000000000E+00 0.  1.
        -13    1    5    5    0    0 -0.15506588017E+03 -0.21483699462E+02  0.61647845684E+03  0.63604454583E+03  0.00000000000E+00 0. -1.
          3    1    6    6  503    0  0.17104553868E+02 -0.28843057407E+02  0.17034418337E+02  0.37611954638E+02  0.00000000000E+00 0. -1.
         -3    1    6    6    0  503  0.34697275928E+03 -0.12037709819E+03  0.12912565066E+02  0.36748806211E+03  0.00000000000E+00 0.  1.
<mgrwt>
<rscale>  0 0.12300753E+04</rscale>
<asrwt>0</asrwt>
<pdfrwt beam="1">  1        2 0.18625089E+00 0.12300753E+04</pdfrwt>
<pdfrwt beam="2">  1       -1 0.48070469E-01 0.12300753E+04</pdfrwt>
<totfact> 0.90613058E+01</totfact>
</mgrwt>
</event>
<event>
12    7  0.1637954E-007  0.1047541E+04  0.7818608E-02  0.9257887E-01
          2   -1    0    0  501    0  0.00000000000E+00  0.00000000000E+00  0.72923640316E+03  0.72923640316E+03  0.00000000000E+00 0. -1.
         -1   -1    0    0    0  501 -0.00000000000E+00 -0.00000000000E+00 -0.37619541533E+03  0.37619541533E+03  0.00000000000E+00 0.  1.
         24    2    1    2    0    0  0.44324430566E+01  0.13707569515E+02  0.16355635406E+03  0.18407135270E+03  0.83210804099E+02 0.  0.
        254    2    1    2    0    0 -0.44324430566E+01 -0.13707569515E+02  0.18948463377E+03  0.92136046579E+03  0.90155040762E+03 0.  0.
         23    2    4    4    0    0 -0.12121237221E+03  0.15532816078E+03 -0.30721146751E+03  0.37529188834E+03  0.87440488178E+02 0.  0.
         23    2    4    4    0    0  0.11677992916E+03 -0.16903573029E+03  0.49669610128E+03  0.54606857745E+03  0.96297685780E+02 0.  0.
          4    1    3    3  502    0  0.27745195715E+02  0.26086406969E+02  0.14928278371E+03  0.15406377260E+03  0.00000000000E+00 0. -1.
         -3    1    3    3    0  502 -0.23312752659E+02 -0.12378837454E+02  0.14273570344E+02  0.30007580103E+02  0.00000000000E+00 0.  1.
         13    1    5    5    0    0 -0.11109092841E+03  0.15892394673E+03 -0.24643378268E+03  0.31357235922E+03  0.00000000000E+00 0.  1.
        -13    1    5    5    0    0 -0.10121443806E+02 -0.35957859534E+01 -0.60777684830E+02  0.61719529119E+02  0.00000000000E+00 0. -1.
          2    1    6    6  503    0  0.19924792350E+02 -0.80837828130E+02  0.28688335006E+03  0.29872028446E+03  0.00000000000E+00 0. -1.
         -2    1    6    6    0  503  0.96855136807E+02 -0.88197902164E+02  0.20981275121E+03  0.24734829299E+03  0.00000000000E+00 0.  1.
<mgrwt>
<rscale>  0 0.10475407E+04</rscale>
<asrwt>0</asrwt>
<pdfrwt beam="1">  1        2 0.11219022E+00 0.10475407E+04</pdfrwt>
<pdfrwt beam="2">  1       -1 0.57876218E-01 0.10475407E+04</pdfrwt>
<totfact> 0.13372599E+02</totfact>
</mgrwt>
</event>
<event>
12    7  0.1637954E-007  0.1761136E+04  0.7818608E-02  0.8727244E-01
         -1   -1    0    0    0  501 -0.00000000000E+00  0.00000000000E+00  0.14931792665E+04  0.14931792665E+04  0.00000000000E+00 0.  1.
          2   -1    0    0  501    0  0.00000000000E+00 -0.00000000000E+00 -0.51929447425E+03  0.51929447425E+03  0.00000000000E+00 0. -1.
         24    2    1    2    0    0  0.23081253288E+03 -0.30660173547E+03  0.96236550906E+03  0.10391324157E+04  0.79810743803E+02 0.  0.
        254    2    1    2    0    0 -0.23081253288E+03  0.30660173547E+03  0.11519283233E+02  0.97334132508E+03  0.89441690039E+03 0.  0.
         23    2    4    4    0    0 -0.40622133075E+01 -0.29815513198E+02  0.39558613203E+03  0.40730538815E+03  0.92216185961E+02 0.  0.
         23    2    4    4    0    0 -0.22675031957E+03  0.33641724867E+03 -0.38406684880E+03  0.56603593694E+03  0.91088226082E+02 0.  0.
          2    1    3    3  502    0  0.33384404577E+01 -0.31307678928E+02  0.46995044110E+02  0.56567217675E+02  0.00000000000E+00 0. -1.
         -1    1    3    3    0  502  0.22747409242E+03 -0.27529405654E+03  0.91537046495E+03  0.98256519803E+03  0.00000000000E+00 0.  1.
         13    1    5    5    0    0 -0.35154632296E+00 -0.55869124675E+02  0.35188042259E+03  0.35628824634E+03  0.00000000000E+00 0. -1.
        -13    1    5    5    0    0 -0.37106669845E+01  0.26053611477E+02  0.43705709443E+02  0.51017141809E+02  0.00000000000E+00 0.  1.
          1    1    6    6  503    0 -0.12350172559E+03  0.21812556001E+03 -0.18019621455E+03  0.30871040134E+03  0.00000000000E+00 0.  1.
         -1    1    6    6    0  503 -0.10324859398E+03  0.11829168866E+03 -0.20387063425E+03  0.25732553560E+03  0.00000000000E+00 0. -1.
<mgrwt>
<rscale>  0 0.17611357E+04</rscale>
<asrwt>0</asrwt>
<pdfrwt beam="1">  1        2 0.79891458E-01 0.17611357E+04</pdfrwt>
<pdfrwt beam="2">  1       -1 0.22971988E+00 0.17611357E+04</pdfrwt>
<totfact> 0.60431623E+00</totfact>
</mgrwt>
</event>
<event>
12    7  0.1637954E-007  0.3140011E+04  0.7818608E-02  0.8204842E-01
         -1   -1    0    0    0  501 -0.00000000000E+00  0.00000000000E+00  0.14340015925E+04  0.14340015925E+04  0.00000000000E+00 0.  1.
          2   -1    0    0  501    0  0.00000000000E+00 -0.00000000000E+00 -0.17189085339E+04  0.17189085339E+04  0.00000000000E+00 0. -1.
         24    2    1    2    0    0  0.32408224801E+03 -0.76957084262E+03 -0.13117900299E+04  0.15571500118E+04  0.81575066547E+02 0.  0.
        254    2    1    2    0    0 -0.32408224801E+03  0.76957084262E+03  0.10268830884E+04  0.15957601146E+04  0.89145548450E+03 0.  0.
         23    2    4    4    0    0 -0.23356151449E+03  0.50850946604E+03  0.11479695192E+04  0.12801681880E+04  0.88677586211E+02 0.  0.
         23    2    4    4    0    0 -0.90520733526E+02  0.26106137658E+03 -0.12108643081E+03  0.31559192665E+03  0.92678448968E+02 0.  0.
          2    1    3    3  502    0  0.26739238657E+03 -0.54389256431E+03 -0.96452153527E+03  0.11391310732E+04  0.00000000000E+00 0. -1.
         -3    1    3    3    0  502  0.56689861440E+02 -0.22567827831E+03 -0.34726849461E+03  0.41801893862E+03  0.00000000000E+00 0.  1.
         13    1    5    5    0    0 -0.53240682036E+02  0.60292127527E+02  0.12189387585E+03  0.14604050067E+03  0.00000000000E+00 0. -1.
        -13    1    5    5    0    0 -0.18032083245E+03  0.44821733851E+03  0.10260756434E+04  0.11341276873E+04  0.00000000000E+00 0.  1.
          1    1    6    6  503    0 -0.76922852518E+01  0.15936729246E+03 -0.77522657679E+02  0.17738902901E+03  0.00000000000E+00 0. -1.
         -1    1    6    6    0  503 -0.82828448274E+02  0.10169408412E+03 -0.43563773131E+02  0.13820289764E+03  0.00000000000E+00 0.  1.
<mgrwt>
<rscale>  0 0.31400112E+04</rscale>
<asrwt>0</asrwt>
<pdfrwt beam="1">  1        2 0.26444747E+00 0.31400112E+04</pdfrwt>
<pdfrwt beam="2">  1       -1 0.22061563E+00 0.31400112E+04</pdfrwt>
<totfact> 0.10049788E+00</totfact>
</mgrwt>
</event>
<event>
12    7  0.1637954E-007  0.1650772E+04  0.7818608E-02  0.8789950E-01
          2   -1    0    0  501    0  0.00000000000E+00  0.00000000000E+00  0.10715565956E+04  0.10715565956E+04  0.00000000000E+00 0. -1.
         -1   -1    0    0    0  501 -0.00000000000E+00 -0.00000000000E+00 -0.63576884475E+03  0.63576884475E+03  0.00000000000E+00 0.  1.
         24    2    1    2    0    0  0.79241893536E+02 -0.31089471663E+03  0.64706431106E+03  0.72703471598E+03  0.83381371297E+02 0.  0.
        254    2    1    2    0    0 -0.79241893536E+02  0.31089471663E+03 -0.21127656024E+03  0.98029072432E+03  0.90188542330E+03 0.  0.
         23    2    4    4    0    0  0.39612656683E+03  0.69623406897E+02 -0.13303046188E+03  0.43337514020E+03  0.91396020799E+02 0.  0.
         23    2    4    4    0    0 -0.47536846037E+03  0.24127130974E+03 -0.78246098358E+02  0.54691558412E+03  0.93846610122E+02 0.  0.
          2    1    3    3  502    0  0.70242605681E+02 -0.31386677946E+03  0.63372599446E+03  0.71067222751E+03  0.00000000000E+00 0. -1.
         -1    1    3    3    0  502  0.89992878558E+01  0.29720628270E+01  0.13338316602E+02  0.16362488476E+02  0.00000000000E+00 0.  1.
         13    1    5    5    0    0  0.98736255704E+02 -0.15928157459E+02 -0.10554115866E+02  0.10056810504E+03  0.00000000000E+00 0.  1.
        -13    1    5    5    0    0  0.29739031113E+03  0.85551564356E+02 -0.12247634602E+03  0.33280703516E+03  0.00000000000E+00 0. -1.
          1    1    6    6  503    0 -0.16079977327E+03  0.42589789969E+02  0.17514512272E+01  0.16635361395E+03  0.00000000000E+00 0. -1.
         -1    1    6    6    0  503 -0.31456868710E+03  0.19868151977E+03 -0.79997549585E+02  0.38056197017E+03  0.00000000000E+00 0.  1.
<mgrwt>
<rscale>  0 0.16507723E+04</rscale>
<asrwt>0</asrwt>
<pdfrwt beam="1">  1        2 0.16485486E+00 0.16507723E+04</pdfrwt>
<pdfrwt beam="2">  1       -1 0.97810591E-01 0.16507723E+04</pdfrwt>
<totfact> 0.24789001E+01</totfact>
</mgrwt>
</event>
<event>
12    7  0.1637954E-007  0.1271358E+04  0.7818608E-02  0.9052592E-01
         -1   -1    0    0    0  501 -0.00000000000E+00  0.00000000000E+00  0.46658678410E+03  0.46658678410E+03  0.00000000000E+00 0.  1.
          2   -1    0    0  501    0  0.00000000000E+00 -0.00000000000E+00 -0.86605020999E+03  0.86605020999E+03  0.00000000000E+00 0. -1.
         24    2    1    2    0    0  0.76346854597E+01 -0.83443542192E+02 -0.40603100740E+03  0.42228024467E+03  0.80239098389E+02 0.  0.
        254    2    1    2    0    0 -0.76346854597E+01  0.83443542192E+02  0.65675815074E+01  0.91035674942E+03  0.90646851292E+03 0.  0.
         23    2    4    4    0    0 -0.12537903581E+02  0.93156470519E+02  0.44409730148E+03  0.46293075990E+03  0.90813810919E+02 0.  0.
         23    2    4    4    0    0  0.49032181214E+01 -0.97129283272E+01 -0.43752971997E+03  0.44742598952E+03  0.92948252907E+02 0.  0.
          4    1    3    3  502    0  0.31426590491E+02 -0.86488673482E+02 -0.32400445547E+03  0.33681865803E+03  0.00000000000E+00 0. -1.
         -3    1    3    3    0  502 -0.23791905031E+02  0.30451312897E+01 -0.82026551932E+02  0.85461586643E+02  0.00000000000E+00 0.  1.
         13    1    5    5    0    0 -0.31786847741E+02  0.46373364173E+02  0.96593452574E+02  0.11176398201E+03  0.00000000000E+00 0.  1.
        -13    1    5    5    0    0  0.19248944160E+02  0.46783106346E+02  0.34750384890E+03  0.35116677789E+03  0.00000000000E+00 0. -1.
          1    1    6    6  503    0 -0.18682009731E+02  0.10783264110E+02 -0.22311957276E+02  0.31034170038E+02  0.00000000000E+00 0. -1.
         -1    1    6    6    0  503  0.23585227852E+02 -0.20496192438E+02 -0.41521776269E+03  0.41639181948E+03  0.00000000000E+00 0.  1.
<mgrwt>
<rscale>  0 0.12713577E+04</rscale>
<asrwt>0</asrwt>
<pdfrwt beam="1">  1        2 0.13323849E+00 0.12713577E+04</pdfrwt>
<pdfrwt beam="2">  1       -1 0.71782584E-01 0.12713577E+04</pdfrwt>
<totfact> 0.67941336E+01</totfact>
</mgrwt>
</event>
<event>
12    7  0.1637954E-007  0.1717009E+04  0.7818608E-02  0.8751722E-01
         -1   -1    0    0    0  501 -0.00000000000E+00  0.00000000000E+00  0.28157904746E+03  0.28157904746E+03  0.00000000000E+00 0.  1.
          2   -1    0    0  501    0  0.00000000000E+00 -0.00000000000E+00 -0.26174889995E+04  0.26174889995E+04  0.00000000000E+00 0. -1.
         24    2    1    2    0    0  0.22245528387E+03  0.47839887887E+03 -0.32245727102E+03  0.62333869809E+03  0.78870782120E+02 0.  0.
        254    2    1    2    0    0 -0.22245528387E+03 -0.47839887887E+03 -0.20134526810E+04  0.22757293489E+04  0.92010897723E+03 0.  0.
         23    2    4    4    0    0 -0.24122368262E+03 -0.10966140680E+03 -0.61233117890E+02  0.28683648043E+03  0.91165687493E+02 0.  0.
         23    2    4    4    0    0  0.18768398754E+02 -0.36873747207E+03 -0.19522195631E+04  0.19888928684E+04  0.90631359858E+02 0.  0.
          4    1    3    3  502    0  0.11557107307E+02  0.18430424042E+02  0.26080069760E+01  0.21910019627E+02  0.00000000000E+00 0. -1.
         -3    1    3    3    0  502  0.21089817656E+03  0.45996845483E+03 -0.32506527799E+03  0.60142867846E+03  0.00000000000E+00 0.  1.
         13    1    5    5    0    0 -0.21372018899E+01 -0.41519524441E+01 -0.22102927601E+02  0.22590833308E+02  0.00000000000E+00 0. -1.
        -13    1    5    5    0    0 -0.23908648073E+03 -0.10550945436E+03 -0.39130190289E+02  0.26424564712E+03  0.00000000000E+00 0.  1.
          1    1    6    6  503    0  0.27614885789E+02 -0.18899832610E+03 -0.78627074008E+03  0.80913819950E+03  0.00000000000E+00 0. -1.
         -1    1    6    6    0  503 -0.88464870344E+01 -0.17973914597E+03 -0.11659488230E+04  0.11797546689E+04  0.00000000000E+00 0.  1.
<mgrwt>
<rscale>  0 0.17170091E+04</rscale>
<asrwt>0</asrwt>
<pdfrwt beam="1">  1        2 0.40269061E+00 0.17170091E+04</pdfrwt>
<pdfrwt beam="2">  1       -1 0.43319855E-01 0.17170091E+04</pdfrwt>
<totfact> 0.16943036E+01</totfact>
</mgrwt>
</event>
<event>
12    7  0.1637954E-007  0.2041794E+04  0.7818608E-02  0.8587326E-01
         -1   -1    0    0    0  501 -0.00000000000E+00  0.00000000000E+00  0.96865643277E+03  0.96865643277E+03  0.00000000000E+00 0.  1.
          2   -1    0    0  501    0  0.00000000000E+00 -0.00000000000E+00 -0.10759552222E+04  0.10759552222E+04  0.00000000000E+00 0. -1.
         24    2    1    2    0    0  0.59934110689E+03  0.29125538555E+03 -0.53686613416E+03  0.85948001093E+03  0.80256969452E+02 0.  0.
        254    2    1    2    0    0 -0.59934110689E+03 -0.29125538555E+03  0.42956734476E+03  0.11851316440E+04  0.88089128043E+03 0.  0.
         23    2    4    4    0    0 -0.69017903687E+03 -0.22010486701E+03  0.61066431784E+03  0.95190425442E+03  0.91747180304E+02 0.  0.
         23    2    4    4    0    0  0.90837929973E+02 -0.71150518546E+02 -0.18109697307E+03  0.23322738960E+03  0.91021842387E+02 0.  0.
          4    1    3    3  502    0  0.51465192013E+03  0.27743909607E+03 -0.45461669125E+03  0.74061824639E+03  0.00000000000E+00 0. -1.
         -3    1    3    3    0  502  0.84689186765E+02  0.13816289488E+02 -0.82249442916E+02  0.11886176454E+03  0.00000000000E+00 0.  1.
         13    1    5    5    0    0 -0.29767520664E+03 -0.12211433274E+03  0.31978402255E+03  0.45363450044E+03  0.00000000000E+00 0.  1.
        -13    1    5    5    0    0 -0.39250383022E+03 -0.97990534272E+02  0.29088029528E+03  0.49826975398E+03  0.00000000000E+00 0. -1.
          2    1    6    6  503    0  0.74929947586E+02 -0.48586432538E+02 -0.56652949490E+02  0.10575771914E+03  0.00000000000E+00 0. -1.
         -2    1    6    6    0  503  0.15907982387E+02 -0.22564086008E+02 -0.12444402358E+03  0.12746967046E+03  0.00000000000E+00 0.  1.
<mgrwt>
<rscale>  0 0.20417943E+04</rscale>
<asrwt>0</asrwt>
<pdfrwt beam="1">  1        2 0.16553157E+00 0.20417943E+04</pdfrwt>
<pdfrwt beam="2">  1       -1 0.14902407E+00 0.20417943E+04</pdfrwt>
<totfact> 0.84553412E+00</totfact>
</mgrwt>
</event>
<event>
12    7  0.1637954E-007  0.2474066E+04  0.7818608E-02  0.8412283E-01
         -1   -1    0    0    0  501 -0.00000000000E+00  0.00000000000E+00  0.11396097282E+04  0.11396097282E+04  0.00000000000E+00 0.  1.
          2   -1    0    0  501    0  0.00000000000E+00 -0.00000000000E+00 -0.13427848898E+04  0.13427848898E+04  0.00000000000E+00 0. -1.
         24    2    1    2    0    0  0.27327125362E+03  0.61354872261E+03  0.75220466687E+03  0.10115938612E+04  0.79944143840E+02 0.  0.
        254    2    1    2    0    0 -0.27327125362E+03 -0.61354872261E+03 -0.95537982851E+03  0.14708007568E+04  0.89408334983E+03 0.  0.
         23    2    4    4    0    0 -0.29202264806E+03 -0.14388555346E+03 -0.93218445318E+03  0.99149777346E+03  0.90109381050E+02 0.  0.
         23    2    4    4    0    0  0.18751394440E+02 -0.46966316915E+03 -0.23195375330E+02  0.47930298335E+03  0.90874733341E+02 0.  0.
          2    1    3    3  502    0  0.22921897735E+03  0.56196809884E+03  0.65383256910E+03  0.89210229913E+03  0.00000000000E+00 0. -1.
         -1    1    3    3    0  502  0.44052276261E+02  0.51580623768E+02  0.98372097767E+02  0.11949156209E+03  0.00000000000E+00 0.  1.
         13    1    5    5    0    0 -0.11875053414E+02 -0.34269118378E+02 -0.82107363028E+02  0.89760840189E+02  0.00000000000E+00 0.  1.
        -13    1    5    5    0    0 -0.28014759464E+03 -0.10961643508E+03 -0.85007709016E+03  0.90173693327E+03  0.00000000000E+00 0. -1.
          3    1    6    6  503    0  0.51583548435E+02 -0.25390225764E+03 -0.30880864697E+02  0.26092306665E+03  0.00000000000E+00 0. -1.
         -3    1    6    6    0  503 -0.32832153995E+02 -0.21576091151E+03  0.76854893674E+01  0.21837991670E+03  0.00000000000E+00 0.  1.
<mgrwt>
<rscale>  0 0.24740661E+04</rscale>
<asrwt>0</asrwt>
<pdfrwt beam="1">  1        2 0.20658229E+00 0.24740661E+04</pdfrwt>
<pdfrwt beam="2">  1       -1 0.17532458E+00 0.24740661E+04</pdfrwt>
<totfact> 0.35765740E+00</totfact>
</mgrwt>
</event>
<event>
12    7  0.1637954E-007  0.3137549E+04  0.7818608E-02  0.8205508E-01
          2   -1    0    0  501    0  0.00000000000E+00  0.00000000000E+00  0.19159434603E+04  0.19159434603E+04  0.00000000000E+00 0. -1.
         -1   -1    0    0    0  501 -0.00000000000E+00 -0.00000000000E+00 -0.12845127644E+04  0.12845127644E+04  0.00000000000E+00 0.  1.
         24    2    1    2    0    0 -0.12681366471E+04 -0.20322654553E+03 -0.29124458199E+03  0.13192735422E+04  0.78661860040E+02 0.  0.
        254    2    1    2    0    0  0.12681366471E+04  0.20322654553E+03  0.92267527785E+03  0.18811826824E+04  0.10188459313E+04 0.  0.
         23    2    4    4    0    0  0.13388477118E+04 -0.46996040796E+02  0.86812651663E+03  0.15990895887E+04  0.93391864824E+02 0.  0.
         23    2    4    4    0    0 -0.70711064749E+02  0.25022258632E+03  0.54548761220E+02  0.28209309374E+03  0.94813231148E+02 0.  0.
          4    1    3    3  502    0 -0.63143712951E+03 -0.81745398708E+02 -0.17951697370E+03  0.66152966871E+03  0.00000000000E+00 0. -1.
         -3    1    3    3    0  502 -0.63669951757E+03 -0.12148114682E+03 -0.11172760828E+03  0.65774387353E+03  0.00000000000E+00 0.  1.
         13    1    5    5    0    0  0.54728628126E+03  0.26608335402E+02  0.35789505394E+03  0.65446095896E+03  0.00000000000E+00 0. -1.
        -13    1    5    5    0    0  0.79156143057E+03 -0.73604376198E+02  0.51023146269E+03  0.94462862972E+03  0.00000000000E+00 0.  1.
          3    1    6    6  503    0 -0.59053672923E+02  0.24033504224E+03  0.73101382939E+02  0.25805441481E+03  0.00000000000E+00 0. -1.
         -3    1    6    6    0  503 -0.11657391826E+02  0.98875440845E+01 -0.18552621719E+02  0.24038678933E+02  0.00000000000E+00 0.  1.
<mgrwt>
<rscale>  0 0.31375493E+04</rscale>
<asrwt>0</asrwt>
<pdfrwt beam="1">  1        2 0.29476053E+00 0.31375493E+04</pdfrwt>
<pdfrwt beam="2">  1       -1 0.19761735E+00 0.31375493E+04</pdfrwt>
<totfact> 0.11200154E+00</totfact>
</mgrwt>
</event>
<event>
12    7  0.1637954E-007  0.3658524E+04  0.7818608E-02  0.8077216E-01
         -3   -1    0    0    0  501 -0.00000000000E+00  0.00000000000E+00  0.27611298365E+04  0.27611298365E+04  0.00000000000E+00 0.  1.
          2   -1    0    0  501    0  0.00000000000E+00 -0.00000000000E+00 -0.12118952880E+04  0.12118952880E+04  0.00000000000E+00 0. -1.
         24    2    1    2    0    0 -0.24473830820E+03  0.15432600619E+04 -0.41912904028E+02  0.15652468135E+04  0.81807320055E+02 0.  0.
        254    2    1    2    0    0  0.24473830820E+03 -0.15432600619E+04  0.15911474526E+04  0.24077783110E+04  0.90779828205E+03 0.  0.
         23    2    4    4    0    0 -0.38056920436E+01 -0.18452588846E+03 -0.95242067717E+02  0.22614740747E+03  0.89483583070E+02 0.  0.
         23    2    4    4    0    0  0.24854400024E+03 -0.13587341734E+04  0.16863895203E+04  0.21816309035E+04  0.87584878359E+02 0.  0.
          4    1    3    3  502    0 -0.25098679693E+03  0.14822616267E+04 -0.39358354733E+02  0.15038759864E+04  0.00000000000E+00 0. -1.
         -3    1    3    3    0  502  0.62484887324E+01  0.60998435167E+02 -0.25545492958E+01  0.61370827161E+02  0.00000000000E+00 0.  1.
         13    1    5    5    0    0 -0.14986844033E+01 -0.26908685990E+02  0.17687439195E+02  0.32236143409E+02  0.00000000000E+00 0. -1.
        -13    1    5    5    0    0 -0.23070076403E+01 -0.15761720247E+03 -0.11292950691E+03  0.19391126406E+03  0.00000000000E+00 0.  1.
          2    1    6    6  503    0  0.99204683872E+02 -0.44180388434E+03  0.49534611723E+03  0.67111848236E+03  0.00000000000E+00 0. -1.
         -2    1    6    6    0  503  0.14933931637E+03 -0.91693028911E+03  0.11910434031E+04  0.15105124211E+04  0.00000000000E+00 0.  1.
<mgrwt>
<rscale>  0 0.36585244E+04</rscale>
<asrwt>0</asrwt>
<pdfrwt beam="1">  1        2 0.18644543E+00 0.36585244E+04</pdfrwt>
<pdfrwt beam="2">  1       -3 0.42478921E+00 0.36585244E+04</pdfrwt>
<totfact> 0.72815861E-02</totfact>
</mgrwt>
</event>
<event>
12    7  0.1637954E-007  0.2312186E+04  0.7818608E-02  0.8473132E-01
          2   -1    0    0  501    0  0.00000000000E+00  0.00000000000E+00  0.13021483535E+04  0.13021483535E+04  0.00000000000E+00 0. -1.
         -1   -1    0    0    0  501 -0.00000000000E+00 -0.00000000000E+00 -0.10264199118E+04  0.10264199118E+04  0.00000000000E+00 0.  1.
         24    2    1    2    0    0 -0.98193120314E+03 -0.22201715654E+02  0.29456736738E+02  0.98652893323E+03  0.87691692158E+02 0.  0.
        254    2    1    2    0    0  0.98193120314E+03  0.22201715654E+02  0.24627170497E+03  0.13420393322E+04  0.88075990628E+03 0.  0.
         23    2    4    4    0    0  0.46946763086E+03 -0.40975926282E+01 -0.31786828631E+03  0.57468488730E+03  0.93839360384E+02 0.  0.
         23    2    4    4    0    0  0.51246357228E+03  0.26299308282E+02  0.56413999128E+03  0.76735444485E+03  0.85254605390E+02 0.  0.
          2    1    3    3  502    0 -0.84176982005E+03  0.90489748105E+01  0.12334884341E+02  0.84190882123E+03  0.00000000000E+00 0. -1.
         -1    1    3    3    0  502 -0.14016138309E+03 -0.31250690465E+02  0.17121852397E+02  0.14462011199E+03  0.00000000000E+00 0.  1.
         13    1    5    5    0    0  0.15312020608E+00  0.83145199188E+01 -0.11089011314E+02  0.13860766905E+02  0.00000000000E+00 0.  1.
        -13    1    5    5    0    0  0.46931451065E+03 -0.12412112547E+02 -0.30677927500E+03  0.56082412040E+03  0.00000000000E+00 0. -1.
          2    1    6    6  503    0  0.33322973335E+03  0.50159131264E+02  0.40128860859E+03  0.52401387484E+03  0.00000000000E+00 0. -1.
         -2    1    6    6    0  503  0.17923383893E+03 -0.23859822982E+02  0.16285138269E+03  0.24334057002E+03  0.00000000000E+00 0.  1.
<mgrwt>
<rscale>  0 0.23121860E+04</rscale>
<asrwt>0</asrwt>
<pdfrwt beam="1">  1        2 0.20033052E+00 0.23121860E+04</pdfrwt>
<pdfrwt beam="2">  1       -1 0.15791076E+00 0.23121860E+04</pdfrwt>
<totfact> 0.51578813E+00</totfact>
</mgrwt>
</event>
<event>
12    7  0.1637954E-007  0.1805263E+04  0.7818608E-02  0.8703506E-01
         -1   -1    0    0    0  501 -0.00000000000E+00  0.00000000000E+00  0.10105252862E+04  0.10105252862E+04  0.00000000000E+00 0.  1.
          2   -1    0    0  501    0  0.00000000000E+00 -0.00000000000E+00 -0.80625717148E+03  0.80625717148E+03  0.00000000000E+00 0. -1.
         24    2    1    2    0    0  0.75498612749E+02  0.24566958270E+03  0.74714912162E+03  0.79417406915E+03  0.80168932820E+02 0.  0.
        254    2    1    2    0    0 -0.75498612749E+02 -0.24566958270E+03 -0.54288100687E+03  0.10226083886E+04  0.82761980664E+03 0.  0.
         23    2    4    4    0    0 -0.28615179094E+02 -0.39375299313E+03 -0.67969053184E+03  0.79141167248E+03  0.92157301342E+02 0.  0.
         23    2    4    4    0    0 -0.46883433655E+02  0.14808341043E+03  0.13680952497E+03  0.23119671608E+03  0.10299671163E+03 0.  0.
          4    1    3    3  502    0 -0.89097446197E+01  0.68679210586E+02  0.14086627271E+03  0.15696981972E+03  0.00000000000E+00 0. -1.
         -3    1    3    3    0  502  0.84408357368E+02  0.17699037211E+03  0.60628284891E+03  0.63720424943E+03  0.00000000000E+00 0.  1.
         13    1    5    5    0    0 -0.23439190072E+02 -0.16900163860E+03 -0.38199002229E+03  0.41836267354E+03  0.00000000000E+00 0.  1.
        -13    1    5    5    0    0 -0.51759890217E+01 -0.22475135453E+03 -0.29770050955E+03  0.37304899894E+03  0.00000000000E+00 0. -1.
          3    1    6    6  503    0 -0.21530426071E+02  0.23998566830E+02 -0.13230769502E+02  0.34850304421E+02  0.00000000000E+00 0. -1.
         -3    1    6    6    0  503 -0.25353007584E+02  0.12408484360E+03  0.15004029448E+03  0.19634641166E+03  0.00000000000E+00 0.  1.
<mgrwt>
<rscale>  0 0.18052626E+04</rscale>
<asrwt>0</asrwt>
<pdfrwt beam="1">  1        2 0.12403956E+00 0.18052626E+04</pdfrwt>
<pdfrwt beam="2">  1       -1 0.15546543E+00 0.18052626E+04</pdfrwt>
<totfact> 0.11622610E+01</totfact>
</mgrwt>
</event>
<event>
12    7  0.1637954E-007  0.2292752E+04  0.7818608E-02  0.8480784E-01
          2   -1    0    0  501    0  0.00000000000E+00  0.00000000000E+00  0.24595107529E+04  0.24595107529E+04  0.00000000000E+00 0. -1.
         -1   -1    0    0    0  501 -0.00000000000E+00 -0.00000000000E+00 -0.53432497043E+03  0.53432497043E+03  0.00000000000E+00 0.  1.
         24    2    1    2    0    0 -0.74065476242E+03  0.62475927486E+03  0.67797944523E+03  0.11853116371E+04  0.80086953940E+02 0.  0.
        254    2    1    2    0    0  0.74065476242E+03 -0.62475927486E+03  0.12472063373E+04  0.18085240863E+04  0.88110277173E+03 0.  0.
         23    2    4    4    0    0  0.82814800336E+03 -0.70904588087E+03  0.85798968394E+03  0.13907232296E+04  0.96900087733E+02 0.  0.
         23    2    4    4    0    0 -0.87493240941E+02  0.84286606005E+02  0.38921665332E+03  0.41780085667E+03  0.91151815394E+02 0.  0.
          2    1    3    3  502    0 -0.16170245211E+03  0.95293845960E+02  0.12747535847E+03  0.22688888715E+03  0.00000000000E+00 0. -1.
         -1    1    3    3    0  502 -0.57895231031E+03  0.52946542890E+03  0.55050408676E+03  0.95842274992E+03  0.00000000000E+00 0.  1.
         13    1    5    5    0    0  0.23246581550E+03 -0.14398179362E+03  0.21758137994E+03  0.34944637524E+03  0.00000000000E+00 0.  1.
        -13    1    5    5    0    0  0.59568218785E+03 -0.56506408725E+03  0.64040830401E+03  0.10412768544E+04  0.00000000000E+00 0. -1.
          3    1    6    6  503    0 -0.84115058018E+02  0.76233043847E+02  0.39241133720E+03  0.40850150248E+03  0.00000000000E+00 0. -1.
         -3    1    6    6    0  503 -0.33781829230E+01  0.80535621578E+01 -0.31946838833E+01  0.92993541929E+01  0.00000000000E+00 0.  1.
<mgrwt>
<rscale>  0 0.22927521E+04</rscale>
<asrwt>0</asrwt>
<pdfrwt beam="1">  1        2 0.37838626E+00 0.22927521E+04</pdfrwt>
<pdfrwt beam="2">  1       -1 0.82203843E-01 0.22927521E+04</pdfrwt>
<totfact> 0.55808083E+00</totfact>
</mgrwt>
</event>
<event>
12    7  0.1637954E-007  0.1994883E+04  0.7818608E-02  0.8609017E-01
         -1   -1    0    0    0  501 -0.00000000000E+00  0.00000000000E+00  0.47169598322E+03  0.47169598322E+03  0.00000000000E+00 0.  1.
          2   -1    0    0  501    0  0.00000000000E+00 -0.00000000000E+00 -0.21091761662E+04  0.21091761662E+04  0.00000000000E+00 0. -1.
         24    2    1    2    0    0 -0.30316725024E+03  0.37768838175E+03  0.15241153564E+03  0.51391489229E+03  0.79500597443E+02 0.  0.
        254    2    1    2    0    0  0.30316725024E+03 -0.37768838175E+03 -0.17898917186E+04  0.20669572571E+04  0.91325847550E+03 0.  0.
         23    2    4    4    0    0 -0.23590465275E+03  0.11408067687E+03 -0.68713256663E+03  0.74124425032E+03  0.92878783812E+02 0.  0.
         23    2    4    4    0    0  0.53907190299E+03 -0.49176905862E+03 -0.11027591519E+04  0.13257130068E+04  0.94878372172E+02 0.  0.
          2    1    3    3  502    0 -0.48418370140E+02  0.40161178551E+02 -0.40205126161E+01  0.63035096187E+02  0.00000000000E+00 0. -1.
         -1    1    3    3    0  502 -0.25474888010E+03  0.33752720320E+03  0.15643204826E+03  0.45087979611E+03  0.00000000000E+00 0.  1.
         13    1    5    5    0    0 -0.11759353671E+02  0.25541380278E+02 -0.29087952499E+02  0.40456810129E+02  0.00000000000E+00 0.  1.
        -13    1    5    5    0    0 -0.22414529908E+03  0.88539296591E+02 -0.65804461413E+03  0.70078744019E+03  0.00000000000E+00 0. -1.
          3    1    6    6  503    0  0.54054192118E+03 -0.47681659801E+03 -0.10793200158E+04  0.12978718477E+04  0.00000000000E+00 0. -1.
         -3    1    6    6    0  503 -0.14700181947E+01 -0.14952460609E+02 -0.23439136194E+02  0.27841159050E+02  0.00000000000E+00 0.  1.
<mgrwt>
<rscale>  0 0.19948834E+04</rscale>
<asrwt>0</asrwt>
<pdfrwt beam="1">  1        2 0.32448864E+00 0.19948834E+04</pdfrwt>
<pdfrwt beam="2">  1       -1 0.72568613E-01 0.19948834E+04</pdfrwt>
<totfact> 0.11767543E+01</totfact>
</mgrwt>
</event>
<event>
12    7  0.1637954E-007  0.1633372E+04  0.7818608E-02  0.8800305E-01
          2   -1    0    0  501    0  0.00000000000E+00  0.00000000000E+00  0.65200829610E+03  0.65200829610E+03  0.00000000000E+00 0. -1.
         -1   -1    0    0    0  501 -0.00000000000E+00 -0.00000000000E+00 -0.10229562518E+04  0.10229562518E+04  0.00000000000E+00 0.  1.
         24    2    1    2    0    0 -0.94147320160E+02  0.25647300761E+02 -0.68583799426E+03  0.69715596672E+03  0.78301887749E+02 0.  0.
        254    2    1    2    0    0  0.94147320160E+02 -0.25647300761E+02  0.31489003855E+03  0.97780858120E+03  0.92056090682E+03 0.  0.
         23    2    4    4    0    0  0.14232526872E+03  0.93645456137E+02  0.61181275639E+03  0.64152062374E+03  0.90597506742E+02 0.  0.
         23    2    4    4    0    0 -0.48177948564E+02 -0.11929275690E+03 -0.29692271784E+03  0.33628795746E+03  0.91512913775E+02 0.  0.
          4    1    3    3  502    0 -0.37423596042E+02  0.48330206685E+02 -0.26846827575E+03  0.27533897201E+03  0.00000000000E+00 0. -1.
         -3    1    3    3    0  502 -0.56723724118E+02 -0.22682905925E+02 -0.41736971851E+03  0.42181699471E+03  0.00000000000E+00 0.  1.
         13    1    5    5    0    0  0.11133946092E+03  0.95698263103E+02  0.37557871889E+03  0.40325427115E+03  0.00000000000E+00 0. -1.
        -13    1    5    5    0    0  0.30985807806E+02 -0.20528069662E+01  0.23623403750E+03  0.23826635259E+03  0.00000000000E+00 0.  1.
          3    1    6    6  503    0 -0.17962131115E+01 -0.11053000609E+03 -0.20161963205E+03  0.22993604470E+03  0.00000000000E+00 0. -1.
         -3    1    6    6    0  503 -0.46381735453E+02 -0.87627508100E+01 -0.95303085796E+02  0.10635191276E+03  0.00000000000E+00 0.  1.
<mgrwt>
<rscale>  0 0.16333719E+04</rscale>
<asrwt>0</asrwt>
<pdfrwt beam="1">  1        2 0.10030897E+00 0.16333719E+04</pdfrwt>
<pdfrwt beam="2">  1       -1 0.15737788E+00 0.16333719E+04</pdfrwt>
<totfact> 0.14974315E+01</totfact>
</mgrwt>
</event>
<event>
12    7  0.1637954E-007  0.1195949E+04  0.7818608E-02  0.9116410E-01
         -1   -1    0    0    0  501 -0.00000000000E+00  0.00000000000E+00  0.32797514926E+03  0.32797514926E+03  0.00000000000E+00 0.  1.
          2   -1    0    0  501    0  0.00000000000E+00 -0.00000000000E+00 -0.10902451444E+04  0.10902451444E+04  0.00000000000E+00 0. -1.
         24    2    1    2    0    0 -0.55641226184E+00  0.10160646815E+03 -0.45353032463E+03  0.47170872445E+03  0.80592688209E+02 0.  0.
        254    2    1    2    0    0  0.55641226184E+00 -0.10160646815E+03 -0.30873967046E+03  0.94651156917E+03  0.88895431968E+03 0.  0.
         23    2    4    4    0    0  0.32428585479E+02 -0.44636666869E+03 -0.36196302306E+03  0.58465748166E+03  0.10252962850E+03 0.  0.
         23    2    4    4    0    0 -0.31872173217E+02  0.34476020054E+03  0.53223352605E+02  0.36185408750E+03  0.90720582433E+02 0.  0.
          4    1    3    3  502    0 -0.69350120530E+01  0.28987670134E+02 -0.30292972466E+03  0.30439250565E+03  0.00000000000E+00 0. -1.
         -3    1    3    3    0  502  0.63785997911E+01  0.72618798020E+02 -0.15060059997E+03  0.16731621880E+03  0.00000000000E+00 0.  1.
         13    1    5    5    0    0  0.13821849378E+02 -0.57997148720E+02 -0.10505952105E+02  0.60539968694E+02  0.00000000000E+00 0.  1.
        -13    1    5    5    0    0  0.18606736100E+02 -0.38836951998E+03 -0.35145707096E+03  0.52411751297E+03  0.00000000000E+00 0. -1.
          1    1    6    6  503    0 -0.52633570287E+02  0.31579008190E+03  0.59600143956E+02  0.32564681129E+03  0.00000000000E+00 0. -1.
         -1    1    6    6    0  503  0.20761397070E+02  0.28970118643E+02 -0.63767913511E+01  0.36207276209E+02  0.00000000000E+00 0.  1.
<mgrwt>
<rscale>  0 0.11959487E+04</rscale>
<asrwt>0</asrwt>
<pdfrwt beam="1">  1        2 0.16773002E+00 0.11959487E+04</pdfrwt>
<pdfrwt beam="2">  1       -1 0.50457716E-01 0.11959487E+04</pdfrwt>
<totfact> 0.98052221E+01</totfact>
</mgrwt>
</event>
<event>
12    7  0.1637954E-007  0.1259486E+04  0.7818608E-02  0.9062325E-01
         -1   -1    0    0    0  501 -0.00000000000E+00  0.00000000000E+00  0.45786583357E+03  0.45786583357E+03  0.00000000000E+00 0.  1.
          2   -1    0    0  501    0  0.00000000000E+00 -0.00000000000E+00 -0.86614005798E+03  0.86614005798E+03  0.00000000000E+00 0. -1.
         24    2    1    2    0    0  0.17431352329E+03 -0.30139283508E+02  0.16786904556E+03  0.25655855975E+03  0.79678713033E+02 0.  0.
        254    2    1    2    0    0 -0.17431352329E+03  0.30139283508E+02 -0.57614326997E+03  0.10674473318E+04  0.88102733091E+03 0.  0.
         23    2    4    4    0    0 -0.13818974814E+03 -0.35300270301E+03 -0.26081881436E+02  0.39089952237E+03  0.91732530926E+02 0.  0.
         23    2    4    4    0    0 -0.36123775144E+02  0.38314198652E+03 -0.55006138853E+03  0.67654780942E+03  0.83944614592E+02 0.  0.
          4    1    3    3  502    0  0.94909752388E+02 -0.46990871618E+02  0.60530730714E+02  0.12198349263E+03  0.00000000000E+00 0. -1.
         -3    1    3    3    0  502  0.79403770899E+02  0.16851588110E+02  0.10733831485E+03  0.13457506712E+03  0.00000000000E+00 0.  1.
         13    1    5    5    0    0 -0.76745756555E+02 -0.27561678165E+03  0.84490799776E+01  0.28622702253E+03  0.00000000000E+00 0.  1.
        -13    1    5    5    0    0 -0.61443991587E+02 -0.77385921361E+02 -0.34530961414E+02  0.10467249984E+03  0.00000000000E+00 0. -1.
          4    1    6    6  503    0  0.60142156179E+01  0.18707105600E+02 -0.63637130492E+01  0.20654864637E+02  0.00000000000E+00 0. -1.
         -4    1    6    6    0  503 -0.42137990762E+02  0.36443488092E+03 -0.54369767548E+03  0.65589294479E+03  0.00000000000E+00 0.  1.
<mgrwt>
<rscale>  0 0.12594855E+04</rscale>
<asrwt>0</asrwt>
<pdfrwt beam="1">  1        2 0.13325232E+00 0.12594855E+04</pdfrwt>
<pdfrwt beam="2">  1       -1 0.70440898E-01 0.12594855E+04</pdfrwt>
<totfact> 0.70686318E+01</totfact>
</mgrwt>
</event>
<event>
12    7  0.2510448E-007  0.1324713E+04  0.7818608E-02  0.9010194E-01
         -1   -1    0    0    0  501 -0.00000000000E+00  0.00000000000E+00  0.57165018009E+03  0.57165018009E+03  0.00000000000E+00 0.  1.
          2   -1    0    0  501    0  0.00000000000E+00 -0.00000000000E+00 -0.76745514134E+03  0.76745514134E+03  0.00000000000E+00 0. -1.
         24    2    1    2    0    0  0.13399503345E+03  0.15437283895E+03  0.21617671312E+03  0.31145181666E+03  0.92109827999E+02 0.  0.
        254    2    1    2    0    0 -0.13399503345E+03 -0.15437283895E+03 -0.41198167436E+03  0.10276535048E+04  0.91899792353E+03 0.  0.
         23    2    4    4    0    0 -0.22195559983E+03 -0.34678695452E+03  0.12798873048E+03  0.44045569913E+03  0.89970148617E+02 0.  0.
         23    2    4    4    0    0  0.87960566384E+02  0.19241411558E+03 -0.53997040484E+03  0.58719780564E+03  0.92048746476E+02 0.  0.
          2    1    3    3  502    0  0.20748816921E+02 -0.87080548326E+01  0.82773418730E+01  0.23976196760E+02  0.00000000000E+00 0. -1.
         -1    1    3    3    0  502  0.11324621653E+03  0.16308089378E+03  0.20789937125E+03  0.28747561990E+03  0.00000000000E+00 0.  1.
         13    1    5    5    0    0  0.18874525110E+01  0.45150457645E+01  0.15542679043E+01  0.51345753433E+01  0.00000000000E+00 0. -1.
        -13    1    5    5    0    0 -0.22384305234E+03 -0.35130200029E+03  0.12643446257E+03  0.43532112379E+03  0.00000000000E+00 0.  1.
          3    1    6    6  503    0  0.63985297275E+01 -0.10150589201E+02 -0.21582541521E+02  0.24693759177E+02  0.00000000000E+00 0. -1.
         -3    1    6    6    0  503  0.81562036657E+02  0.20256470478E+03 -0.51838786332E+03  0.56250404646E+03  0.00000000000E+00 0.  1.
<mgrwt>
<rscale>  0 0.13247126E+04</rscale>
<asrwt>0</asrwt>
<pdfrwt beam="1">  1        2 0.11807002E+00 0.13247126E+04</pdfrwt>
<pdfrwt beam="2">  1       -1 0.87946181E-01 0.13247126E+04</pdfrwt>
<totfact> 0.51700133E+01</totfact>
</mgrwt>
</event>
<event>
12    7  0.1637954E-007  0.1474941E+04  0.7818608E-02  0.8901290E-01
          2   -1    0    0  501    0  0.00000000000E+00  0.00000000000E+00  0.26643969092E+04  0.26643969092E+04  0.00000000000E+00 0. -1.
         -1   -1    0    0    0  501 -0.00000000000E+00 -0.00000000000E+00 -0.20412223820E+03  0.20412223820E+03  0.00000000000E+00 0.  1.
         24    2    1    2    0    0  0.43253926816E+03 -0.48197673183E+02  0.49600640787E+03  0.66504860718E+03  0.82789244836E+02 0.  0.
        254    2    1    2    0    0 -0.43253926816E+03  0.48197673183E+02  0.19642682632E+04  0.22034705403E+04  0.89862081990E+03 0.  0.
         23    2    4    4    0    0 -0.67947456822E+03 -0.10166494339E+03  0.14352000674E+04  0.15938374023E+04  0.92179075148E+02 0.  0.
         23    2    4    4    0    0  0.24693530006E+03  0.14986261657E+03  0.52906819577E+03  0.60963313798E+03  0.91123876616E+02 0.  0.
          2    1    3    3  502    0  0.67018937535E+02 -0.22112341536E+02  0.44025512865E+02  0.83178960198E+02  0.00000000000E+00 0. -1.
         -1    1    3    3    0  502  0.36552033062E+03 -0.26085331647E+02  0.45198089501E+03  0.58186964698E+03  0.00000000000E+00 0.  1.
         13    1    5    5    0    0 -0.47226668417E+01 -0.20304613818E+01  0.45395441414E+02  0.45685582591E+02  0.00000000000E+00 0.  1.
        -13    1    5    5    0    0 -0.67475190138E+03 -0.99634482006E+02  0.13898046260E+04  0.15481518197E+04  0.00000000000E+00 0. -1.
          4    1    6    6  503    0  0.22652179850E+03  0.98902683969E+02  0.41472451729E+03  0.48279425362E+03  0.00000000000E+00 0. -1.
         -4    1    6    6    0  503  0.20413501562E+02  0.50959932602E+02  0.11434367848E+03  0.12683888436E+03  0.00000000000E+00 0.  1.
<mgrwt>
<rscale>  0 0.14749409E+04</rscale>
<asrwt>0</asrwt>
<pdfrwt beam="1">  1        2 0.40990719E+00 0.14749409E+04</pdfrwt>
<pdfrwt beam="2">  1       -1 0.31403423E-01 0.14749409E+04</pdfrwt>
<totfact> 0.29059050E+01</totfact>
</mgrwt>
</event>
<event>
12    7  0.1637954E-007  0.1743355E+04  0.7818608E-02  0.8737017E-01
          2   -1    0    0  501    0  0.00000000000E+00  0.00000000000E+00  0.98027399694E+03  0.98027399694E+03  0.00000000000E+00 0. -1.
         -1   -1    0    0    0  501 -0.00000000000E+00 -0.00000000000E+00 -0.77511147168E+03  0.77511147168E+03  0.00000000000E+00 0.  1.
         24    2    1    2    0    0  0.12284577968E+03 -0.20109198926E+03 -0.51758839289E+03  0.57429402168E+03  0.79917489642E+02 0.  0.
        254    2    1    2    0    0 -0.12284577968E+03  0.20109198926E+03  0.72275091815E+03  0.11810914469E+04  0.90392424606E+03 0.  0.
         23    2    4    4    0    0 -0.10784070359E+03 -0.18665134380E+03  0.74514902432E+03  0.78174826260E+03  0.97030593850E+02 0.  0.
         23    2    4    4    0    0 -0.15005076088E+02  0.38774333306E+03 -0.22398106170E+02  0.39934318434E+03  0.91669291911E+02 0.  0.
          2    1    3    3  502    0  0.48663900730E+02 -0.44966739645E+02 -0.80456972962E+02  0.10422815074E+03  0.00000000000E+00 0. -1.
         -1    1    3    3    0  502  0.74181878953E+02 -0.15612524961E+03 -0.43713141993E+03  0.47006587094E+03  0.00000000000E+00 0.  1.
         13    1    5    5    0    0 -0.29947543142E+02  0.24793850690E+01  0.13217431506E+03  0.13554723255E+03  0.00000000000E+00 0.  1.
        -13    1    5    5    0    0 -0.77893160452E+02 -0.18913072887E+03  0.61297470926E+03  0.64620103005E+03  0.00000000000E+00 0. -1.
          2    1    6    6  503    0  0.22837009097E+02  0.31365400286E+03 -0.29396882016E+02  0.31585525034E+03  0.00000000000E+00 0. -1.
         -2    1    6    6    0  503 -0.37842085184E+02  0.74089330196E+02  0.69987758468E+01  0.83487933998E+02  0.00000000000E+00 0.  1.
<mgrwt>
<rscale>  0 0.17433549E+04</rscale>
<asrwt>0</asrwt>
<pdfrwt beam="1">  1        2 0.15081138E+00 0.17433549E+04</pdfrwt>
<pdfrwt beam="2">  1       -1 0.11924792E+00 0.17433549E+04</pdfrwt>
<totfact> 0.17647699E+01</totfact>
</mgrwt>
</event>
<event>
12    7  0.1637954E-007  0.1637130E+04  0.7818608E-02  0.8798057E-01
         -1   -1    0    0    0  501 -0.00000000000E+00  0.00000000000E+00  0.96110083792E+03  0.96110083792E+03  0.00000000000E+00 0.  1.
          2   -1    0    0  501    0  0.00000000000E+00 -0.00000000000E+00 -0.69716776747E+03  0.69716776747E+03  0.00000000000E+00 0. -1.
         24    2    1    2    0    0  0.20728937721E+03  0.42726126059E+03  0.39777854310E+03  0.62435910009E+03  0.77945146214E+02 0.  0.
        254    2    1    2    0    0 -0.20728937721E+03 -0.42726126059E+03 -0.13384547264E+03  0.10339095053E+04  0.90858856689E+03 0.  0.
         23    2    4    4    0    0  0.33901971587E+03 -0.11538195672E+03  0.49774135527E+02  0.37224093600E+03  0.88535225670E+02 0.  0.
         23    2    4    4    0    0 -0.54630909308E+03 -0.31187930387E+03 -0.18361960817E+03  0.66166856929E+03  0.91470266831E+02 0.  0.
          2    1    3    3  502    0  0.17305261857E+03  0.40206582557E+03  0.37341789002E+03  0.57536515143E+03  0.00000000000E+00 0. -1.
         -1    1    3    3    0  502  0.34236758641E+02  0.25195435016E+02  0.24360653076E+02  0.48993948669E+02  0.00000000000E+00 0.  1.
         13    1    5    5    0    0  0.16753956224E+03 -0.94186124091E+02  0.53185087682E+02  0.19942212625E+03  0.00000000000E+00 0. -1.
        -13    1    5    5    0    0  0.17148015363E+03 -0.21195832631E+02 -0.34109521553E+01  0.17281880975E+03  0.00000000000E+00 0.  1.
          3    1    6    6  503    0 -0.51705191994E+03 -0.30055134140E+03 -0.19381550484E+03  0.62867976478E+03  0.00000000000E+00 0. -1.
         -3    1    6    6    0  503 -0.29257173147E+02 -0.11327962467E+02  0.10195896666E+02  0.32988804510E+02  0.00000000000E+00 0.  1.
<mgrwt>
<rscale>  0 0.16371298E+04</rscale>
<asrwt>0</asrwt>
<pdfrwt beam="1">  1        2 0.10725658E+00 0.16371298E+04</pdfrwt>
<pdfrwt beam="2">  1       -1 0.14786167E+00 0.16371298E+04</pdfrwt>
<totfact> 0.16311350E+01</totfact>
</mgrwt>
</event>
<event>
12    7  0.1637954E-007  0.2385133E+04  0.7818608E-02  0.8445091E-01
          2   -1    0    0  501    0  0.00000000000E+00  0.00000000000E+00  0.41855389164E+04  0.41855389164E+04  0.00000000000E+00 0. -1.
         -1   -1    0    0    0  501 -0.00000000000E+00 -0.00000000000E+00 -0.33979258318E+03  0.33979258318E+03  0.00000000000E+00 0.  1.
         24    2    1    2    0    0  0.87119729637E+03  0.42014198725E+03  0.23331890164E+04  0.25267402760E+04  0.71703678820E+02 0.  0.
        254    2    1    2    0    0 -0.87119729637E+03 -0.42014198725E+03  0.15125573169E+04  0.19985912236E+04  0.87808497518E+03 0.  0.
         23    2    4    4    0    0 -0.69073153785E+03 -0.66017178924E+03  0.92794295902E+03  0.13351800090E+04  0.93223776038E+02 0.  0.
         23    2    4    4    0    0 -0.18046575852E+03  0.24002980199E+03  0.58461435788E+03  0.66341121469E+03  0.90323288768E+02 0.  0.
          2    1    3    3  502    0  0.70585450088E+03  0.32815281683E+03  0.18052787806E+04  0.19659466735E+04  0.00000000000E+00 0. -1.
         -1    1    3    3    0  502  0.16534279549E+03  0.91989170418E+02  0.52791023577E+03  0.56079360243E+03  0.00000000000E+00 0.  1.
         13    1    5    5    0    0 -0.59404677986E+03 -0.55215688682E+03  0.74058501328E+03  0.10982872877E+04  0.00000000000E+00 0.  1.
        -13    1    5    5    0    0 -0.96684757992E+02 -0.10801490242E+03  0.18735794574E+03  0.23689272130E+03  0.00000000000E+00 0. -1.
          1    1    6    6  503    0 -0.13236348783E+02  0.20284548893E+02  0.12416960584E+03  0.12650990027E+03  0.00000000000E+00 0. -1.
         -1    1    6    6    0  503 -0.16722940974E+03  0.21974525310E+03  0.46044475205E+03  0.53690131442E+03  0.00000000000E+00 0.  1.
<mgrwt>
<rscale>  0 0.23851332E+04</rscale>
<asrwt>0</asrwt>
<pdfrwt beam="1">  1        2 0.64392903E+00 0.23851332E+04</pdfrwt>
<pdfrwt beam="2">  1       -1 0.52275785E-01 0.23851332E+04</pdfrwt>
<totfact> 0.90883216E-01</totfact>
</mgrwt>
</event>
<event>
12    7  0.1637954E-007  0.2557073E+04  0.7818608E-02  0.8382931E-01
         -1   -1    0    0    0  501 -0.00000000000E+00  0.00000000000E+00  0.10241078539E+04  0.10241078539E+04  0.00000000000E+00 0.  1.
          2   -1    0    0  501    0  0.00000000000E+00 -0.00000000000E+00 -0.15961748347E+04  0.15961748347E+04  0.00000000000E+00 0. -1.
         24    2    1    2    0    0 -0.57994618168E+03 -0.60369249978E+03 -0.10125317318E+04  0.13161613222E+04  0.79233264602E+02 0.  0.
        254    2    1    2    0    0  0.57994618168E+03  0.60369249978E+03  0.44046475097E+03  0.13041213664E+04  0.89774224221E+03 0.  0.
         23    2    4    4    0    0  0.14255571792E+03  0.53700010095E+03  0.60222686342E+03  0.82441008744E+03  0.91014043586E+02 0.  0.
         23    2    4    4    0    0  0.43739046376E+03  0.66692398835E+02 -0.16176211245E+03  0.47971127893E+03  0.90540798862E+02 0.  0.
          4    1    3    3  502    0 -0.57862321628E+03 -0.59555511796E+03 -0.10100497053E+04  0.13075515791E+04  0.00000000000E+00 0. -1.
         -3    1    3    3    0  502 -0.13229654005E+01 -0.81373818196E+01 -0.24820265457E+01  0.86097430916E+01  0.00000000000E+00 0.  1.
         13    1    5    5    0    0  0.38906794078E+02  0.26623377776E+03  0.33915137916E+03  0.43291779939E+03  0.00000000000E+00 0.  1.
        -13    1    5    5    0    0  0.10364892384E+03  0.27076632319E+03  0.26307548426E+03  0.39149228805E+03  0.00000000000E+00 0. -1.
          2    1    6    6  503    0  0.34802837237E+03  0.71333904588E+02 -0.16144893426E+03  0.39022817978E+03  0.00000000000E+00 0.  1.
         -2    1    6    6    0  503  0.89362091393E+02 -0.46415057524E+01 -0.31317818490E+00  0.89483099155E+02  0.00000000000E+00 0. -1.
<mgrwt>
<rscale>  0 0.25570727E+04</rscale>
<asrwt>0</asrwt>
<pdfrwt beam="1">  1        2 0.24556536E+00 0.25570727E+04</pdfrwt>
<pdfrwt beam="2">  1       -1 0.15755505E+00 0.25570727E+04</pdfrwt>
<totfact> 0.34557761E+00</totfact>
</mgrwt>
</event>
<event>
12    7  0.1637954E-007  0.1191864E+04  0.7818608E-02  0.9120008E-01
         -1   -1    0    0    0  501 -0.00000000000E+00  0.00000000000E+00  0.11703602312E+03  0.11703602312E+03  0.00000000000E+00 0.  1.
          2   -1    0    0  501    0  0.00000000000E+00 -0.00000000000E+00 -0.30344054117E+04  0.30344054117E+04  0.00000000000E+00 0. -1.
         24    2    1    2    0    0 -0.26290097197E+01 -0.23755106909E+02 -0.12581770273E+04  0.12608246433E+04  0.78090538924E+02 0.  0.
        254    2    1    2    0    0  0.26290097197E+01  0.23755106909E+02 -0.16591923613E+04  0.18906167916E+04  0.90605813500E+03 0.  0.
         23    2    4    4    0    0  0.17419367960E+03 -0.39668489145E+03 -0.80594957787E+03  0.91984149729E+03  0.94081437808E+02 0.  0.
         23    2    4    4    0    0 -0.17156466988E+03  0.42043999836E+03 -0.85324278345E+03  0.97077529431E+03  0.90427851646E+02 0.  0.
          4    1    3    3  502    0  0.14426752145E+02 -0.41536059543E+02 -0.10864176116E+04  0.10873070413E+04  0.00000000000E+00 0. -1.
         -3    1    3    3    0  502 -0.17055761865E+02  0.17780952634E+02 -0.17175941574E+03  0.17351760194E+03  0.00000000000E+00 0.  1.
         13    1    5    5    0    0  0.10053705502E+03 -0.31639443951E+03 -0.64591530481E+03  0.72623668440E+03  0.00000000000E+00 0.  1.
        -13    1    5    5    0    0  0.73656624578E+02 -0.80290451944E+02 -0.16003427306E+03  0.19360481289E+03  0.00000000000E+00 0. -1.
          4    1    6    6  503    0 -0.77338088793E+02  0.18272853380E+03 -0.46876719401E+03  0.50903200216E+03  0.00000000000E+00 0. -1.
         -4    1    6    6    0  503 -0.94226581088E+02  0.23771146456E+03 -0.38447558944E+03  0.46174329214E+03  0.00000000000E+00 0.  1.
<mgrwt>
<rscale>  0 0.11918637E+04</rscale>
<asrwt>0</asrwt>
<pdfrwt beam="1">  1        2 0.46683156E+00 0.11918637E+04</pdfrwt>
<pdfrwt beam="2">  1       -1 0.18005544E-01 0.11918637E+04</pdfrwt>
<totfact> 0.46103516E+01</totfact>
</mgrwt>
</event>
<event>
12    7  0.1637954E-007  0.1956752E+04  0.7818608E-02  0.8627112E-01
         -1   -1    0    0    0  501 -0.00000000000E+00  0.00000000000E+00  0.97498188619E+03  0.97498188619E+03  0.00000000000E+00 0.  1.
          2   -1    0    0  501    0  0.00000000000E+00 -0.00000000000E+00 -0.98178234560E+03  0.98178234560E+03  0.00000000000E+00 0. -1.
         24    2    1    2    0    0 -0.43913293780E+03 -0.54806528852E+03  0.32522662660E+03  0.77798522270E+03  0.79217110243E+02 0.  0.
        254    2    1    2    0    0  0.43913293780E+03  0.54806528852E+03 -0.33202708600E+03  0.11787790091E+04  0.88660288117E+03 0.  0.
         23    2    4    4    0    0  0.47218728421E+03  0.75887133207E+03 -0.25940160213E+03  0.93503984539E+03  0.90353700959E+02 0.  0.
         23    2    4    4    0    0 -0.33054346414E+02 -0.21080604355E+03 -0.72625483869E+02  0.24373916370E+03  0.92749885175E+02 0.  0.
          2    1    3    3  502    0 -0.33793107335E+03 -0.40564111896E+03  0.20733160838E+03  0.56721118074E+03  0.00000000000E+00 0. -1.
         -1    1    3    3    0  502 -0.10120186444E+03 -0.14242416956E+03  0.11789501822E+03  0.21077404196E+03  0.00000000000E+00 0.  1.
         13    1    5    5    0    0  0.71907778336E+02  0.17665999098E+03 -0.36667494990E+02  0.19422663614E+03  0.00000000000E+00 0. -1.
        -13    1    5    5    0    0  0.40027950588E+03  0.58221134109E+03 -0.22273410714E+03  0.74081320925E+03  0.00000000000E+00 0.  1.
          1    1    6    6  503    0 -0.26469875422E+02 -0.11071858445E+03 -0.85830654042E+02  0.14256984401E+03  0.00000000000E+00 0. -1.
         -1    1    6    6    0  503 -0.65844709919E+01 -0.10008745910E+03  0.13205170173E+02  0.10116931969E+03  0.00000000000E+00 0.  1.
<mgrwt>
<rscale>  0 0.19567524E+04</rscale>
<asrwt>0</asrwt>
<pdfrwt beam="1">  1        2 0.15104344E+00 0.19567524E+04</pdfrwt>
<pdfrwt beam="2">  1       -1 0.14999721E+00 0.19567524E+04</pdfrwt>
<totfact> 0.96048689E+00</totfact>
</mgrwt>
</event>
<event>
12    7  0.1637954E-007  0.2332609E+04  0.7818608E-02  0.8465174E-01
          2   -1    0    0  501    0  0.00000000000E+00  0.00000000000E+00  0.11715398344E+04  0.11715398344E+04  0.00000000000E+00 0. -1.
         -1   -1    0    0    0  501 -0.00000000000E+00 -0.00000000000E+00 -0.11610926920E+04  0.11610926920E+04  0.00000000000E+00 0.  1.
         24    2    1    2    0    0 -0.15037074253E+00 -0.31366303418E+03 -0.89724438389E+03  0.95385233233E+03  0.80014160271E+02 0.  0.
        254    2    1    2    0    0  0.15037074253E+00  0.31366303418E+03  0.90769152632E+03  0.13787801940E+04  0.98931612483E+03 0.  0.
         23    2    4    4    0    0  0.25126952048E+03  0.24981579344E+03  0.10181104973E+04  0.10819435376E+04  0.92241699754E+02 0.  0.
         23    2    4    4    0    0 -0.25111914973E+03  0.63847240745E+02 -0.11041897098E+03  0.29683665646E+03  0.93714214255E+02 0.  0.
          4    1    3    3  502    0  0.22138113277E+02 -0.27186451712E+03 -0.70681911631E+03  0.75762370271E+03  0.00000000000E+00 0. -1.
         -3    1    3    3    0  502 -0.22288484020E+02 -0.41798517056E+02 -0.19042526758E+03  0.19622862962E+03  0.00000000000E+00 0.  1.
         13    1    5    5    0    0  0.23843642583E+03  0.25701097419E+03  0.98953613274E+03  0.10498039474E+04  0.00000000000E+00 0.  1.
        -13    1    5    5    0    0  0.12833094641E+02 -0.71951807515E+01  0.28574364563E+02  0.32139590139E+02  0.00000000000E+00 0. -1.
          2    1    6    6  503    0 -0.96763549634E+02  0.59913709101E+02 -0.13681303622E+02  0.11462990511E+03  0.00000000000E+00 0. -1.
         -2    1    6    6    0  503 -0.15435560010E+03  0.39335316447E+01 -0.96737667361E+02  0.18220675136E+03  0.00000000000E+00 0.  1.
<mgrwt>
<rscale>  0 0.23326091E+04</rscale>
<asrwt>0</asrwt>
<pdfrwt beam="1">  1        2 0.18023690E+00 0.23326091E+04</pdfrwt>
<pdfrwt beam="2">  1       -1 0.17862964E+00 0.23326091E+04</pdfrwt>
<totfact> 0.43233507E+00</totfact>
</mgrwt>
</event>
<event>
12    7  0.1637954E-007  0.1261575E+04  0.7818608E-02  0.9060604E-01
         -1   -1    0    0    0  501 -0.00000000000E+00  0.00000000000E+00  0.14710562828E+03  0.14710562828E+03  0.00000000000E+00 0.  1.
          2   -1    0    0  501    0  0.00000000000E+00 -0.00000000000E+00 -0.27048100511E+04  0.27048100511E+04  0.00000000000E+00 0. -1.
         24    2    1    2    0    0  0.84447924378E+02  0.28611303566E+03 -0.51950313743E+03  0.60427804399E+03  0.79223251261E+02 0.  0.
        254    2    1    2    0    0 -0.84447924378E+02 -0.28611303566E+03 -0.20382012854E+04  0.22476376354E+04  0.89923208304E+03 0.  0.
         23    2    4    4    0    0  0.24776432430E+03 -0.61371164264E+02 -0.16825997999E+04  0.17042606243E+04  0.90601373049E+02 0.  0.
         23    2    4    4    0    0 -0.33221224868E+03 -0.22474187140E+03 -0.35560148550E+03  0.54337701107E+03  0.89063307524E+02 0.  0.
          4    1    3    3  502    0  0.57608446984E+02  0.20116898779E+03 -0.42885569359E+03  0.47718434670E+03  0.00000000000E+00 0. -1.
         -3    1    3    3    0  502  0.26839477394E+02  0.84944047869E+02 -0.90647443839E+02  0.12709369728E+03  0.00000000000E+00 0.  1.
         13    1    5    5    0    0  0.40867500293E+02  0.50869082995E+00 -0.53220368266E+03  0.53377071031E+03  0.00000000000E+00 0. -1.
        -13    1    5    5    0    0  0.20689682401E+03 -0.61879855094E+02 -0.11503961172E+04  0.11704899140E+04  0.00000000000E+00 0.  1.
          3    1    6    6  503    0 -0.31614598918E+02 -0.33897662448E+02 -0.82539138063E+02  0.94663845772E+02  0.00000000000E+00 0. -1.
         -3    1    6    6    0  503 -0.30059764976E+03 -0.19084420895E+03 -0.27306234743E+03  0.44871316530E+03  0.00000000000E+00 0.  1.
<mgrwt>
<rscale>  0 0.12615749E+04</rscale>
<asrwt>0</asrwt>
<pdfrwt beam="1">  1        2 0.41612465E+00 0.12615749E+04</pdfrwt>
<pdfrwt beam="2">  1       -1 0.22631633E-01 0.12615749E+04</pdfrwt>
<totfact> 0.49413446E+01</totfact>
</mgrwt>
</event>
<event>
12    7  0.1637954E-007  0.1609747E+04  0.7818608E-02  0.8814582E-01
         -1   -1    0    0    0  501 -0.00000000000E+00  0.00000000000E+00  0.40940640380E+03  0.40940640380E+03  0.00000000000E+00 0.  1.
          2   -1    0    0  501    0  0.00000000000E+00 -0.00000000000E+00 -0.15823427154E+04  0.15823427154E+04  0.00000000000E+00 0. -1.
         24    2    1    2    0    0 -0.53668748478E+03  0.46190101421E+02 -0.27252710769E+03  0.60846266428E+03  0.76084213975E+02 0.  0.
        254    2    1    2    0    0  0.53668748478E+03 -0.46190101421E+02 -0.90040920393E+03  0.13832864549E+04  0.90143091811E+03 0.  0.
         23    2    4    4    0    0  0.31036278927E+03  0.43033176309E+02  0.10663903203E+03  0.34299736722E+03  0.89991085898E+02 0.  0.
         23    2    4    4    0    0  0.22632469551E+03 -0.89223277730E+02 -0.10070482360E+04  0.10402890877E+04  0.94189040751E+02 0.  0.
          2    1    3    3  502    0 -0.18342411758E+03  0.11129745768E+02 -0.13383752671E+03  0.22733403112E+03  0.00000000000E+00 0. -1.
         -1    1    3    3    0  502 -0.35326336720E+03  0.35060355653E+02 -0.13868958098E+03  0.38112863316E+03  0.00000000000E+00 0.  1.
         13    1    5    5    0    0  0.18403726597E+03  0.25730796570E+02  0.15910514123E+02  0.18650719455E+03  0.00000000000E+00 0. -1.
        -13    1    5    5    0    0  0.12632552330E+03  0.17302379739E+02  0.90728517909E+02  0.15649017267E+03  0.00000000000E+00 0.  1.
          4    1    6    6  503    0  0.44951013026E+02 -0.39031450482E+02 -0.40957158599E+03  0.41387550271E+03  0.00000000000E+00 0. -1.
         -4    1    6    6    0  503  0.18137368248E+03 -0.50191827248E+02 -0.59747664998E+03  0.62641358501E+03  0.00000000000E+00 0.  1.
<mgrwt>
<rscale>  0 0.16097469E+04</rscale>
<asrwt>0</asrwt>
<pdfrwt beam="1">  1        2 0.24343735E+00 0.16097469E+04</pdfrwt>
<pdfrwt beam="2">  1       -1 0.62985599E-01 0.16097469E+04</pdfrwt>
<totfact> 0.31843527E+01</totfact>
</mgrwt>
</event>
<event>
12    7  0.1637954E-007  0.1321478E+04  0.7818608E-02  0.9012705E-01
         -3   -1    0    0    0  501 -0.00000000000E+00  0.00000000000E+00  0.40209143819E+03  0.40209143819E+03  0.00000000000E+00 0.  1.
          4   -1    0    0  501    0  0.00000000000E+00 -0.00000000000E+00 -0.10857622837E+04  0.10857622837E+04  0.00000000000E+00 0. -1.
         24    2    1    2    0    0  0.23155921272E+03 -0.21547695976E+03 -0.34119319085E+03  0.47569388634E+03  0.99105453111E+02 0.  0.
        254    2    1    2    0    0 -0.23155921272E+03  0.21547695976E+03 -0.34247765470E+03  0.10121598356E+04  0.89840224823E+03 0.  0.
         23    2    4    4    0    0 -0.49518467947E+03  0.18514608447E+03 -0.46125722007E+03  0.70762769511E+03  0.92150922117E+02 0.  0.
         23    2    4    4    0    0  0.26362546675E+03  0.30330875291E+02  0.11877956537E+03  0.30453214048E+03  0.90625000507E+02 0.  0.
          2    1    3    3  502    0  0.17580363850E+03 -0.19710247229E+03 -0.31592216448E+03  0.41178042438E+03  0.00000000000E+00 0. -1.
         -1    1    3    3    0  502  0.55755574214E+02 -0.18374487471E+02 -0.25271026371E+02  0.63913461959E+02  0.00000000000E+00 0.  1.
         13    1    5    5    0    0 -0.23027413657E+03  0.89227855041E+02 -0.27640639240E+03  0.37065925301E+03  0.00000000000E+00 0. -1.
        -13    1    5    5    0    0 -0.26491054291E+03  0.95918229428E+02 -0.18485082767E+03  0.33696844210E+03  0.00000000000E+00 0.  1.
          3    1    6    6  503    0  0.14062288139E+03  0.30674459483E+02  0.11012120592E+03  0.18122471473E+03  0.00000000000E+00 0. -1.
         -3    1    6    6    0  503  0.12300258537E+03 -0.34358419141E+00  0.86583594477E+01  0.12330742575E+03  0.00000000000E+00 0.  1.
<mgrwt>
<rscale>  0 0.13214775E+04</rscale>
<asrwt>0</asrwt>
<pdfrwt beam="1">  1        4 0.16704035E+00 0.13214775E+04</pdfrwt>
<pdfrwt beam="2">  1       -3 0.61860221E-01 0.13214775E+04</pdfrwt>
<totfact> 0.12645583E+00</totfact>
</mgrwt>
</event>
<event>
12    7  0.1637954E-007  0.2176796E+04  0.7818608E-02  0.8528148E-01
         -1   -1    0    0    0  501 -0.00000000000E+00  0.00000000000E+00  0.30136410196E+03  0.30136410196E+03  0.00000000000E+00 0.  1.
          2   -1    0    0  501    0  0.00000000000E+00 -0.00000000000E+00 -0.39308283160E+04  0.39308283160E+04  0.00000000000E+00 0. -1.
         24    2    1    2    0    0 -0.62542777208E+03  0.64442122735E+03 -0.14439698936E+04  0.17025446046E+04  0.84678573321E+02 0.  0.
        254    2    1    2    0    0  0.62542777208E+03 -0.64442122735E+03 -0.21854943205E+04  0.25296478133E+04  0.90348991053E+03 0.  0.
         23    2    4    4    0    0 -0.16114201409E+03  0.76010706185E+02 -0.38705737481E+03  0.43662067225E+03  0.95288109857E+02 0.  0.
         23    2    4    4    0    0  0.78656978618E+03 -0.72043193354E+03 -0.17984369456E+04  0.20930271411E+04  0.93128762942E+02 0.  0.
          2    1    3    3  502    0 -0.52840385425E+03  0.58248934945E+03 -0.12769781912E+04  0.14997259003E+04  0.00000000000E+00 0. -1.
         -1    1    3    3    0  502 -0.97023917832E+02  0.61931877902E+02 -0.16699170242E+03  0.20281870429E+03  0.00000000000E+00 0.  1.
         13    1    5    5    0    0 -0.23406246260E+02  0.57676592645E+02 -0.13892197495E+03  0.15222929031E+03  0.00000000000E+00 0. -1.
        -13    1    5    5    0    0 -0.13773576783E+03  0.18334113540E+02 -0.24813539986E+03  0.28439138195E+03  0.00000000000E+00 0.  1.
          1    1    6    6  503    0  0.65525710550E+02 -0.92764532013E+02 -0.16249960326E+03  0.19825488191E+03  0.00000000000E+00 0. -1.
         -1    1    6    6    0  503  0.72104407563E+03 -0.62766740152E+03 -0.16359373424E+04  0.18947722592E+04  0.00000000000E+00 0.  1.
<mgrwt>
<rscale>  0 0.21767963E+04</rscale>
<asrwt>0</asrwt>
<pdfrwt beam="1">  1        2 0.60474281E+00 0.21767963E+04</pdfrwt>
<pdfrwt beam="2">  1       -1 0.46363709E-01 0.21767963E+04</pdfrwt>
<totfact> 0.18887427E+00</totfact>
</mgrwt>
</event>
<event>
12    7  0.1637954E-007  0.2467174E+04  0.7818608E-02  0.8414774E-01
          4   -1    0    0  501    0  0.00000000000E+00  0.00000000000E+00  0.85316772216E+03  0.85316772216E+03  0.00000000000E+00 0. -1.
         -3   -1    0    0    0  501 -0.00000000000E+00 -0.00000000000E+00 -0.17836309370E+04  0.17836309370E+04  0.00000000000E+00 0.  1.
         24    2    1    2    0    0 -0.30450875381E+03 -0.67649485684E+03  0.40429825831E+03  0.84825980947E+03  0.75609193930E+02 0.  0.
        254    2    1    2    0    0  0.30450875381E+03  0.67649485684E+03 -0.13347614731E+04  0.17885388497E+04  0.93108117485E+03 0.  0.
         23    2    4    4    0    0 -0.67445158990E+00  0.83041592340E+03 -0.94609440757E+03  0.12629691204E+04  0.10200642333E+03 0.  0.
         23    2    4    4    0    0  0.30518320540E+03 -0.15392106656E+03 -0.38866706555E+03  0.52556972923E+03  0.91285096585E+02 0.  0.
          2    1    3    3  502    0 -0.30883742514E+03 -0.67015709720E+03  0.39838596757E+03  0.83857168403E+03  0.00000000000E+00 0. -1.
         -3    1    3    3    0  502  0.43286713308E+01 -0.63377596380E+01  0.59122907392E+01  0.96881254381E+01  0.00000000000E+00 0.  1.
         13    1    5    5    0    0 -0.25040007492E+02  0.99840865042E+02 -0.85352464124E+02  0.13371702749E+03  0.00000000000E+00 0. -1.
        -13    1    5    5    0    0  0.24365555903E+02  0.73057505836E+03 -0.86074194345E+03  0.11292520929E+04  0.00000000000E+00 0.  1.
          3    1    6    6  503    0  0.50720794093E+02 -0.61667548408E+02 -0.60484364870E+02  0.10016907643E+03  0.00000000000E+00 0. -1.
         -3    1    6    6    0  503  0.25446241131E+03 -0.92253518151E+02 -0.32818270068E+03  0.42540065280E+03  0.00000000000E+00 0.  1.
<mgrwt>
<rscale>  0 0.24671736E+04</rscale>
<asrwt>0</asrwt>
<pdfrwt beam="1">  1        4 0.13125657E+00 0.24671736E+04</pdfrwt>
<pdfrwt beam="2">  1       -3 0.27440476E+00 0.24671736E+04</pdfrwt>
<totfact> 0.45650321E-02</totfact>
</mgrwt>
</event>
<event>
12    7  0.1637954E-007  0.2728654E+04  0.7818608E-02  0.8325767E-01
         -1   -1    0    0    0  501 -0.00000000000E+00  0.00000000000E+00  0.20400313777E+04  0.20400313777E+04  0.00000000000E+00 0.  1.
          4   -1    0    0  501    0  0.00000000000E+00 -0.00000000000E+00 -0.91243119778E+03  0.91243119778E+03  0.00000000000E+00 0. -1.
         24    2    1    2    0    0 -0.47835627128E+03  0.16740051439E+03  0.17109501425E+04  0.17862333679E+04  0.80197258060E+02 0.  0.
        254    2    1    2    0    0  0.47835627128E+03 -0.16740051439E+03 -0.58334996251E+03  0.11662292076E+04  0.87346764759E+03 0.  0.
         23    2    4    4    0    0  0.24218938472E+03 -0.51595514222E+03 -0.35469565782E+03  0.67888288371E+03  0.10103243674E+03 0.  0.
         23    2    4    4    0    0  0.23616688655E+03  0.34855462783E+03 -0.22865430469E+03  0.48734632387E+03  0.89210545632E+02 0.  0.
          4    1    3    3  502    0 -0.44657275853E+02  0.20271210693E+02  0.26463404175E+03  0.26914005708E+03  0.00000000000E+00 0. -1.
         -3    1    3    3    0  502 -0.43369899542E+03  0.14712930369E+03  0.14463161007E+04  0.15170933109E+04  0.00000000000E+00 0.  1.
         13    1    5    5    0    0  0.19419788592E+03 -0.43781307516E+03 -0.33663236328E+03  0.58541818872E+03  0.00000000000E+00 0. -1.
        -13    1    5    5    0    0  0.47991498801E+02 -0.78142067054E+02 -0.18063294541E+02  0.93464694994E+02  0.00000000000E+00 0.  1.
          4    1    6    6  503    0  0.11636495497E+03  0.22782167456E+03 -0.10253224817E+03  0.27560185061E+03  0.00000000000E+00 0. -1.
         -4    1    6    6    0  503  0.11980193158E+03  0.12073295327E+03 -0.12612205652E+03  0.21174447327E+03  0.00000000000E+00 0.  1.
<mgrwt>
<rscale>  0 0.27286541E+04</rscale>
<asrwt>0</asrwt>
<pdfrwt beam="1">  1        4 0.14037403E+00 0.27286541E+04</pdfrwt>
<pdfrwt beam="2">  1       -1 0.31385098E+00 0.27286541E+04</pdfrwt>
<totfact> 0.34655511E-02</totfact>
</mgrwt>
</event>
<event>
12    7  0.1637954E-007  0.2188775E+04  0.7818608E-02  0.8523115E-01
          2   -1    0    0  501    0  0.00000000000E+00  0.00000000000E+00  0.19661100678E+04  0.19661100678E+04  0.00000000000E+00 0. -1.
         -1   -1    0    0    0  501 -0.00000000000E+00 -0.00000000000E+00 -0.60916434424E+03  0.60916434424E+03  0.00000000000E+00 0.  1.
         24    2    1    2    0    0  0.37148877165E+03 -0.53854061462E+03 -0.17693210884E+03  0.68262432380E+03  0.81492915370E+02 0.  0.
        254    2    1    2    0    0 -0.37148877165E+03  0.53854061462E+03  0.15338778324E+04  0.18926500882E+04  0.89516101945E+03 0.  0.
         23    2    4    4    0    0  0.55411883712E+02  0.55469322573E+03  0.12487845032E+04  0.13707265136E+04  0.93131026027E+02 0.  0.
         23    2    4    4    0    0 -0.42690065536E+03 -0.16152611115E+02  0.28509332918E+03  0.52192357467E+03  0.92848990625E+02 0.  0.
          4    1    3    3  502    0  0.18732260602E+03 -0.32674390450E+03 -0.12755551235E+03  0.39764525219E+03  0.00000000000E+00 0. -1.
         -3    1    3    3    0  502  0.18416616563E+03 -0.21179671012E+03 -0.49376596483E+02  0.28497907162E+03  0.00000000000E+00 0.  1.
         13    1    5    5    0    0  0.38533470307E+01  0.16809672935E+02  0.96612658276E+02  0.98139793797E+02  0.00000000000E+00 0. -1.
        -13    1    5    5    0    0  0.51558536681E+02  0.53788355280E+03  0.11521718449E+04  0.12725867198E+04  0.00000000000E+00 0.  1.
          2    1    6    6  503    0 -0.37095519468E+03  0.18122686249E+02  0.23698356336E+03  0.44056486188E+03  0.00000000000E+00 0. -1.
         -2    1    6    6    0  503 -0.55945460677E+02 -0.34275297364E+02  0.48109765820E+02  0.81358712791E+02  0.00000000000E+00 0.  1.
<mgrwt>
<rscale>  0 0.21887751E+04</rscale>
<asrwt>0</asrwt>
<pdfrwt beam="1">  1        2 0.30247847E+00 0.21887751E+04</pdfrwt>
<pdfrwt beam="2">  1       -1 0.93717592E-01 0.21887751E+04</pdfrwt>
<totfact> 0.80212810E+00</totfact>
</mgrwt>
</event>
<event>
12    7  0.1637954E-007  0.1503724E+04  0.7818608E-02  0.8881980E-01
          2   -1    0    0  501    0  0.00000000000E+00  0.00000000000E+00  0.94501935031E+03  0.94501935031E+03  0.00000000000E+00 0. -1.
         -1   -1    0    0    0  501 -0.00000000000E+00 -0.00000000000E+00 -0.59818508977E+03  0.59818508977E+03  0.00000000000E+00 0.  1.
         24    2    1    2    0    0  0.34702409225E+03 -0.27657954331E+03 -0.74717284490E+02  0.45708074521E+03  0.80113486120E+02 0.  0.
        254    2    1    2    0    0 -0.34702409225E+03  0.27657954331E+03  0.42155154502E+03  0.10861236949E+04  0.89723854747E+03 0.  0.
         23    2    4    4    0    0 -0.33321611356E+03  0.44306694025E+03  0.59989923576E+03  0.82204631894E+03  0.92410851802E+02 0.  0.
         23    2    4    4    0    0 -0.13807978686E+02 -0.16648739694E+03 -0.17834769073E+03  0.26407737593E+03  0.10010118918E+03 0.  0.
          2    1    3    3  502    0  0.87134024912E+02 -0.69874003857E+02 -0.54813223075E+02  0.12441544975E+03  0.00000000000E+00 0. -1.
         -1    1    3    3    0  502  0.25989006733E+03 -0.20670553946E+03 -0.19904061414E+02  0.33266529546E+03  0.00000000000E+00 0.  1.
         13    1    5    5    0    0 -0.47947993717E+02  0.67371360564E+02  0.46472557155E+02  0.94855726734E+02  0.00000000000E+00 0.  1.
        -13    1    5    5    0    0 -0.28526811984E+03  0.37569557969E+03  0.55342667860E+03  0.72719059220E+03  0.00000000000E+00 0. -1.
          2    1    6    6  503    0 -0.21876180877E+01 -0.77493972414E+02 -0.15185600385E+03  0.17050028545E+03  0.00000000000E+00 0. -1.
         -2    1    6    6    0  503 -0.11620360599E+02 -0.88993424526E+02 -0.26491686882E+02  0.93577090483E+02  0.00000000000E+00 0.  1.
<mgrwt>
<rscale>  0 0.15037240E+04</rscale>
<asrwt>0</asrwt>
<pdfrwt beam="1">  1        2 0.14538759E+00 0.15037240E+04</pdfrwt>
<pdfrwt beam="2">  1       -1 0.92028476E-01 0.15037240E+04</pdfrwt>
<totfact> 0.34676182E+01</totfact>
</mgrwt>
</event>
<event>
12    7  0.1637954E-007  0.1472602E+04  0.7818608E-02  0.8902880E-01
          2   -1    0    0  501    0  0.00000000000E+00  0.00000000000E+00  0.22727146019E+04  0.22727146019E+04  0.00000000000E+00 0. -1.
         -1   -1    0    0    0  501 -0.00000000000E+00 -0.00000000000E+00 -0.23854241690E+03  0.23854241690E+03  0.00000000000E+00 0.  1.
         24    2    1    2    0    0  0.45158750745E+03  0.82988098593E+02  0.57145543198E+03  0.73762086340E+03  0.81883612442E+02 0.  0.
        254    2    1    2    0    0 -0.45158750745E+03 -0.82988098593E+02  0.14627167530E+04  0.17736361554E+04  0.89186692437E+03 0.  0.
         23    2    4    4    0    0 -0.16502805775E+03 -0.80479350903E+02 -0.65231212905E+02  0.21643996436E+03  0.94233546404E+02 0.  0.
         23    2    4    4    0    0 -0.28655944971E+03 -0.25087476895E+01  0.15279479659E+04  0.15571961910E+04  0.90068744857E+02 0.  0.
          2    1    3    3  502    0  0.11003206136E+03  0.26676073240E+02  0.20034174594E+03  0.23012058269E+03  0.00000000000E+00 0. -1.
         -1    1    3    3    0  502  0.34155544609E+03  0.56312025353E+02  0.37111368604E+03  0.50750028071E+03  0.00000000000E+00 0.  1.
         13    1    5    5    0    0 -0.52489075822E+02 -0.55233691095E+02  0.12694757467E+02  0.77246492346E+02  0.00000000000E+00 0. -1.
        -13    1    5    5    0    0 -0.11253898192E+03 -0.25245659808E+02 -0.77925970372E+02  0.13919347201E+03  0.00000000000E+00 0.  1.
          1    1    6    6  503    0 -0.35270150872E+02  0.30320095007E+02  0.26961091466E+03  0.27359337895E+03  0.00000000000E+00 0. -1.
         -1    1    6    6    0  503 -0.25128929883E+03 -0.32828842697E+02  0.12583370513E+04  0.12836028121E+04  0.00000000000E+00 0.  1.
<mgrwt>
<rscale>  0 0.14726016E+04</rscale>
<asrwt>0</asrwt>
<pdfrwt beam="1">  1        2 0.34964839E+00 0.14726016E+04</pdfrwt>
<pdfrwt beam="2">  1       -1 0.36698835E-01 0.14726016E+04</pdfrwt>
<totfact> 0.36967517E+01</totfact>
</mgrwt>
</event>
<event>
12    7  0.1637954E-007  0.1661744E+04  0.7818608E-02  0.8783489E-01
          2   -1    0    0  501    0  0.00000000000E+00  0.00000000000E+00  0.19911411015E+04  0.19911411015E+04  0.00000000000E+00 0. -1.
         -1   -1    0    0    0  501 -0.00000000000E+00 -0.00000000000E+00 -0.34670978043E+03  0.34670978043E+03  0.00000000000E+00 0.  1.
         24    2    1    2    0    0 -0.81266548735E+02  0.52179864394E+03  0.24064086360E+03  0.58553623498E+03  0.77888256400E+02 0.  0.
        254    2    1    2    0    0  0.81266548735E+02 -0.52179864394E+03  0.14037904575E+04  0.17523146469E+04  0.90614617840E+03 0.  0.
         23    2    4    4    0    0  0.39516434983E+03 -0.27081479220E+03  0.29661992940E+03  0.57083574943E+03  0.91512596141E+02 0.  0.
         23    2    4    4    0    0 -0.31389780110E+03 -0.25098385174E+03  0.11071705281E+04  0.11814788975E+04  0.92417983495E+02 0.  0.
          2    1    3    3  502    0 -0.70543466211E+02  0.39798572980E+03  0.21794376571E+03  0.45920421030E+03  0.00000000000E+00 0. -1.
         -1    1    3    3    0  502 -0.10723082524E+02  0.12381291414E+03  0.22697097884E+02  0.12633202468E+03  0.00000000000E+00 0.  1.
         13    1    5    5    0    0  0.27039572846E+03 -0.20521563640E+03  0.16280959047E+03  0.37647612161E+03  0.00000000000E+00 0. -1.
        -13    1    5    5    0    0  0.12476862137E+03 -0.65599155797E+02  0.13381033893E+03  0.19435962781E+03  0.00000000000E+00 0.  1.
          2    1    6    6  503    0 -0.25105529243E+03 -0.24104075092E+03  0.96013401222E+03  0.10212672152E+04  0.00000000000E+00 0. -1.
         -2    1    6    6    0  503 -0.62842508675E+02 -0.99431008227E+01  0.14703651583E+03  0.16021168228E+03  0.00000000000E+00 0.  1.
<mgrwt>
<rscale>  0 0.16617438E+04</rscale>
<asrwt>0</asrwt>
<pdfrwt beam="1">  1        2 0.30632939E+00 0.16617438E+04</pdfrwt>
<pdfrwt beam="2">  1       -1 0.53339967E-01 0.16617438E+04</pdfrwt>
<totfact> 0.26047504E+01</totfact>
</mgrwt>
</event>
<event>
12    7  0.1637954E-007  0.1451792E+04  0.7818608E-02  0.8917159E-01
          2   -1    0    0  501    0  0.00000000000E+00  0.00000000000E+00  0.12234504462E+04  0.12234504462E+04  0.00000000000E+00 0. -1.
         -1   -1    0    0    0  501 -0.00000000000E+00 -0.00000000000E+00 -0.43068743750E+03  0.43068743750E+03  0.00000000000E+00 0.  1.
         24    2    1    2    0    0 -0.77096352448E+02 -0.11191551817E+03 -0.23864105983E+03  0.28604768647E+03  0.80029948970E+02 0.  0.
        254    2    1    2    0    0  0.77096352448E+02  0.11191551817E+03  0.10314040685E+04  0.13680901972E+04  0.88848607440E+03 0.  0.
         23    2    4    4    0    0 -0.91187563779E+02 -0.36129928650E+03  0.50931435251E+03  0.63785106145E+03  0.92738992345E+02 0.  0.
         23    2    4    4    0    0  0.16828391623E+03  0.47321480467E+03  0.52208971603E+03  0.73023913579E+03  0.91759446576E+02 0.  0.
          2    1    3    3  502    0 -0.82167697006E+02 -0.51264630146E+02 -0.14565579273E+03  0.17491484411E+03  0.00000000000E+00 0. -1.
         -1    1    3    3    0  502  0.50713445572E+01 -0.60650888020E+02 -0.92985267096E+02  0.11113284236E+03  0.00000000000E+00 0.  1.
         13    1    5    5    0    0 -0.78253087843E+00 -0.14814395255E+03  0.15343649014E+03  0.21328384735E+03  0.00000000000E+00 0.  1.
        -13    1    5    5    0    0 -0.90405032900E+02 -0.21315533396E+03  0.35587786237E+03  0.42456721410E+03  0.00000000000E+00 0. -1.
          1    1    6    6  503    0  0.15565511615E+03  0.47193598901E+03  0.51514636592E+03  0.71577082312E+03  0.00000000000E+00 0. -1.
         -1    1    6    6    0  503  0.12628800077E+02  0.12788156618E+01  0.69433501114E+01  0.14468312674E+02  0.00000000000E+00 0.  1.
<mgrwt>
<rscale>  0 0.14517916E+04</rscale>
<asrwt>0</asrwt>
<pdfrwt beam="1">  1        2 0.18822314E+00 0.14517916E+04</pdfrwt>
<pdfrwt beam="2">  1       -1 0.66259606E-01 0.14517916E+04</pdfrwt>
<totfact> 0.46804112E+01</totfact>
</mgrwt>
</event>
<event>
12    7  0.1637954E-007  0.1233412E+04  0.7818608E-02  0.9084103E-01
          2   -1    0    0  501    0  0.00000000000E+00  0.00000000000E+00  0.53697296852E+03  0.53697296852E+03  0.00000000000E+00 0. -1.
         -1   -1    0    0    0  501 -0.00000000000E+00 -0.00000000000E+00 -0.70827849279E+03  0.70827849279E+03  0.00000000000E+00 0.  1.
         24    2    1    2    0    0  0.21080971680E+03  0.42958886541E+02 -0.22041676449E+03  0.31843232840E+03  0.80804672346E+02 0.  0.
        254    2    1    2    0    0 -0.21080971680E+03 -0.42958886541E+02  0.49111240214E+02  0.92681913291E+03  0.90016420090E+03 0.  0.
         23    2    4    4    0    0 -0.21177586869E+03  0.28698896761E+03 -0.27117700934E+03  0.45731590155E+03  0.91592452295E+02 0.  0.
         23    2    4    4    0    0  0.96615188991E+00 -0.32994785415E+03  0.32028824956E+03  0.46950323137E+03  0.94774477304E+02 0.  0.
          4    1    3    3  502    0  0.15301204266E+02 -0.18905316186E+02 -0.29724273805E+02  0.38406643765E+02  0.00000000000E+00 0. -1.
         -3    1    3    3    0  502  0.19550851254E+03  0.61864202727E+02 -0.19069249068E+03  0.28002568464E+03  0.00000000000E+00 0.  1.
         13    1    5    5    0    0 -0.18743677007E+03  0.26299471317E+03 -0.27329755235E+03  0.42307246902E+03  0.00000000000E+00 0.  1.
        -13    1    5    5    0    0 -0.24339098626E+02  0.23994254446E+02  0.21205430012E+01  0.34243432523E+02  0.00000000000E+00 0. -1.
          2    1    6    6  503    0  0.80550886209E+01 -0.14174579974E+03  0.20269315152E+03  0.24746973526E+03  0.00000000000E+00 0.  1.
         -2    1    6    6    0  503 -0.70889367310E+01 -0.18820205442E+03  0.11759509803E+03  0.22203349610E+03  0.00000000000E+00 0. -1.
<mgrwt>
<rscale>  0 0.12334122E+04</rscale>
<asrwt>0</asrwt>
<pdfrwt beam="1">  1        2 0.82611226E-01 0.12334122E+04</pdfrwt>
<pdfrwt beam="2">  1       -1 0.10896592E+00 0.12334122E+04</pdfrwt>
<totfact> 0.49779865E+01</totfact>
</mgrwt>
</event>
<event>
12    7  0.1637954E-007  0.1775593E+04  0.7818608E-02  0.8719387E-01
         -1   -1    0    0    0  501 -0.00000000000E+00  0.00000000000E+00  0.56867523632E+03  0.56867523632E+03  0.00000000000E+00 0.  1.
          2   -1    0    0  501    0  0.00000000000E+00 -0.00000000000E+00 -0.13859983530E+04  0.13859983530E+04  0.00000000000E+00 0. -1.
         24    2    1    2    0    0 -0.65399408938E+03  0.95073510656E+02 -0.24610709143E+03  0.70969360347E+03  0.79681045279E+02 0.  0.
        254    2    1    2    0    0  0.65399408938E+03 -0.95073510656E+02 -0.57121602526E+03  0.12449799859E+04  0.88709648647E+03 0.  0.
         23    2    4    4    0    0  0.64358622326E+02 -0.22209900377E+03  0.15719297796E+03  0.29489567321E+03  0.93722067930E+02 0.  0.
         23    2    4    4    0    0  0.58963546705E+03  0.12702549311E+03 -0.72840900322E+03  0.95008431265E+03  0.90967385685E+02 0.  0.
          4    1    3    3  502    0 -0.74535495140E+02 -0.57554520227E+01 -0.80927287523E+01  0.75194132234E+02  0.00000000000E+00 0. -1.
         -3    1    3    3    0  502 -0.57945859424E+03  0.10082896268E+03 -0.23801436268E+03  0.63449947123E+03  0.00000000000E+00 0.  1.
         13    1    5    5    0    0 -0.21442286789E+02 -0.64131635010E+02  0.26433725951E+02  0.72604270808E+02  0.00000000000E+00 0.  1.
        -13    1    5    5    0    0  0.85800909115E+02 -0.15796736876E+03  0.13075925201E+03  0.22229140240E+03  0.00000000000E+00 0. -1.
          4    1    6    6  503    0  0.82715680101E+02 -0.59693758603E+01 -0.13447174859E+03  0.15798787407E+03  0.00000000000E+00 0.  1.
         -4    1    6    6    0  503  0.50691978695E+03  0.13299486897E+03 -0.59393725463E+03  0.79209643858E+03  0.00000000000E+00 0. -1.
<mgrwt>
<rscale>  0 0.17755934E+04</rscale>
<asrwt>0</asrwt>
<pdfrwt beam="1">  1        2 0.21323051E+00 0.17755934E+04</pdfrwt>
<pdfrwt beam="2">  1       -1 0.87488499E-01 0.17755934E+04</pdfrwt>
<totfact> 0.20430926E+01</totfact>
</mgrwt>
</event>
<event>
12    7  0.1637954E-007  0.1470627E+04  0.7818608E-02  0.8904224E-01
         -1   -1    0    0    0  501 -0.00000000000E+00  0.00000000000E+00  0.43346780755E+03  0.43346780755E+03  0.00000000000E+00 0.  1.
          2   -1    0    0  501    0  0.00000000000E+00 -0.00000000000E+00 -0.12473495438E+04  0.12473495438E+04  0.00000000000E+00 0. -1.
         24    2    1    2    0    0 -0.33394904559E+03  0.13737490965E+03 -0.57872062168E+03  0.68680717827E+03  0.79954432774E+02 0.  0.
        254    2    1    2    0    0  0.33394904559E+03 -0.13737490965E+03 -0.23516111456E+03  0.99401017306E+03  0.89574641695E+03 0.  0.
         23    2    4    4    0    0  0.54809555135E+03 -0.28790185591E+03  0.85474022976E+01  0.62494798989E+03  0.84798112781E+02 0.  0.
         23    2    4    4    0    0 -0.21414650576E+03  0.15052694626E+03 -0.24370851686E+03  0.36906218317E+03  0.91082195699E+02 0.  0.
          4    1    3    3  502    0 -0.60031752989E+01 -0.87263186395E+01 -0.12814023845E+02  0.16624859632E+02  0.00000000000E+00 0. -1.
         -3    1    3    3    0  502 -0.32794587029E+03  0.14610122829E+03 -0.56590659783E+03  0.67018231864E+03  0.00000000000E+00 0.  1.
         13    1    5    5    0    0  0.33444025132E+03 -0.18872392889E+03  0.44813591363E+02  0.38662030600E+03  0.00000000000E+00 0.  1.
        -13    1    5    5    0    0  0.21365530003E+03 -0.99177927026E+02 -0.36266189066E+02  0.23832768389E+03  0.00000000000E+00 0. -1.
          2    1    6    6  503    0 -0.19957404852E+03  0.12063926230E+03 -0.17121419939E+03  0.28930595314E+03  0.00000000000E+00 0. -1.
         -2    1    6    6    0  503 -0.14572457243E+02  0.29887683958E+02 -0.72494317466E+02  0.79756230022E+02  0.00000000000E+00 0.  1.
<mgrwt>
<rscale>  0 0.14706269E+04</rscale>
<asrwt>0</asrwt>
<pdfrwt beam="1">  1        2 0.19189993E+00 0.14706269E+04</pdfrwt>
<pdfrwt beam="2">  1       -1 0.66687355E-01 0.14706269E+04</pdfrwt>
<totfact> 0.44648749E+01</totfact>
</mgrwt>
</event>
<event>
12    7  0.1637954E-007  0.1552835E+04  0.7818608E-02  0.8850059E-01
         -1   -1    0    0    0  501 -0.00000000000E+00  0.00000000000E+00  0.23574201393E+03  0.23574201393E+03  0.00000000000E+00 0.  1.
          2   -1    0    0  501    0  0.00000000000E+00 -0.00000000000E+00 -0.25571333347E+04  0.25571333347E+04  0.00000000000E+00 0. -1.
         24    2    1    2    0    0  0.20726358685E+03  0.24023172472E+03 -0.15065626283E+04  0.15416855500E+04  0.79961904157E+02 0.  0.
        254    2    1    2    0    0 -0.20726358685E+03 -0.24023172472E+03 -0.81482869246E+03  0.12511897986E+04  0.89490817301E+03 0.  0.
         23    2    4    4    0    0 -0.25774987797E+03 -0.27347322709E+03  0.40934500814E+02  0.38869474252E+03  0.90473001350E+02 0.  0.
         23    2    4    4    0    0  0.50486291119E+02  0.33241502376E+02 -0.85576319328E+03  0.86249505611E+03  0.88956257613E+02 0.  0.
          2    1    3    3  502    0  0.16764580144E+03  0.21615350422E+03 -0.13811485219E+04  0.14079768079E+04  0.00000000000E+00 0. -1.
         -1    1    3    3    0  502  0.39617785407E+02  0.24078220499E+02 -0.12541410637E+03  0.13370874204E+03  0.00000000000E+00 0.  1.
         13    1    5    5    0    0 -0.19106282208E+00 -0.17693601020E+02  0.17601644441E+02  0.24958323443E+02  0.00000000000E+00 0. -1.
        -13    1    5    5    0    0 -0.25755881514E+03 -0.25577962607E+03  0.23332856373E+02  0.36373641907E+03  0.00000000000E+00 0.  1.
          3    1    6    6  503    0  0.18206283867E+02 -0.42481304792E+01 -0.30661770973E+02  0.35911830697E+02  0.00000000000E+00 0. -1.
         -3    1    6    6    0  503  0.32280007253E+02  0.37489632855E+02 -0.82510142230E+03  0.82658322541E+03  0.00000000000E+00 0.  1.
<mgrwt>
<rscale>  0 0.15528345E+04</rscale>
<asrwt>0</asrwt>
<pdfrwt beam="1">  1        2 0.39340513E+00 0.15528345E+04</pdfrwt>
<pdfrwt beam="2">  1       -1 0.36268002E-01 0.15528345E+04</pdfrwt>
<totfact> 0.25792426E+01</totfact>
</mgrwt>
</event>
<event>
12    7  0.1637954E-007  0.1552439E+04  0.7818608E-02  0.8850312E-01
         -1   -1    0    0    0  501 -0.00000000000E+00  0.00000000000E+00  0.18319158071E+03  0.18319158071E+03  0.00000000000E+00 0.  1.
          2   -1    0    0  501    0  0.00000000000E+00 -0.00000000000E+00 -0.32889959979E+04  0.32889959979E+04  0.00000000000E+00 0. -1.
         24    2    1    2    0    0 -0.18232637983E+03 -0.29268965667E+03 -0.18556835390E+04  0.18891550388E+04  0.80219821739E+02 0.  0.
        254    2    1    2    0    0  0.18232637983E+03  0.29268965667E+03 -0.12501208781E+04  0.15830325398E+04  0.90789848997E+03 0.  0.
         23    2    4    4    0    0  0.11423770940E+03 -0.31714325564E+03 -0.41330412550E+03  0.54146353577E+03  0.93447105678E+02 0.  0.
         23    2    4    4    0    0  0.68088670432E+02  0.60983291232E+03 -0.83681675264E+03  0.10415690040E+04  0.89841330185E+02 0.  0.
          4    1    3    3  502    0 -0.12650932432E+03 -0.23550786071E+03 -0.15658810711E+04  0.15885377209E+04  0.00000000000E+00 0. -1.
         -3    1    3    3    0  502 -0.55817055514E+02 -0.57181795960E+02 -0.28980246785E+03  0.30061731794E+03  0.00000000000E+00 0.  1.
         13    1    5    5    0    0  0.43067019164E+02 -0.22466530670E+03 -0.31236775565E+03  0.38717293674E+03  0.00000000000E+00 0. -1.
        -13    1    5    5    0    0  0.71170690235E+02 -0.92477948947E+02 -0.10093636986E+03  0.15429059903E+03  0.00000000000E+00 0.  1.
          3    1    6    6  503    0  0.89893479742E+02  0.49715643238E+03 -0.69148663495E+03  0.85638725018E+03  0.00000000000E+00 0. -1.
         -3    1    6    6    0  503 -0.21804809311E+02  0.11267647994E+03 -0.14533011769E+03  0.18518175382E+03  0.00000000000E+00 0.  1.
<mgrwt>
<rscale>  0 0.15524386E+04</rscale>
<asrwt>0</asrwt>
<pdfrwt beam="1">  1        2 0.50599932E+00 0.15524386E+04</pdfrwt>
<pdfrwt beam="2">  1       -1 0.28183323E-01 0.15524386E+04</pdfrwt>
<totfact> 0.14272919E+01</totfact>
</mgrwt>
</event>
<event>
12    7  0.1637954E-007  0.1575875E+04  0.7818608E-02  0.8835507E-01
          2   -1    0    0  501    0  0.00000000000E+00  0.00000000000E+00  0.21654217809E+04  0.21654217809E+04  0.00000000000E+00 0. -1.
         -1   -1    0    0    0  501 -0.00000000000E+00 -0.00000000000E+00 -0.28670885222E+03  0.28670885222E+03  0.00000000000E+00 0.  1.
         24    2    1    2    0    0 -0.49068762047E+03  0.68220159607E+02  0.35324580437E+03  0.61366472200E+03  0.79833963095E+02 0.  0.
        254    2    1    2    0    0  0.49068762047E+03 -0.68220159607E+02  0.15254671243E+04  0.18384659111E+04  0.89859814595E+03 0.  0.
         23    2    4    4    0    0  0.33732410606E+03 -0.11301285226E+03  0.73323875209E+02  0.37464449231E+03  0.91774983732E+02 0.  0.
         23    2    4    4    0    0  0.15336351441E+03  0.44792692649E+02  0.14521432491E+04  0.14638214188E+04  0.92338385041E+02 0.  0.
          4    1    3    3  502    0 -0.27857517436E+03  0.52509765331E+02  0.15590721757E+03  0.32352505887E+03  0.00000000000E+00 0. -1.
         -3    1    3    3    0  502 -0.21211244611E+03  0.15710394276E+02  0.19733858680E+03  0.29013966313E+03  0.00000000000E+00 0.  1.
         13    1    5    5    0    0  0.76988525340E+01 -0.38876225700E+01  0.22028630791E+02  0.23656849201E+02  0.00000000000E+00 0.  1.
        -13    1    5    5    0    0  0.32962525353E+03 -0.10912522969E+03  0.51295244418E+02  0.35098764311E+03  0.00000000000E+00 0. -1.
          2    1    6    6  503    0  0.68958499884E+02  0.98687529783E+01  0.10067822878E+04  0.10091893985E+04  0.00000000000E+00 0. -1.
         -2    1    6    6    0  503  0.84405014525E+02  0.34923939671E+02  0.44536096127E+03  0.45463202028E+03  0.00000000000E+00 0.  1.
<mgrwt>
<rscale>  0 0.15758751E+04</rscale>
<asrwt>0</asrwt>
<pdfrwt beam="1">  1        2 0.33314180E+00 0.15758751E+04</pdfrwt>
<pdfrwt beam="2">  1       -1 0.44109056E-01 0.15758751E+04</pdfrwt>
<totfact> 0.30060491E+01</totfact>
</mgrwt>
</event>
<event>
12    7  0.1637954E-007  0.1808604E+04  0.7818608E-02  0.8701737E-01
         -1   -1    0    0    0  501 -0.00000000000E+00  0.00000000000E+00  0.38794722212E+03  0.38794722212E+03  0.00000000000E+00 0.  1.
          2   -1    0    0  501    0  0.00000000000E+00 -0.00000000000E+00 -0.21079213830E+04  0.21079213830E+04  0.00000000000E+00 0. -1.
         24    2    1    2    0    0  0.24781450376E+02  0.62999148806E+03 -0.99654577513E+03  0.11823188495E+04  0.85270068449E+02 0.  0.
        254    2    1    2    0    0 -0.24781450376E+02 -0.62999148806E+03 -0.72342838579E+03  0.13135497557E+04  0.89697320805E+03 0.  0.
         23    2    4    4    0    0  0.29431313626E+03 -0.32226246175E+03  0.16105672365E+02  0.44630927534E+03  0.91974236282E+02 0.  0.
         23    2    4    4    0    0 -0.31909458664E+03 -0.30772902631E+03 -0.73953405815E+03  0.86724048034E+03  0.93149979682E+02 0.  0.
          2    1    3    3  502    0  0.42598304148E+02  0.58026776140E+03 -0.88850091430E+03  0.10620542195E+04  0.00000000000E+00 0. -1.
         -1    1    3    3    0  502 -0.17816853772E+02  0.49723726663E+02 -0.10804486083E+03  0.12026462998E+03  0.00000000000E+00 0.  1.
         13    1    5    5    0    0  0.22900369142E+03 -0.20543607359E+03  0.40373347872E+02  0.31028483404E+03  0.00000000000E+00 0. -1.
        -13    1    5    5    0    0  0.65309444844E+02 -0.11682638816E+03 -0.24267675507E+02  0.13602444130E+03  0.00000000000E+00 0.  1.
          2    1    6    6  503    0 -0.16560465775E+03 -0.11325083107E+03 -0.39304488373E+03  0.44128781315E+03  0.00000000000E+00 0.  1.
         -2    1    6    6    0  503 -0.15348992889E+03 -0.19447819525E+03 -0.34648917442E+03  0.42595266719E+03  0.00000000000E+00 0. -1.
<mgrwt>
<rscale>  0 0.18086042E+04</rscale>
<asrwt>0</asrwt>
<pdfrwt beam="1">  1        2 0.32429560E+00 0.18086042E+04</pdfrwt>
<pdfrwt beam="2">  1       -1 0.59684188E-01 0.18086042E+04</pdfrwt>
<totfact> 0.17786484E+01</totfact>
</mgrwt>
</event>
<event>
12    7  0.1637954E-007  0.1458826E+04  0.7818608E-02  0.8912304E-01
         -1   -1    0    0    0  501 -0.00000000000E+00  0.00000000000E+00  0.19020741836E+03  0.19020741836E+03  0.00000000000E+00 0.  1.
          2   -1    0    0  501    0  0.00000000000E+00 -0.00000000000E+00 -0.27971760150E+04  0.27971760150E+04  0.00000000000E+00 0. -1.
         24    2    1    2    0    0 -0.11801303497E+03  0.40175426415E+02  0.69361548129E+02  0.16341909047E+03  0.79709682357E+02 0.  0.
        254    2    1    2    0    0  0.11801303497E+03 -0.40175426415E+02 -0.26763301448E+04  0.28239643429E+04  0.89246312235E+03 0.  0.
         23    2    4    4    0    0 -0.15597344770E+03  0.35158203742E+03 -0.93287744539E+03  0.10139932765E+04  0.99921925930E+02 0.  0.
         23    2    4    4    0    0  0.27398648267E+03 -0.39175746383E+03 -0.17434526994E+04  0.18099710664E+04  0.88461533685E+02 0.  0.
          2    1    3    3  502    0 -0.15298385779E+02  0.39488073821E+02  0.35516105306E+02  0.55269723336E+02  0.00000000000E+00 0. -1.
         -1    1    3    3    0  502 -0.10271464919E+03  0.68735259402E+00  0.33845442823E+02  0.10814936714E+03  0.00000000000E+00 0.  1.
         13    1    5    5    0    0 -0.97096084799E+02  0.15020235201E+03 -0.53627130092E+03  0.56530991892E+03  0.00000000000E+00 0. -1.
        -13    1    5    5    0    0 -0.58877362904E+02  0.20137968541E+03 -0.39660614447E+03  0.44868335760E+03  0.00000000000E+00 0.  1.
          1    1    6    6  503    0  0.14958866496E+03 -0.21796784266E+03 -0.79747163271E+03  0.84014745973E+03  0.00000000000E+00 0. -1.
         -1    1    6    6    0  503  0.12439781771E+03 -0.17378962117E+03 -0.94598106672E+03  0.96982360668E+03  0.00000000000E+00 0.  1.
<mgrwt>
<rscale>  0 0.14588264E+04</rscale>
<asrwt>0</asrwt>
<pdfrwt beam="1">  1        2 0.43033476E+00 0.14588264E+04</pdfrwt>
<pdfrwt beam="2">  1       -1 0.29262680E-01 0.14588264E+04</pdfrwt>
<totfact> 0.27470129E+01</totfact>
</mgrwt>
</event>
<event>
12    7  0.1637954E-007  0.1835656E+04  0.7818608E-02  0.8687565E-01
          2   -1    0    0  501    0  0.00000000000E+00  0.00000000000E+00  0.97871077682E+03  0.97871077682E+03  0.00000000000E+00 0. -1.
         -1   -1    0    0    0  501 -0.00000000000E+00 -0.00000000000E+00 -0.86073231138E+03  0.86073231138E+03  0.00000000000E+00 0.  1.
         24    2    1    2    0    0  0.23495239406E+03 -0.60585488125E+03  0.28102764356E+03  0.71248490088E+03  0.79971450727E+02 0.  0.
        254    2    1    2    0    0 -0.23495239406E+03  0.60585488125E+03 -0.16304917812E+03  0.11269581873E+04  0.90619366411E+03 0.  0.
         23    2    4    4    0    0  0.29687589831E+03  0.11536895586E+02 -0.75162292709E+02  0.31944979238E+03  0.90168734345E+02 0.  0.
         23    2    4    4    0    0 -0.53182829237E+03  0.59431798566E+03 -0.87886885413E+02  0.80750839494E+03  0.91052197218E+02 0.  0.
          2    1    3    3  502    0  0.11609017650E+03 -0.35833987828E+03  0.12613659306E+03  0.39723398338E+03  0.00000000000E+00 0. -1.
         -1    1    3    3    0  502  0.11886221756E+03 -0.24751500297E+03  0.15489105051E+03  0.31525091750E+03  0.00000000000E+00 0.  1.
         13    1    5    5    0    0  0.37753339900E+02 -0.25474568491E+02  0.46978397875E+01  0.45785783952E+02  0.00000000000E+00 0.  1.
        -13    1    5    5    0    0  0.25912255841E+03  0.37011464078E+02 -0.79860132497E+02  0.27366400843E+03  0.00000000000E+00 0. -1.
          1    1    6    6  503    0 -0.41267355569E+03  0.41611873689E+03 -0.91278145048E+02  0.59311547486E+03  0.00000000000E+00 0. -1.
         -1    1    6    6    0  503 -0.11915473668E+03  0.17819924877E+03  0.33912596347E+01  0.21439292007E+03  0.00000000000E+00 0.  1.
<mgrwt>
<rscale>  0 0.18356557E+04</rscale>
<asrwt>0</asrwt>
<pdfrwt beam="1">  1        2 0.15057089E+00 0.18356557E+04</pdfrwt>
<pdfrwt beam="2">  1       -1 0.13242036E+00 0.18356557E+04</pdfrwt>
<totfact> 0.13515342E+01</totfact>
</mgrwt>
</event>
<event>
12    7  0.1637954E-007  0.1317066E+04  0.7818608E-02  0.9016140E-01
         -1   -1    0    0    0  501 -0.00000000000E+00  0.00000000000E+00  0.17167725593E+03  0.17167725593E+03  0.00000000000E+00 0.  1.
          2   -1    0    0  501    0  0.00000000000E+00 -0.00000000000E+00 -0.25260515308E+04  0.25260515308E+04  0.00000000000E+00 0. -1.
         24    2    1    2    0    0 -0.42205627908E+02 -0.19544715181E+03 -0.91990659387E+02  0.23469552862E+03  0.81478865742E+02 0.  0.
        254    2    1    2    0    0  0.42205627908E+02  0.19544715181E+03 -0.22623836155E+04  0.24630332581E+04  0.95298074628E+03 0.  0.
         23    2    4    4    0    0 -0.89699823058E+02  0.47488020787E+03 -0.63016678428E+03  0.79933580380E+03  0.90941086078E+02 0.  0.
         23    2    4    4    0    0  0.13190545097E+03 -0.27943305606E+03 -0.16322168312E+04  0.16636974543E+04  0.90970075412E+02 0.  0.
          4    1    3    3  502    0  0.16429364072E+02 -0.93801218029E+01 -0.17804364250E+02  0.25978954467E+02  0.00000000000E+00 0. -1.
         -3    1    3    3    0  502 -0.58634991981E+02 -0.18606703001E+03 -0.74186295137E+02  0.20871657416E+03  0.00000000000E+00 0.  1.
         13    1    5    5    0    0 -0.71043673418E+01  0.10794009929E+03 -0.20417983167E+03  0.23106479769E+03  0.00000000000E+00 0. -1.
        -13    1    5    5    0    0 -0.82595455716E+02  0.36694010858E+03 -0.42598695261E+03  0.56827100611E+03  0.00000000000E+00 0.  1.
          1    1    6    6  503    0  0.45429792322E+02 -0.16301409059E+03 -0.69374192080E+03  0.71408354724E+03  0.00000000000E+00 0. -1.
         -1    1    6    6    0  503  0.86475658643E+02 -0.11641896547E+03 -0.93847491039E+03  0.94961390707E+03  0.00000000000E+00 0.  1.
<mgrwt>
<rscale>  0 0.13170658E+04</rscale>
<asrwt>0</asrwt>
<pdfrwt beam="1">  1        2 0.38862331E+00 0.13170658E+04</pdfrwt>
<pdfrwt beam="2">  1       -1 0.26411886E-01 0.13170658E+04</pdfrwt>
<totfact> 0.47996238E+01</totfact>
</mgrwt>
</event>
<event>
12    7  0.1637954E-007  0.2117830E+04  0.7818608E-02  0.8553429E-01
          2   -1    0    0  501    0  0.00000000000E+00  0.00000000000E+00  0.12174254638E+04  0.12174254638E+04  0.00000000000E+00 0. -1.
         -1   -1    0    0    0  501 -0.00000000000E+00 -0.00000000000E+00 -0.92104315795E+03  0.92104315795E+03  0.00000000000E+00 0.  1.
         24    2    1    2    0    0 -0.34322738284E+03  0.61188309568E+03  0.63767882228E+03  0.95135769549E+03  0.79001425820E+02 0.  0.
        254    2    1    2    0    0  0.34322738284E+03 -0.61188309568E+03 -0.34129651645E+03  0.11871109262E+04  0.89473073040E+03 0.  0.
         23    2    4    4    0    0  0.32915185773E+03 -0.82272802315E+03 -0.34645349490E+03  0.95566179470E+03  0.89649853317E+02 0.  0.
         23    2    4    4    0    0  0.14075525110E+02  0.21084492747E+03  0.51569784456E+01  0.23144913153E+03  0.94278323116E+02 0.  0.
          2    1    3    3  502    0 -0.33925218541E+03  0.57991059646E+03  0.62180986119E+03  0.91544297947E+03  0.00000000000E+00 0. -1.
         -1    1    3    3    0  502 -0.39751974246E+01  0.31972499215E+02  0.15868961098E+02  0.35914716022E+02  0.00000000000E+00 0.  1.
         13    1    5    5    0    0  0.27056442158E+03 -0.72301249183E+03 -0.27387505450E+03  0.81912130667E+03  0.00000000000E+00 0. -1.
        -13    1    5    5    0    0  0.58587436142E+02 -0.99715531327E+02 -0.72578440394E+02  0.13654048803E+03  0.00000000000E+00 0.  1.
          1    1    6    6  503    0 -0.36612104989E+02  0.63582359736E+02  0.16813054440E+02  0.75271784228E+02  0.00000000000E+00 0.  1.
         -1    1    6    6    0  503  0.50687630099E+02  0.14726256774E+03 -0.11656075994E+02  0.15617734730E+03  0.00000000000E+00 0. -1.
<mgrwt>
<rscale>  0 0.21178304E+04</rscale>
<asrwt>0</asrwt>
<pdfrwt beam="1">  1        2 0.18729623E+00 0.21178304E+04</pdfrwt>
<pdfrwt beam="2">  1       -1 0.14169895E+00 0.21178304E+04</pdfrwt>
<totfact> 0.78785395E+00</totfact>
</mgrwt>
</event>
<event>
12    7  0.1637954E-007  0.1242056E+04  0.7818608E-02  0.9076821E-01
         -1   -1    0    0    0  501 -0.00000000000E+00  0.00000000000E+00  0.24204180045E+03  0.24204180045E+03  0.00000000000E+00 0.  1.
          2   -1    0    0  501    0  0.00000000000E+00 -0.00000000000E+00 -0.15934266197E+04  0.15934266197E+04  0.00000000000E+00 0. -1.
         24    2    1    2    0    0 -0.16413872001E+03  0.21314345866E+03 -0.46609549257E+03  0.54421689043E+03  0.80965191630E+02 0.  0.
        254    2    1    2    0    0  0.16413872001E+03 -0.21314345866E+03 -0.88528932665E+03  0.12912515297E+04  0.90067844855E+03 0.  0.
         23    2    4    4    0    0  0.74118227007E+02 -0.49142722209E+03 -0.20520907769E+03  0.54529237962E+03  0.90767766952E+02 0.  0.
         23    2    4    4    0    0  0.90020493007E+02  0.27828376342E+03 -0.68008024896E+03  0.74595915008E+03  0.91653512873E+02 0.  0.
          2    1    3    3  502    0 -0.13696502536E+03  0.21157502950E+03 -0.40059610462E+03  0.47328706967E+03  0.00000000000E+00 0. -1.
         -1    1    3    3    0  502 -0.27173694651E+02  0.15684291640E+01 -0.65499387956E+02  0.70929820764E+02  0.00000000000E+00 0.  1.
         13    1    5    5    0    0  0.47888155215E+02 -0.46392364174E+03 -0.19765357232E+03  0.50654255046E+03  0.00000000000E+00 0.  1.
        -13    1    5    5    0    0  0.26230071793E+02 -0.27503580344E+02 -0.75555053684E+01  0.38749829153E+02  0.00000000000E+00 0. -1.
          3    1    6    6  503    0  0.39007181440E+01  0.12817053932E+03 -0.22338417123E+03  0.25757210778E+03  0.00000000000E+00 0. -1.
         -3    1    6    6    0  503  0.86119774863E+02  0.15011322410E+03 -0.45669607773E+03  0.48838704230E+03  0.00000000000E+00 0.  1.
<mgrwt>
<rscale>  0 0.12420561E+04</rscale>
<asrwt>0</asrwt>
<pdfrwt beam="1">  1        2 0.24514255E+00 0.12420561E+04</pdfrwt>
<pdfrwt beam="2">  1       -1 0.37237201E-01 0.12420561E+04</pdfrwt>
<totfact> 0.87473242E+01</totfact>
</mgrwt>
</event>
<event>
12    7  0.1637954E-007  0.1449839E+04  0.7818608E-02  0.8918512E-01
         -1   -1    0    0    0  501 -0.00000000000E+00  0.00000000000E+00  0.58437229721E+03  0.58437229721E+03  0.00000000000E+00 0.  1.
          2   -1    0    0  501    0  0.00000000000E+00 -0.00000000000E+00 -0.89926954615E+03  0.89926954615E+03  0.00000000000E+00 0. -1.
         24    2    1    2    0    0 -0.24199970377E+03 -0.29298086163E+03 -0.33442967990E+03  0.51248731955E+03  0.79989999331E+02 0.  0.
        254    2    1    2    0    0  0.24199970377E+03  0.29298086163E+03  0.19532430959E+02  0.97115452381E+03  0.89350878639E+03 0.  0.
         23    2    4    4    0    0  0.58187052392E+02 -0.24627046094E+03  0.23256209571E+03  0.35635451408E+03  0.94172917257E+02 0.  0.
         23    2    4    4    0    0  0.18381265138E+03  0.53925132257E+03 -0.21302966475E+03  0.61480000973E+03  0.89545151773E+02 0.  0.
          2    1    3    3  502    0 -0.87917375284E+02 -0.14842045524E+03 -0.11182053777E+03  0.20557706359E+03  0.00000000000E+00 0. -1.
         -1    1    3    3    0  502 -0.15408232849E+03 -0.14456040639E+03 -0.22260914213E+03  0.30691025595E+03  0.00000000000E+00 0.  1.
         13    1    5    5    0    0  0.31490810244E+02 -0.12869043251E+03  0.18315877402E+03  0.22605316863E+03  0.00000000000E+00 0. -1.
        -13    1    5    5    0    0  0.26696242148E+02 -0.11758002843E+03  0.49403321690E+02  0.13030134544E+03  0.00000000000E+00 0.  1.
          3    1    6    6  503    0  0.18243431892E+03  0.53571077107E+03 -0.19841142252E+03  0.59969609266E+03  0.00000000000E+00 0. -1.
         -3    1    6    6    0  503  0.13783324596E+01  0.35405515005E+01 -0.14618242228E+02  0.15103917079E+02  0.00000000000E+00 0.  1.
<mgrwt>
<rscale>  0 0.14498389E+04</rscale>
<asrwt>0</asrwt>
<pdfrwt beam="1">  1        2 0.13834916E+00 0.14498389E+04</pdfrwt>
<pdfrwt beam="2">  1       -1 0.89903430E-01 0.14498389E+04</pdfrwt>
<totfact> 0.39353116E+01</totfact>
</mgrwt>
</event>
<event>
12    7  0.1637954E-007  0.2580730E+04  0.7818608E-02  0.8374776E-01
          2   -1    0    0  501    0  0.00000000000E+00  0.00000000000E+00  0.31703810351E+04  0.31703810351E+04  0.00000000000E+00 0. -1.
         -1   -1    0    0    0  501 -0.00000000000E+00 -0.00000000000E+00 -0.52518680749E+03  0.52518680749E+03  0.00000000000E+00 0.  1.
         24    2    1    2    0    0 -0.91910504025E+03  0.64681988971E+03  0.97624896345E+03  0.14908298459E+04  0.79884579887E+02 0.  0.
        254    2    1    2    0    0  0.91910504025E+03 -0.64681988971E+03  0.16689452642E+04  0.22047379967E+04  0.90131087562E+03 0.  0.
         23    2    4    4    0    0 -0.29184585513E+02 -0.13979331048E+03 -0.45915262230E+02  0.17853107810E+03  0.96805086926E+02 0.  0.
         23    2    4    4    0    0  0.94828962576E+03 -0.50702657923E+03  0.17148605264E+04  0.20262069186E+04  0.91862318543E+02 0.  0.
          2    1    3    3  502    0 -0.54586361493E+02  0.58079914864E+02  0.86650160750E+02  0.11773358794E+03  0.00000000000E+00 0. -1.
         -1    1    3    3    0  502 -0.86451867875E+03  0.58873997484E+03  0.88959880270E+03  0.13730962580E+04  0.00000000000E+00 0.  1.
         13    1    5    5    0    0 -0.56186550367E+02 -0.78114796364E+02  0.14090443250E+01  0.96233233652E+02  0.00000000000E+00 0.  1.
        -13    1    5    5    0    0  0.27001964854E+02 -0.61678514112E+02 -0.47324306555E+02  0.82297844443E+02  0.00000000000E+00 0. -1.
          1    1    6    6  503    0  0.39893633265E+02 -0.29272662494E+02  0.11788955510E+03  0.12785279796E+03  0.00000000000E+00 0. -1.
         -1    1    6    6    0  503  0.90839599250E+03 -0.47775391674E+03  0.15969709713E+04  0.18983541207E+04  0.00000000000E+00 0.  1.
<mgrwt>
<rscale>  0 0.25807304E+04</rscale>
<asrwt>0</asrwt>
<pdfrwt beam="1">  1        2 0.48775092E+00 0.25807304E+04</pdfrwt>
<pdfrwt beam="2">  1       -1 0.80797972E-01 0.25807304E+04</pdfrwt>
<totfact> 0.20859185E+00</totfact>
</mgrwt>
</event>
<event>
12    7  0.1637954E-007  0.1258684E+04  0.7818608E-02  0.9062986E-01
          2   -1    0    0  501    0  0.00000000000E+00  0.00000000000E+00  0.41600776532E+03  0.41600776532E+03  0.00000000000E+00 0. -1.
         -1   -1    0    0    0  501 -0.00000000000E+00 -0.00000000000E+00 -0.95207742973E+03  0.95207742973E+03  0.00000000000E+00 0.  1.
         24    2    1    2    0    0  0.16809317921E+03  0.12951335693E+03  0.97488683176E+02  0.24660612288E+03  0.79255977537E+02 0.  0.
        254    2    1    2    0    0 -0.16809317921E+03 -0.12951335693E+03 -0.63355834759E+03  0.11214790722E+04  0.90071643872E+03 0.  0.
         23    2    4    4    0    0  0.58379295076E+01  0.27276007273E+03  0.61507707839E+02  0.29475790055E+03  0.93096096155E+02 0.  0.
         23    2    4    4    0    0 -0.17393110872E+03 -0.40227342965E+03 -0.69506605543E+03  0.82672117161E+03  0.90967749210E+02 0.  0.
          2    1    3    3  502    0  0.13665187274E+03  0.13757433399E+03  0.80297866771E+02  0.20987658065E+03  0.00000000000E+00 0. -1.
         -1    1    3    3    0  502  0.31441306476E+02 -0.80609770655E+01  0.17190816405E+02  0.36729542235E+02  0.00000000000E+00 0.  1.
         13    1    5    5    0    0 -0.19985334833E+02  0.11820429541E+02 -0.60220164875E+01  0.23987514367E+02  0.00000000000E+00 0. -1.
        -13    1    5    5    0    0  0.25823264341E+02  0.26093964318E+03  0.67529724326E+02  0.27077038618E+03  0.00000000000E+00 0.  1.
          3    1    6    6  503    0 -0.15159510732E+03 -0.24095046141E+03 -0.44922585811E+03  0.53182898851E+03  0.00000000000E+00 0.  1.
         -3    1    6    6    0  503 -0.22336001399E+02 -0.16132296824E+03 -0.24584019732E+03  0.29489218311E+03  0.00000000000E+00 0. -1.
<mgrwt>
<rscale>  0 0.12586844E+04</rscale>
<asrwt>0</asrwt>
<pdfrwt beam="1">  1        2 0.64001195E-01 0.12586844E+04</pdfrwt>
<pdfrwt beam="2">  1       -1 0.14647345E+00 0.12586844E+04</pdfrwt>
<totfact> 0.31822477E+01</totfact>
</mgrwt>
</event>
<event>
12    7  0.1637954E-007  0.1964200E+04  0.7818608E-02  0.8623544E-01
         -1   -1    0    0    0  501 -0.00000000000E+00  0.00000000000E+00  0.29523128199E+03  0.29523128199E+03  0.00000000000E+00 0.  1.
          2   -1    0    0  501    0  0.00000000000E+00 -0.00000000000E+00 -0.32669985018E+04  0.32669985018E+04  0.00000000000E+00 0. -1.
         24    2    1    2    0    0 -0.52426949816E+03  0.50703877576E+03 -0.71982919697E+03  0.10287124845E+04  0.90268909686E+02 0.  0.
        254    2    1    2    0    0  0.52426949816E+03 -0.50703877576E+03 -0.22519380228E+04  0.25335172993E+04  0.90307154780E+03 0.  0.
         23    2    4    4    0    0  0.33421390005E+03  0.21319163082E+03 -0.87601963928E+03  0.96625422878E+03  0.95326931117E+02 0.  0.
         23    2    4    4    0    0  0.19005559811E+03 -0.72023040658E+03 -0.13759183836E+04  0.15672630705E+04  0.91154622134E+02 0.  0.
          2    1    3    3  502    0 -0.80535127015E+02  0.10574277513E+03 -0.93193688834E+02  0.16233454597E+03  0.00000000000E+00 0. -1.
         -1    1    3    3    0  502 -0.44373437114E+03  0.40129600062E+03 -0.62663550813E+03  0.86637793849E+03  0.00000000000E+00 0.  1.
         13    1    5    5    0    0  0.96262442878E+02  0.91633586127E+02 -0.38418524595E+03  0.40652364657E+03  0.00000000000E+00 0.  1.
        -13    1    5    5    0    0  0.23795145717E+03  0.12155804470E+03 -0.49183439332E+03  0.55973058221E+03  0.00000000000E+00 0. -1.
          1    1    6    6  503    0  0.16790715507E+03 -0.64300045526E+03 -0.12792180184E+04  0.14415412366E+04  0.00000000000E+00 0. -1.
         -1    1    6    6    0  503  0.22148443036E+02 -0.77229951319E+02 -0.96700365131E+02  0.12572183393E+03  0.00000000000E+00 0.  1.
<mgrwt>
<rscale>  0 0.19641997E+04</rscale>
<asrwt>0</asrwt>
<pdfrwt beam="1">  1        2 0.50261516E+00 0.19641997E+04</pdfrwt>
<pdfrwt beam="2">  1       -1 0.45420197E-01 0.19641997E+04</pdfrwt>
<totfact> 0.60059527E+00</totfact>
</mgrwt>
</event>
<event>
12    7  0.1637954E-007  0.2095487E+04  0.7818608E-02  0.8563234E-01
          2   -1    0    0  501    0  0.00000000000E+00  0.00000000000E+00  0.12530630635E+04  0.12530630635E+04  0.00000000000E+00 0. -1.
         -1   -1    0    0    0  501 -0.00000000000E+00 -0.00000000000E+00 -0.87606601566E+03  0.87606601566E+03  0.00000000000E+00 0.  1.
         24    2    1    2    0    0 -0.50777120707E+03 -0.62381053021E+03 -0.13349314119E+03  0.81922532579E+03  0.79614944225E+02 0.  0.
        254    2    1    2    0    0  0.50777120707E+03  0.62381053021E+03  0.51049018902E+03  0.13099037534E+04  0.89904195324E+03 0.  0.
         23    2    4    4    0    0 -0.41488708365E+02  0.28350302639E+03  0.58057409836E+03  0.65361274857E+03  0.89710994391E+02 0.  0.
         23    2    4    4    0    0  0.54925991544E+03  0.34030750382E+03 -0.70083909333E+02  0.65629100481E+03  0.91161816474E+02 0.  0.
          2    1    3    3  502    0 -0.39025805328E+03 -0.42292780070E+03 -0.90069722902E+02  0.58247903631E+03  0.00000000000E+00 0. -1.
         -1    1    3    3    0  502 -0.11751315379E+03 -0.20088272951E+03 -0.43423418285E+02  0.23674628948E+03  0.00000000000E+00 0.  1.
         13    1    5    5    0    0 -0.56549548795E+02  0.18489606432E+03  0.31132656750E+03  0.36648142887E+03  0.00000000000E+00 0. -1.
        -13    1    5    5    0    0  0.15060840430E+02  0.98606962064E+02  0.26924753086E+03  0.28713131970E+03  0.00000000000E+00 0.  1.
          1    1    6    6  503    0  0.17542718188E+03  0.12074233334E+03  0.18586614573E+02  0.21377293899E+03  0.00000000000E+00 0. -1.
         -1    1    6    6    0  503  0.37383273355E+03  0.21956517048E+03 -0.88670523906E+02  0.44251806581E+03  0.00000000000E+00 0.  1.
<mgrwt>
<rscale>  0 0.20954865E+04</rscale>
<asrwt>0</asrwt>
<pdfrwt beam="1">  1        2 0.19277893E+00 0.20954865E+04</pdfrwt>
<pdfrwt beam="2">  1       -1 0.13477939E+00 0.20954865E+04</pdfrwt>
<totfact> 0.85633225E+00</totfact>
</mgrwt>
</event>
<event>
12    7  0.1637954E-007  0.1501153E+04  0.7818608E-02  0.8883686E-01
         -1   -1    0    0    0  501 -0.00000000000E+00  0.00000000000E+00  0.46094910120E+03  0.46094910120E+03  0.00000000000E+00 0.  1.
          2   -1    0    0  501    0  0.00000000000E+00 -0.00000000000E+00 -0.12221856160E+04  0.12221856160E+04  0.00000000000E+00 0. -1.
         24    2    1    2    0    0  0.42172344542E+03 -0.24673811783E+03 -0.31323794990E+03  0.58592793445E+03  0.80393829982E+02 0.  0.
        254    2    1    2    0    0 -0.42172344542E+03  0.24673811783E+03 -0.44799856493E+03  0.10972067828E+04  0.87431667421E+03 0.  0.
         23    2    4    4    0    0  0.30643980859E+02 -0.48114577426E+01  0.22400486529E+03  0.24390722317E+03  0.91380250341E+02 0.  0.
         23    2    4    4    0    0 -0.45236742628E+03  0.25154957558E+03 -0.67200343022E+03  0.85329955962E+03  0.92833457789E+02 0.  0.
          2    1    3    3  502    0  0.36454474047E+03 -0.23487060507E+03 -0.29597797881E+03  0.52503336358E+03  0.00000000000E+00 0. -1.
         -1    1    3    3    0  502  0.57178704958E+02 -0.11867512767E+02 -0.17259971085E+02  0.60894570873E+02  0.00000000000E+00 0.  1.
         13    1    5    5    0    0  0.26484437025E+02  0.39465745435E+02  0.15217571501E+03  0.15942527624E+03  0.00000000000E+00 0.  1.
        -13    1    5    5    0    0  0.41595438342E+01 -0.44277203178E+02  0.71829150279E+02  0.84481946923E+02  0.00000000000E+00 0. -1.
          1    1    6    6  503    0 -0.19970603043E+02  0.23235264241E+02 -0.78784711006E+02  0.84532438617E+02  0.00000000000E+00 0. -1.
         -1    1    6    6    0  503 -0.43239682324E+03  0.22831431133E+03 -0.59321871921E+03  0.76876712100E+03  0.00000000000E+00 0.  1.
<mgrwt>
<rscale>  0 0.15011534E+04</rscale>
<asrwt>0</asrwt>
<pdfrwt beam="1">  1        2 0.18802856E+00 0.15011534E+04</pdfrwt>
<pdfrwt beam="2">  1       -1 0.70915247E-01 0.15011534E+04</pdfrwt>
<totfact> 0.40654939E+01</totfact>
</mgrwt>
</event>
<event>
12    7  0.1637954E-007  0.1995654E+04  0.7818608E-02  0.8608655E-01
         -1   -1    0    0    0  501 -0.00000000000E+00  0.00000000000E+00  0.38846249839E+03  0.38846249839E+03  0.00000000000E+00 0.  1.
          2   -1    0    0  501    0  0.00000000000E+00 -0.00000000000E+00 -0.25630748834E+04  0.25630748834E+04  0.00000000000E+00 0. -1.
         24    2    1    2    0    0  0.26881431305E+03 -0.73246801971E+03 -0.65406291403E+03  0.10211682633E+04  0.78840292809E+02 0.  0.
        254    2    1    2    0    0 -0.26881431305E+03  0.73246801971E+03 -0.15205494709E+04  0.19303691184E+04  0.89748743998E+03 0.  0.
         23    2    4    4    0    0  0.23306155441E+03  0.61162007839E+03 -0.92980353724E+03  0.11406084989E+04  0.89757013509E+02 0.  0.
         23    2    4    4    0    0 -0.50187586746E+03  0.12084794132E+03 -0.59074593370E+03  0.78976061950E+03  0.90870604046E+02 0.  0.
          4    1    3    3  502    0  0.25596865832E+03 -0.71214765655E+03 -0.61428344388E+03  0.97468886738E+03  0.00000000000E+00 0. -1.
         -3    1    3    3    0  502  0.12845654730E+02 -0.20320363153E+02 -0.39779470143E+02  0.46479395962E+02  0.00000000000E+00 0.  1.
         13    1    5    5    0    0  0.14222386339E+03  0.46085723235E+03 -0.63729603446E+03  0.79922665838E+03  0.00000000000E+00 0.  1.
        -13    1    5    5    0    0  0.90837691023E+02  0.15076284603E+03 -0.29250750278E+03  0.34138184052E+03  0.00000000000E+00 0. -1.
          2    1    6    6  503    0 -0.24315173294E+03  0.98776465750E+02 -0.26209384793E+03  0.37090799471E+03  0.00000000000E+00 0. -1.
         -2    1    6    6    0  503 -0.25872413452E+03  0.22071475570E+02 -0.32865208577E+03  0.41885262479E+03  0.00000000000E+00 0.  1.
<mgrwt>
<rscale>  0 0.19956538E+04</rscale>
<asrwt>0</asrwt>
<pdfrwt beam="1">  1        2 0.39431920E+00 0.19956538E+04</pdfrwt>
<pdfrwt beam="2">  1       -1 0.59763463E-01 0.19956538E+04</pdfrwt>
<totfact> 0.96132422E+00</totfact>
</mgrwt>
</event>
<event>
12    7  0.1637954E-007  0.1485409E+04  0.7818608E-02  0.8894214E-01
         -1   -1    0    0    0  501 -0.00000000000E+00  0.00000000000E+00  0.87976310194E+03  0.87976310194E+03  0.00000000000E+00 0.  1.
          2   -1    0    0  501    0  0.00000000000E+00 -0.00000000000E+00 -0.62699868655E+03  0.62699868655E+03  0.00000000000E+00 0. -1.
         24    2    1    2    0    0 -0.45644922605E+03 -0.13646277966E+02  0.14053567498E+03  0.48421337125E+03  0.78614223227E+02 0.  0.
        254    2    1    2    0    0  0.45644922605E+03  0.13646277966E+02  0.11222874041E+03  0.10225484172E+04  0.90800763133E+03 0.  0.
         23    2    4    4    0    0  0.22746180643E+03  0.36576690236E+03  0.32092477660E+03  0.54527603708E+03  0.93855975523E+02 0.  0.
         23    2    4    4    0    0  0.22898741962E+03 -0.35212062439E+03 -0.20869603618E+03  0.47727238015E+03  0.88378260170E+02 0.  0.
          2    1    3    3  502    0 -0.22794111270E+03  0.44789977070E-01  0.29676421099E+02  0.22986483601E+03  0.00000000000E+00 0. -1.
         -1    1    3    3    0  502 -0.22850811335E+03 -0.13691067943E+02  0.11085925388E+03  0.25434853524E+03  0.00000000000E+00 0.  1.
         13    1    5    5    0    0  0.19361248109E+03  0.35374081416E+03  0.30670326050E+03  0.50664114167E+03  0.00000000000E+00 0.  1.
        -13    1    5    5    0    0  0.33849325341E+02  0.12026088199E+02  0.14221516098E+02  0.38634895413E+02  0.00000000000E+00 0. -1.
          3    1    6    6  503    0  0.26744739190E+02 -0.41067892446E+02  0.47461026994E+01  0.49237976757E+02  0.00000000000E+00 0. -1.
         -3    1    6    6    0  503  0.20224268043E+03 -0.31105273194E+03 -0.21344213888E+03  0.42803440339E+03  0.00000000000E+00 0.  1.
<mgrwt>
<rscale>  0 0.14854095E+04</rscale>
<asrwt>0</asrwt>
<pdfrwt beam="1">  1        2 0.96461337E-01 0.14854095E+04</pdfrwt>
<pdfrwt beam="2">  1       -1 0.13534817E+00 0.14854095E+04</pdfrwt>
<totfact> 0.23775358E+01</totfact>
</mgrwt>
</event>
<event>
12    7  0.1637954E-007  0.1733122E+04  0.7818608E-02  0.8742696E-01
         -1   -1    0    0    0  501 -0.00000000000E+00  0.00000000000E+00  0.43436140613E+03  0.43436140613E+03  0.00000000000E+00 0.  1.
          2   -1    0    0  501    0  0.00000000000E+00 -0.00000000000E+00 -0.17288100883E+04  0.17288100883E+04  0.00000000000E+00 0. -1.
         24    2    1    2    0    0  0.81715238195E+02 -0.22553916536E+03 -0.12040970458E+04  0.12302758027E+04  0.78635613874E+02 0.  0.
        254    2    1    2    0    0 -0.81715238195E+02  0.22553916536E+03 -0.90351636424E+02  0.93289569178E+03  0.89698698891E+03 0.  0.
         23    2    4    4    0    0 -0.13521366540E+03  0.23093165823E+03  0.36744156619E+03  0.46311496836E+03  0.88600244185E+02 0.  0.
         23    2    4    4    0    0  0.53498427205E+02 -0.53924928781E+01 -0.45779320262E+03  0.46978072342E+03  0.90709156318E+02 0.  0.
          4    1    3    3  502    0  0.88530945440E+02 -0.17550500035E+03 -0.83997053506E+03  0.86266461224E+03  0.00000000000E+00 0. -1.
         -3    1    3    3    0  502 -0.68157072448E+01 -0.50034165001E+02 -0.36412651073E+03  0.36761119046E+03  0.00000000000E+00 0.  1.
         13    1    5    5    0    0 -0.12594549864E+03  0.13391088692E+03  0.22557474634E+03  0.29099546466E+03  0.00000000000E+00 0.  1.
        -13    1    5    5    0    0 -0.92681667584E+01  0.97020771309E+02  0.14186681985E+03  0.17211950370E+03  0.00000000000E+00 0. -1.
          2    1    6    6  503    0 -0.21573965151E+02  0.11260298759E+02 -0.17636024074E+03  0.17803135907E+03  0.00000000000E+00 0. -1.
         -2    1    6    6    0  503  0.75072392355E+02 -0.16652791637E+02 -0.28143296188E+03  0.29174936434E+03  0.00000000000E+00 0.  1.
<mgrwt>
<rscale>  0 0.17331225E+04</rscale>
<asrwt>0</asrwt>
<pdfrwt beam="1">  1        2 0.26597078E+00 0.17331225E+04</pdfrwt>
<pdfrwt beam="2">  1       -1 0.66824832E-01 0.17331225E+04</pdfrwt>
<totfact> 0.23181274E+01</totfact>
</mgrwt>
</event>
<event>
12    7  0.1637954E-007  0.1564244E+04  0.7818608E-02  0.8842820E-01
         -1   -1    0    0    0  501 -0.00000000000E+00  0.00000000000E+00  0.35937264161E+03  0.35937264161E+03  0.00000000000E+00 0.  1.
          2   -1    0    0  501    0  0.00000000000E+00 -0.00000000000E+00 -0.17021751990E+04  0.17021751990E+04  0.00000000000E+00 0. -1.
         24    2    1    2    0    0 -0.49313481714E+03  0.81217893221E+02 -0.22084186308E+03  0.55200330287E+03  0.78474351461E+02 0.  0.
        254    2    1    2    0    0  0.49313481714E+03 -0.81217893221E+02 -0.11219606943E+04  0.15095445377E+04  0.87758225700E+03 0.  0.
         23    2    4    4    0    0  0.13627583818E+03 -0.18717182523E+02  0.12575010314E+03  0.20749593924E+03  0.91214249810E+02 0.  0.
         23    2    4    4    0    0  0.35685897895E+03 -0.62500710698E+02 -0.12477107974E+04  0.13020485985E+04  0.85402863597E+02 0.  0.
          4    1    3    3  502    0 -0.11382229438E+03 -0.23400952943E+01 -0.78716625372E+02  0.13840989074E+03  0.00000000000E+00 0. -1.
         -3    1    3    3    0  502 -0.37931252276E+03  0.83557988516E+02 -0.14212523771E+03  0.41359341213E+03  0.00000000000E+00 0.  1.
         13    1    5    5    0    0  0.10085639311E+03 -0.32990012414E+02  0.13139550740E+03  0.16889384925E+03  0.00000000000E+00 0. -1.
        -13    1    5    5    0    0  0.35419445071E+02  0.14272829891E+02 -0.56454042615E+01  0.38602089989E+02  0.00000000000E+00 0.  1.
          3    1    6    6  503    0  0.25215928733E+03 -0.84399680222E+01 -0.91216466547E+03  0.94641424132E+03  0.00000000000E+00 0. -1.
         -3    1    6    6    0  503  0.10469969162E+03 -0.54060742676E+02 -0.33554613196E+03  0.35563435716E+03  0.00000000000E+00 0.  1.
<mgrwt>
<rscale>  0 0.15642445E+04</rscale>
<asrwt>0</asrwt>
<pdfrwt beam="1">  1        2 0.26187311E+00 0.15642445E+04</pdfrwt>
<pdfrwt beam="2">  1       -1 0.55288098E-01 0.15642445E+04</pdfrwt>
<totfact> 0.35428758E+01</totfact>
</mgrwt>
</event>
<event>
12    7  0.1637954E-007  0.1580288E+04  0.7818608E-02  0.8832750E-01
          2   -1    0    0  501    0  0.00000000000E+00  0.00000000000E+00  0.27694311696E+04  0.27694311696E+04  0.00000000000E+00 0. -1.
         -1   -1    0    0    0  501 -0.00000000000E+00 -0.00000000000E+00 -0.22543539695E+03  0.22543539695E+03  0.00000000000E+00 0.  1.
         24    2    1    2    0    0 -0.89085962747E+02  0.28892220034E+03  0.16939500317E+04  0.17225402602E+04  0.79157384372E+02 0.  0.
        254    2    1    2    0    0  0.89085962747E+02 -0.28892220034E+03  0.85004574098E+03  0.12723263064E+04  0.89711990365E+03 0.  0.
         23    2    4    4    0    0  0.27206528841E+03 -0.54335294923E+03  0.48631629857E+03  0.78355338389E+03  0.90556140356E+02 0.  0.
         23    2    4    4    0    0 -0.18297932566E+03  0.25443074889E+03  0.36372944241E+03  0.48877292248E+03  0.91561033636E+02 0.  0.
          4    1    3    3  502    0 -0.48798743146E+02  0.16968707877E+03  0.11943910831E+04  0.12073711449E+04  0.00000000000E+00 0. -1.
         -3    1    3    3    0  502 -0.40287219601E+02  0.11923512158E+03  0.49955894858E+03  0.51516911533E+03  0.00000000000E+00 0.  1.
         13    1    5    5    0    0  0.16260760389E+02 -0.98402430946E+02  0.60369489727E+02  0.11658441592E+03  0.00000000000E+00 0. -1.
        -13    1    5    5    0    0  0.25580452802E+03 -0.44495051828E+03  0.42594680884E+03  0.66696896797E+03  0.00000000000E+00 0.  1.
          4    1    6    6  503    0 -0.80718660781E+02  0.18778795693E+03  0.23122695399E+03  0.30861905842E+03  0.00000000000E+00 0. -1.
         -4    1    6    6    0  503 -0.10226066488E+03  0.66642791957E+02  0.13250248842E+03  0.18015386407E+03  0.00000000000E+00 0.  1.
<mgrwt>
<rscale>  0 0.15802883E+04</rscale>
<asrwt>0</asrwt>
<pdfrwt beam="1">  1        2 0.42606631E+00 0.15802883E+04</pdfrwt>
<pdfrwt beam="2">  1       -1 0.34682371E-01 0.15802883E+04</pdfrwt>
<totfact> 0.20900167E+01</totfact>
</mgrwt>
</event>
<event>
12    7  0.1637954E-007  0.1921946E+04  0.7818608E-02  0.8644009E-01
          2   -1    0    0  501    0  0.00000000000E+00  0.00000000000E+00  0.26541124275E+04  0.26541124275E+04  0.00000000000E+00 0. -1.
         -1   -1    0    0    0  501 -0.00000000000E+00 -0.00000000000E+00 -0.34793885928E+03  0.34793885928E+03  0.00000000000E+00 0.  1.
         24    2    1    2    0    0 -0.10273599713E+03 -0.67678903122E+03  0.43332600455E+03  0.81385024756E+03  0.77348053374E+02 0.  0.
        254    2    1    2    0    0  0.10273599713E+03  0.67678903122E+03  0.18728475637E+04  0.21882010392E+04  0.90114799749E+03 0.  0.
         23    2    4    4    0    0  0.19364728031E+03 -0.90342808357E+02  0.10090858476E+03  0.25302729130E+03  0.90438794046E+02 0.  0.
         23    2    4    4    0    0 -0.90911283184E+02  0.76713183957E+03  0.17719389789E+04  0.19351737479E+04  0.91507207033E+02 0.  0.
          4    1    3    3  502    0 -0.10575108510E+02 -0.62873631660E+02  0.69430689932E+02  0.94263180418E+02  0.00000000000E+00 0. -1.
         -3    1    3    3    0  502 -0.92160888618E+02 -0.61391539955E+03  0.36389531462E+03  0.71958706714E+03  0.00000000000E+00 0.  1.
         13    1    5    5    0    0  0.69136682295E+02 -0.35216814180E+02 -0.89020378504E+01  0.78098342605E+02  0.00000000000E+00 0.  1.
        -13    1    5    5    0    0  0.12451059802E+03 -0.55125994177E+02  0.10981062261E+03  0.17492894869E+03  0.00000000000E+00 0. -1.
          1    1    6    6  503    0 -0.74395015509E+02  0.28585036526E+03  0.62743458538E+03  0.69348338738E+03  0.00000000000E+00 0. -1.
         -1    1    6    6    0  503 -0.16516267675E+02  0.48128147432E+03  0.11445043935E+04  0.12416903605E+04  0.00000000000E+00 0.  1.
<mgrwt>
<rscale>  0 0.19219457E+04</rscale>
<asrwt>0</asrwt>
<pdfrwt beam="1">  1        2 0.40832498E+00 0.19219457E+04</pdfrwt>
<pdfrwt beam="2">  1       -1 0.53529057E-01 0.19219457E+04</pdfrwt>
<totfact> 0.10610660E+01</totfact>
</mgrwt>
</event>
<event>
12    7  0.1637954E-007  0.1444030E+04  0.7818608E-02  0.8922550E-01
          2   -1    0    0  501    0  0.00000000000E+00  0.00000000000E+00  0.31123106825E+04  0.31123106825E+04  0.00000000000E+00 0. -1.
         -1   -1    0    0    0  501 -0.00000000000E+00 -0.00000000000E+00 -0.16749790589E+03  0.16749790589E+03  0.00000000000E+00 0.  1.
         24    2    1    2    0    0  0.21593500210E+03  0.22808840856E+03  0.22403965689E+03  0.39415150161E+03  0.80680797643E+02 0.  0.
        254    2    1    2    0    0 -0.21593500210E+03 -0.22808840856E+03  0.27207731197E+04  0.28856570867E+04  0.90871238917E+03 0.  0.
         23    2    4    4    0    0  0.55791043841E+02  0.25284965647E+03  0.16913885717E+04  0.17135404730E+04  0.91542683195E+02 0.  0.
         23    2    4    4    0    0 -0.27172604594E+03 -0.48093806503E+03  0.10293845480E+04  0.11721166138E+04  0.95332796624E+02 0.  0.
          2    1    3    3  502    0  0.73554354817E+01  0.46016395215E+02  0.22826830879E+02  0.51890994090E+02  0.00000000000E+00 0. -1.
         -1    1    3    3    0  502  0.20857956662E+03  0.18207201335E+03  0.20121282601E+03  0.34226050752E+03  0.00000000000E+00 0.  1.
         13    1    5    5    0    0  0.38898979348E+02  0.25418796179E+03  0.16100431480E+04  0.16304488919E+04  0.00000000000E+00 0.  1.
        -13    1    5    5    0    0  0.16892064494E+02 -0.13383053252E+01  0.81345423649E+02  0.83091581118E+02  0.00000000000E+00 0. -1.
          2    1    6    6  503    0 -0.21513817792E+02 -0.52109358550E+02  0.56207000496E+02  0.79608143486E+02  0.00000000000E+00 0. -1.
         -2    1    6    6    0  503 -0.25021222815E+03 -0.42882870648E+03  0.97317754752E+03  0.10925084703E+04  0.00000000000E+00 0.  1.
<mgrwt>
<rscale>  0 0.14440298E+04</rscale>
<asrwt>0</asrwt>
<pdfrwt beam="1">  1        2 0.47881698E+00 0.14440298E+04</pdfrwt>
<pdfrwt beam="2">  1       -1 0.25768911E-01 0.14440298E+04</pdfrwt>
<totfact> 0.21921407E+01</totfact>
</mgrwt>
</event>
<event>
12    7  0.1637954E-007  0.2108486E+04  0.7818608E-02  0.8557514E-01
         -1   -1    0    0    0  501 -0.00000000000E+00  0.00000000000E+00  0.60604263877E+03  0.60604263877E+03  0.00000000000E+00 0.  1.
          2   -1    0    0  501    0  0.00000000000E+00 -0.00000000000E+00 -0.18339107433E+04  0.18339107433E+04  0.00000000000E+00 0. -1.
         24    2    1    2    0    0 -0.64816871729E+03  0.47698510605E+03 -0.10321154993E+03  0.81528078533E+03  0.79954095805E+02 0.  0.
        254    2    1    2    0    0  0.64816871729E+03 -0.47698510605E+03 -0.11246565546E+04  0.16246725968E+04  0.85268470339E+03 0.  0.
         23    2    4    4    0    0  0.83674029882E+03 -0.30226430622E+03 -0.92703940290E+03  0.12879534331E+04  0.89016588108E+02 0.  0.
         23    2    4    4    0    0 -0.18857158153E+03 -0.17472079983E+03 -0.19761715174E+03  0.33671916364E+03  0.90778065872E+02 0.  0.
          4    1    3    3  502    0 -0.32719060619E+03  0.20000711417E+03 -0.71922015145E+02  0.39016575293E+03  0.00000000000E+00 0. -1.
         -3    1    3    3    0  502 -0.32097811109E+03  0.27697799188E+03 -0.31289534787E+02  0.42511503240E+03  0.00000000000E+00 0.  1.
         13    1    5    5    0    0  0.77347414250E+03 -0.25997942656E+03 -0.82200277385E+03  0.11582487261E+04  0.00000000000E+00 0.  1.
        -13    1    5    5    0    0  0.63266156312E+02 -0.42284879652E+02 -0.10503662905E+03  0.12970470702E+03  0.00000000000E+00 0. -1.
          4    1    6    6  503    0 -0.28676867822E+02 -0.40508869082E+02 -0.87757617586E+02  0.10082028896E+03  0.00000000000E+00 0. -1.
         -4    1    6    6    0  503 -0.15989471371E+03 -0.13421193075E+03 -0.10985953416E+03  0.23589887467E+03  0.00000000000E+00 0.  1.
<mgrwt>
<rscale>  0 0.21084858E+04</rscale>
<asrwt>0</asrwt>
<pdfrwt beam="1">  1        2 0.28214011E+00 0.21084858E+04</pdfrwt>
<pdfrwt beam="2">  1       -1 0.93237331E-01 0.21084858E+04</pdfrwt>
<totfact> 0.96744855E+00</totfact>
</mgrwt>
</event>
<event>
12    7  0.1637954E-007  0.1638920E+04  0.7818608E-02  0.8796988E-01
         -1   -1    0    0    0  501 -0.00000000000E+00  0.00000000000E+00  0.56467459615E+03  0.56467459615E+03  0.00000000000E+00 0.  1.
          2   -1    0    0  501    0  0.00000000000E+00 -0.00000000000E+00 -0.11892063430E+04  0.11892063430E+04  0.00000000000E+00 0. -1.
         24    2    1    2    0    0  0.54910918409E+03  0.67688547238E+02 -0.37007303549E+03  0.67021280552E+03  0.78284849166E+02 0.  0.
        254    2    1    2    0    0 -0.54910918409E+03 -0.67688547238E+02 -0.25445871133E+03  0.10836681336E+04  0.89637311009E+03 0.  0.
         23    2    4    4    0    0 -0.97395556157E+02  0.37599973019E+03 -0.11414629669E+02  0.39934831802E+03  0.92125424679E+02 0.  0.
         23    2    4    4    0    0 -0.45171362794E+03 -0.44368827743E+03 -0.24304408166E+03  0.68431981557E+03  0.91206881106E+02 0.  0.
          4    1    3    3  502    0  0.16171037340E+03  0.28848331506E+02 -0.69557697857E+02  0.17838370000E+03  0.00000000000E+00 0. -1.
         -3    1    3    3    0  502  0.38739881069E+03  0.38840215732E+02 -0.30051533763E+03  0.49182910552E+03  0.00000000000E+00 0.  1.
         13    1    5    5    0    0 -0.51580781608E+02  0.30943956585E+03 -0.33736764744E+02  0.31551797293E+03  0.00000000000E+00 0.  1.
        -13    1    5    5    0    0 -0.45814774549E+02  0.66560164340E+02  0.22322135075E+02  0.83830345092E+02  0.00000000000E+00 0. -1.
          3    1    6    6  503    0 -0.33538702947E+03 -0.33156571307E+03 -0.22245952086E+03  0.52144848264E+03  0.00000000000E+00 0. -1.
         -3    1    6    6    0  503 -0.11632659846E+03 -0.11212256436E+03 -0.20584560799E+02  0.16287133293E+03  0.00000000000E+00 0.  1.
<mgrwt>
<rscale>  0 0.16389199E+04</rscale>
<asrwt>0</asrwt>
<pdfrwt beam="1">  1        2 0.18295482E+00 0.16389199E+04</pdfrwt>
<pdfrwt beam="2">  1       -1 0.86873016E-01 0.16389199E+04</pdfrwt>
<totfact> 0.27368093E+01</totfact>
</mgrwt>
</event>
<event>
12    7  0.1637954E-007  0.1203090E+04  0.7818608E-02  0.9110156E-01
          2   -1    0    0  501    0  0.00000000000E+00  0.00000000000E+00  0.69774433364E+03  0.69774433364E+03  0.00000000000E+00 0. -1.
         -1   -1    0    0    0  501 -0.00000000000E+00 -0.00000000000E+00 -0.51860853263E+03  0.51860853263E+03  0.00000000000E+00 0.  1.
         24    2    1    2    0    0  0.14827642438E+03  0.17329185889E+03 -0.73434048949E+02  0.25367950494E+03  0.83335258443E+02 0.  0.
        254    2    1    2    0    0 -0.14827642438E+03 -0.17329185889E+03  0.25256984996E+03  0.96267336133E+03  0.90051790938E+03 0.  0.
         23    2    4    4    0    0 -0.35122818816E+03  0.59854537810E+02  0.45239189547E+03  0.58321314104E+03  0.92386876444E+02 0.  0.
         23    2    4    4    0    0  0.20295176378E+03 -0.23314639670E+03 -0.19982204551E+03  0.37946022029E+03  0.92274309534E+02 0.  0.
          2    1    3    3  502    0  0.14713853368E+02 -0.28075728709E+00 -0.25562900022E+02  0.29496409326E+02  0.00000000000E+00 0. -1.
         -1    1    3    3    0  502  0.13356257101E+03  0.17357261618E+03 -0.47871148927E+02  0.22418309562E+03  0.00000000000E+00 0.  1.
         13    1    5    5    0    0 -0.32813136665E+03  0.33587385584E+02  0.38265551521E+03  0.50519654549E+03  0.00000000000E+00 0. -1.
        -13    1    5    5    0    0 -0.23096821507E+02  0.26267152226E+02  0.69736380256E+02  0.78016595549E+02  0.00000000000E+00 0.  1.
          4    1    6    6  503    0  0.19667520932E+03 -0.24176982362E+03 -0.19578242842E+03  0.36805508400E+03  0.00000000000E+00 0. -1.
         -4    1    6    6    0  503  0.62765544550E+01  0.86234269241E+01 -0.40396170838E+01  0.11405136296E+02  0.00000000000E+00 0.  1.
<mgrwt>
<rscale>  0 0.12030896E+04</rscale>
<asrwt>0</asrwt>
<pdfrwt beam="1">  1        2 0.10734528E+00 0.12030896E+04</pdfrwt>
<pdfrwt beam="2">  1       -1 0.79785928E-01 0.12030896E+04</pdfrwt>
<totfact> 0.72765329E+01</totfact>
</mgrwt>
</event>
<event>
12    7  0.1637954E-007  0.1497185E+04  0.7818608E-02  0.8886327E-01
         -1   -1    0    0    0  501 -0.00000000000E+00  0.00000000000E+00  0.87080283088E+03  0.87080283088E+03  0.00000000000E+00 0.  1.
          2   -1    0    0  501    0  0.00000000000E+00 -0.00000000000E+00 -0.64353336136E+03  0.64353336136E+03  0.00000000000E+00 0. -1.
         24    2    1    2    0    0 -0.10255862532E+02  0.47183476246E+03  0.10487103002E+03  0.48977115586E+03  0.78387667342E+02 0.  0.
        254    2    1    2    0    0  0.10255862532E+02 -0.47183476246E+03  0.12239843950E+03  0.10245650364E+04  0.90112091863E+03 0.  0.
         23    2    4    4    0    0 -0.85873827924E+01 -0.23330846735E+03  0.50522868978E+03  0.56398906092E+03  0.91219777324E+02 0.  0.
         23    2    4    4    0    0  0.18843245324E+02 -0.23852629511E+03 -0.38283025028E+03  0.46057597546E+03  0.91221528662E+02 0.  0.
          4    1    3    3  502    0 -0.40806104538E+02  0.36491556177E+03  0.82547418394E+02  0.37635432995E+03  0.00000000000E+00 0. -1.
         -1    1    3    3    0  502  0.30550242007E+02  0.10691920070E+03  0.22323611627E+02  0.11341682591E+03  0.00000000000E+00 0.  1.
         13    1    5    5    0    0 -0.10527296694E+02 -0.17339728379E+03  0.26855514828E+03  0.31984263266E+03  0.00000000000E+00 0.  1.
        -13    1    5    5    0    0  0.19399139020E+01 -0.59911183559E+02  0.23667354150E+03  0.24414642825E+03  0.00000000000E+00 0. -1.
          3    1    6    6  503    0 -0.20421457827E+02 -0.15145599884E+03 -0.17823940308E+03  0.23478764945E+03  0.00000000000E+00 0. -1.
         -3    1    6    6    0  503  0.39264703151E+02 -0.87070296272E+02 -0.20459084719E+03  0.22578832601E+03  0.00000000000E+00 0.  1.
<mgrwt>
<rscale>  0 0.14971849E+04</rscale>
<asrwt>0</asrwt>
<pdfrwt beam="1">  1        2 0.99005133E-01 0.14971849E+04</pdfrwt>
<pdfrwt beam="2">  1       -1 0.13396967E+00 0.14971849E+04</pdfrwt>
<totfact> 0.23615582E+01</totfact>
</mgrwt>
</event>
<event>
12    7  0.1637954E-007  0.1442068E+04  0.7818608E-02  0.8923918E-01
         -1   -1    0    0    0  501 -0.00000000000E+00  0.00000000000E+00  0.22090289122E+03  0.22090289122E+03  0.00000000000E+00 0.  1.
          2   -1    0    0  501    0  0.00000000000E+00 -0.00000000000E+00 -0.23534767813E+04  0.23534767813E+04  0.00000000000E+00 0. -1.
         24    2    1    2    0    0 -0.20851941330E+03  0.34877486382E+03 -0.37649066384E+03  0.55979316182E+03  0.80615834071E+02 0.  0.
        254    2    1    2    0    0  0.20851941330E+03 -0.34877486382E+03 -0.17560832263E+04  0.20145865107E+04  0.89978122913E+03 0.  0.
         23    2    4    4    0    0 -0.23703671119E+03 -0.42499820164E+03 -0.65715224187E+03  0.82283808852E+03  0.91671026356E+02 0.  0.
         23    2    4    4    0    0  0.44555612449E+03  0.76223337820E+02 -0.10989309844E+04  0.11917484222E+04  0.91020525628E+02 0.  0.
          4    1    3    3  502    0 -0.49058286758E+02  0.63006249673E+02 -0.11937238733E+03  0.14361848716E+03  0.00000000000E+00 0. -1.
         -3    1    3    3    0  502 -0.15946112654E+03  0.28576861415E+03 -0.25711827651E+03  0.41617467465E+03  0.00000000000E+00 0.  1.
         13    1    5    5    0    0 -0.91105302909E+02 -0.25688815967E+03 -0.35894908457E+03  0.45070627699E+03  0.00000000000E+00 0. -1.
        -13    1    5    5    0    0 -0.14593140828E+03 -0.16811004197E+03 -0.29820315730E+03  0.37213181153E+03  0.00000000000E+00 0.  1.
          2    1    6    6  503    0  0.25644858690E+03  0.88681043791E+02 -0.66567431082E+03  0.71885498770E+03  0.00000000000E+00 0. -1.
         -2    1    6    6    0  503  0.18910753759E+03 -0.12457705972E+02 -0.43325667358E+03  0.47289343452E+03  0.00000000000E+00 0.  1.
<mgrwt>
<rscale>  0 0.14420677E+04</rscale>
<asrwt>0</asrwt>
<pdfrwt beam="1">  1        2 0.36207336E+00 0.14420677E+04</pdfrwt>
<pdfrwt beam="2">  1       -1 0.33985060E-01 0.14420677E+04</pdfrwt>
<totfact> 0.38295269E+01</totfact>
</mgrwt>
</event>
<event>
12    7  0.1637954E-007  0.2232296E+04  0.7818608E-02  0.8505105E-01
         -1   -1    0    0    0  501 -0.00000000000E+00  0.00000000000E+00  0.64567148455E+03  0.64567148455E+03  0.00000000000E+00 0.  1.
          2   -1    0    0  501    0  0.00000000000E+00 -0.00000000000E+00 -0.19294438562E+04  0.19294438562E+04  0.00000000000E+00 0. -1.
         24    2    1    2    0    0  0.77170336644E+03  0.51152956783E+03 -0.41278958943E+03  0.10167977503E+04  0.79333695528E+02 0.  0.
        254    2    1    2    0    0 -0.77170336644E+03 -0.51152956783E+03 -0.87098278217E+03  0.15583175905E+04  0.90141783948E+03 0.  0.
         23    2    4    4    0    0 -0.74684506463E+03 -0.62257823413E+03 -0.97246187534E+03  0.13780470254E+04  0.89164438032E+02 0.  0.
         23    2    4    4    0    0 -0.24858301810E+02  0.11104866630E+03  0.10147909317E+03  0.18027056506E+03  0.96175510513E+02 0.  0.
          2    1    3    3  502    0  0.67325565048E+03  0.47219219035E+03 -0.37947185685E+03  0.90566965593E+03  0.00000000000E+00 0. -1.
         -1    1    3    3    0  502  0.98447715958E+02  0.39337377485E+02 -0.33317732582E+02  0.11112809433E+03  0.00000000000E+00 0.  1.
         13    1    5    5    0    0 -0.59273571151E+03 -0.50737539136E+03 -0.82596849816E+03  0.11362171322E+04  0.00000000000E+00 0.  1.
        -13    1    5    5    0    0 -0.15410935312E+03 -0.11520284277E+03 -0.14649337719E+03  0.24182989323E+03  0.00000000000E+00 0. -1.
          2    1    6    6  503    0 -0.11584604420E+02  0.11658109623E+03  0.50985001665E+02  0.12776864033E+03  0.00000000000E+00 0. -1.
         -2    1    6    6    0  503 -0.13273697390E+02 -0.55324299344E+01  0.50494091505E+02  0.52501924729E+02  0.00000000000E+00 0.  1.
<mgrwt>
<rscale>  0 0.22322965E+04</rscale>
<asrwt>0</asrwt>
<pdfrwt beam="1">  1        2 0.29683752E+00 0.22322965E+04</pdfrwt>
<pdfrwt beam="2">  1       -1 0.99334075E-01 0.22322965E+04</pdfrwt>
<totfact> 0.73437756E+00</totfact>
</mgrwt>
</event>
<event>
12    7  0.1637954E-007  0.1355651E+04  0.7818608E-02  0.8986561E-01
         -1   -1    0    0    0  501 -0.00000000000E+00  0.00000000000E+00  0.15448920973E+03  0.15448920973E+03  0.00000000000E+00 0.  1.
          2   -1    0    0  501    0  0.00000000000E+00 -0.00000000000E+00 -0.29739769533E+04  0.29739769533E+04  0.00000000000E+00 0. -1.
         24    2    1    2    0    0 -0.42602609353E+02  0.35768365343E+03 -0.96758435315E+03  0.10353882323E+04  0.77825013850E+02 0.  0.
        254    2    1    2    0    0  0.42602609353E+02 -0.35768365343E+03 -0.18519033904E+04  0.20930779307E+04  0.90646372158E+03 0.  0.
         23    2    4    4    0    0 -0.19129791967E+03 -0.59885389893E+02 -0.16303627298E+04  0.16453313204E+04  0.94081716420E+02 0.  0.
         23    2    4    4    0    0  0.23390052903E+03 -0.29779826354E+03 -0.22154066062E+03  0.44774661031E+03  0.89462279702E+02 0.  0.
          4    1    3    3  502    0 -0.58690527320E+02  0.23184681685E+03 -0.68757489751E+03  0.72798129383E+03  0.00000000000E+00 0. -1.
         -3    1    3    3    0  502  0.16087917967E+02  0.12583683659E+03 -0.28000945564E+03  0.30740693843E+03  0.00000000000E+00 0.  1.
         13    1    5    5    0    0  0.62963596688E+01 -0.17735290318E+02 -0.10920349413E+03  0.11081330154E+03  0.00000000000E+00 0. -1.
        -13    1    5    5    0    0 -0.19759427934E+03 -0.42150099575E+02 -0.15211592356E+04  0.15345180189E+04  0.00000000000E+00 0.  1.
          4    1    6    6  503    0  0.45103597770E+02 -0.56655877961E+02 -0.48453433338E+01  0.72578925257E+02  0.00000000000E+00 0. -1.
         -4    1    6    6    0  503  0.18879693126E+03 -0.24114238558E+03 -0.21669531728E+03  0.37516768505E+03  0.00000000000E+00 0.  1.
<mgrwt>
<rscale>  0 0.13556509E+04</rscale>
<asrwt>0</asrwt>
<pdfrwt beam="1">  1        2 0.45753495E+00 0.13556509E+04</pdfrwt>
<pdfrwt beam="2">  1       -1 0.23767569E-01 0.13556509E+04</pdfrwt>
<totfact> 0.31002759E+01</totfact>
</mgrwt>
</event>
<event>
12    7  0.1637954E-007  0.2964928E+04  0.7818608E-02  0.8253818E-01
         -1   -1    0    0    0  501 -0.00000000000E+00  0.00000000000E+00  0.53645971931E+03  0.53645971931E+03  0.00000000000E+00 0.  1.
          2   -1    0    0  501    0  0.00000000000E+00 -0.00000000000E+00 -0.40966708254E+04  0.40966708254E+04  0.00000000000E+00 0. -1.
         24    2    1    2    0    0  0.11802215926E+04 -0.51934142166E+03 -0.10313525863E+04  0.16530142104E+04  0.78289861874E+02 0.  0.
        254    2    1    2    0    0 -0.11802215926E+04  0.51934142166E+03 -0.25288585198E+04  0.29801163343E+04  0.90737502330E+03 0.  0.
         23    2    4    4    0    0 -0.30854156480E+03  0.35162861456E+03 -0.16869265796E+04  0.17528819588E+04  0.89628661291E+02 0.  0.
         23    2    4    4    0    0 -0.87168002785E+03  0.16771280710E+03 -0.84193194017E+03  0.12272343754E+04  0.96442541302E+02 0.  0.
          2    1    3    3  502    0 -0.39937785336E+00  0.33964105839E+00 -0.37919034718E+01  0.38279747462E+01  0.00000000000E+00 0. -1.
         -1    1    3    3    0  502  0.11806209705E+04 -0.51968106272E+03 -0.10275606828E+04  0.16491862356E+04  0.00000000000E+00 0.  1.
         13    1    5    5    0    0 -0.98551666698E+02  0.95307121475E+02 -0.36037425923E+03  0.38557163424E+03  0.00000000000E+00 0. -1.
        -13    1    5    5    0    0 -0.20998989810E+03  0.25632149308E+03 -0.13265523204E+04  0.13673103246E+04  0.00000000000E+00 0.  1.
          3    1    6    6  503    0 -0.35329517116E+03  0.19949780221E+02 -0.33395421077E+03  0.48656025998E+03  0.00000000000E+00 0. -1.
         -3    1    6    6    0  503 -0.51838485669E+03  0.14776302688E+03 -0.50797772940E+03  0.74067411546E+03  0.00000000000E+00 0.  1.
<mgrwt>
<rscale>  0 0.29649276E+04</rscale>
<asrwt>0</asrwt>
<pdfrwt beam="1">  1        2 0.63025705E+00 0.29649276E+04</pdfrwt>
<pdfrwt beam="2">  1       -1 0.82532265E-01 0.29649276E+04</pdfrwt>
<totfact> 0.40522224E-01</totfact>
</mgrwt>
</event>
<event>
12    7  0.1637954E-007  0.3236689E+04  0.7818608E-02  0.8179194E-01
          2   -1    0    0  501    0  0.00000000000E+00  0.00000000000E+00  0.32515626827E+04  0.32515626827E+04  0.00000000000E+00 0. -1.
         -1   -1    0    0    0  501 -0.00000000000E+00 -0.00000000000E+00 -0.80547077644E+03  0.80547077644E+03  0.00000000000E+00 0.  1.
         24    2    1    2    0    0  0.10684330603E+04  0.69309716035E+03  0.21140507761E+04  0.24693134876E+04  0.79784323683E+02 0.  0.
        254    2    1    2    0    0 -0.10684330603E+04 -0.69309716035E+03  0.33204113021E+03  0.15877199715E+04  0.88807123458E+03 0.  0.
         23    2    4    4    0    0 -0.81142557448E+03 -0.28817428664E+03  0.57798494141E+03  0.10410991147E+04  0.91459781480E+02 0.  0.
         23    2    4    4    0    0 -0.25700748586E+03 -0.40492287371E+03 -0.24594381119E+03  0.54662085687E+03  0.91052849794E+02 0.  0.
          2    1    3    3  502    0  0.39020362290E+03  0.29517623568E+03  0.77980110777E+03  0.92058549039E+03  0.00000000000E+00 0. -1.
         -1    1    3    3    0  502  0.67822943744E+03  0.39792092468E+03  0.13342496683E+04  0.15487279972E+04  0.00000000000E+00 0.  1.
         13    1    5    5    0    0 -0.28991610062E+03 -0.57323646545E+02  0.19085332641E+03  0.35179871810E+03  0.00000000000E+00 0.  1.
        -13    1    5    5    0    0 -0.52150947386E+03 -0.23085064009E+03  0.38713161499E+03  0.68930039655E+03  0.00000000000E+00 0. -1.
          3    1    6    6  503    0 -0.25373960262E+03 -0.35964769656E+03 -0.23853009972E+03  0.50062646759E+03  0.00000000000E+00 0. -1.
         -3    1    6    6    0  503 -0.32678832373E+01 -0.45275177156E+02 -0.74137114712E+01  0.45994389279E+02  0.00000000000E+00 0.  1.
<mgrwt>
<rscale>  0 0.32366889E+04</rscale>
<asrwt>0</asrwt>
<pdfrwt beam="1">  1        2 0.50024041E+00 0.32366889E+04</pdfrwt>
<pdfrwt beam="2">  1       -1 0.12391858E+00 0.32366889E+04</pdfrwt>
<totfact> 0.65329326E-01</totfact>
</mgrwt>
</event>
<event>
12    7  0.1637954E-007  0.1393979E+04  0.7818608E-02  0.8958189E-01
         -1   -1    0    0    0  501 -0.00000000000E+00  0.00000000000E+00  0.21540779432E+04  0.21540779432E+04  0.00000000000E+00 0.  1.
          2   -1    0    0  501    0  0.00000000000E+00 -0.00000000000E+00 -0.22552295538E+03  0.22552295538E+03  0.00000000000E+00 0. -1.
         24    2    1    2    0    0 -0.37541872988E+03  0.80674633230E+02  0.44367852271E+03  0.59471358471E+03  0.96881355973E+02 0.  0.
        254    2    1    2    0    0  0.37541872988E+03 -0.80674633230E+02  0.14848764651E+04  0.17848873138E+04  0.91297151509E+03 0.  0.
         23    2    4    4    0    0  0.35350539756E+03 -0.42020337070E+03  0.12344675969E+04  0.13541096245E+04  0.90364198852E+02 0.  0.
         23    2    4    4    0    0  0.21913332324E+02  0.33952873747E+03  0.25040886818E+03  0.43077768937E+03  0.84290323862E+02 0.  0.
          2    1    3    3  502    0 -0.14211813722E+03 -0.81963811524E+01  0.12169356708E+03  0.18728072474E+03  0.00000000000E+00 0. -1.
         -1    1    3    3    0  502 -0.23330059266E+03  0.88871014383E+02  0.32198495563E+03  0.40743285997E+03  0.00000000000E+00 0.  1.
         13    1    5    5    0    0  0.11976726860E+03 -0.18642151430E+03  0.58006938341E+03  0.62094900691E+03  0.00000000000E+00 0.  1.
        -13    1    5    5    0    0  0.23373812896E+03 -0.23378185639E+03  0.65439821350E+03  0.73316061756E+03  0.00000000000E+00 0. -1.
          1    1    6    6  503    0  0.13389346811E+01  0.32551785298E+03  0.22980286637E+03  0.39846332673E+03  0.00000000000E+00 0. -1.
         -1    1    6    6    0  503  0.20574397643E+02  0.14010884488E+02  0.20606001804E+02  0.32314362641E+02  0.00000000000E+00 0.  1.
<mgrwt>
<rscale>  0 0.13939785E+04</rscale>
<asrwt>0</asrwt>
<pdfrwt beam="1">  1        2 0.34695841E-01 0.13939785E+04</pdfrwt>
<pdfrwt beam="2">  1       -1 0.33139659E+00 0.13939785E+04</pdfrwt>
<totfact> 0.34957983E+00</totfact>
</mgrwt>
</event>
<event>
12    7  0.1637954E-007  0.1455498E+04  0.7818608E-02  0.8914598E-01
          2   -1    0    0  501    0  0.00000000000E+00  0.00000000000E+00  0.58957428581E+03  0.58957428581E+03  0.00000000000E+00 0. -1.
         -1   -1    0    0    0  501 -0.00000000000E+00 -0.00000000000E+00 -0.89830682441E+03  0.89830682441E+03  0.00000000000E+00 0.  1.
         24    2    1    2    0    0 -0.23071079257E+03  0.34033911252E+01  0.29242475722E+03  0.38091773820E+03  0.79668260693E+02 0.  0.
        254    2    1    2    0    0  0.23071079257E+03 -0.34033911252E+01 -0.60115729582E+03  0.11069633720E+04  0.90041032857E+03 0.  0.
         23    2    4    4    0    0 -0.83011795884E+02  0.78804898135E+02  0.19498725927E+03  0.24235955745E+03  0.87275160180E+02 0.  0.
         23    2    4    4    0    0  0.31372258845E+03 -0.82208289261E+02 -0.79614455510E+03  0.86460381457E+03  0.92268836719E+02 0.  0.
          4    1    3    3  502    0 -0.14471267075E+03  0.36101537424E+02  0.20872748129E+03  0.25653896298E+03  0.00000000000E+00 0. -1.
         -3    1    3    3    0  502 -0.85998121820E+02 -0.32698146299E+02  0.83697275927E+02  0.12437877522E+03  0.00000000000E+00 0.  1.
         13    1    5    5    0    0 -0.25030762822E+01  0.48059760566E+01 -0.92331497847E+01  0.10705785897E+02  0.00000000000E+00 0. -1.
        -13    1    5    5    0    0 -0.80508719602E+02  0.73998922079E+02  0.20422040906E+03  0.23165377155E+03  0.00000000000E+00 0.  1.
          3    1    6    6  503    0  0.17834806365E+02 -0.11049060753E+02 -0.13700819378E+03  0.13860522077E+03  0.00000000000E+00 0. -1.
         -3    1    6    6    0  503  0.29588778209E+03 -0.71159228508E+02 -0.65913636132E+03  0.72599859380E+03  0.00000000000E+00 0.  1.
<mgrwt>
<rscale>  0 0.14554980E+04</rscale>
<asrwt>0</asrwt>
<pdfrwt beam="1">  1        2 0.90703736E-01 0.14554980E+04</pdfrwt>
<pdfrwt beam="2">  1       -1 0.13820105E+00 0.14554980E+04</pdfrwt>
<totfact> 0.24335825E+01</totfact>
</mgrwt>
</event>
<event>
12    7  0.1637954E-007  0.1578304E+04  0.7818608E-02  0.8833989E-01
          2   -1    0    0  501    0  0.00000000000E+00  0.00000000000E+00  0.10727121883E+04  0.10727121883E+04  0.00000000000E+00 0. -1.
         -1   -1    0    0    0  501 -0.00000000000E+00 -0.00000000000E+00 -0.58054778677E+03  0.58054778677E+03  0.00000000000E+00 0.  1.
         24    2    1    2    0    0  0.46302142008E+03 -0.19196462186E+03  0.60289791598E+02  0.51048702971E+03  0.75649831650E+02 0.  0.
        254    2    1    2    0    0 -0.46302142008E+03  0.19196462186E+03  0.43187460995E+03  0.11427729454E+04  0.93175912900E+03 0.  0.
         23    2    4    4    0    0 -0.74095591149E+02  0.51181075725E+03  0.33084441897E+03  0.62120500912E+03  0.94853708043E+02 0.  0.
         23    2    4    4    0    0 -0.38892582894E+03 -0.31984613539E+03  0.10103019098E+03  0.52156793626E+03  0.90890934141E+02 0.  0.
          4    1    3    3  502    0  0.38662352511E+03 -0.18682889702E+03  0.62277846236E+02  0.43389090456E+03  0.00000000000E+00 0. -1.
         -3    1    3    3    0  502  0.76397894974E+02 -0.51357248347E+01 -0.19880546388E+01  0.76596125145E+02  0.00000000000E+00 0.  1.
         13    1    5    5    0    0  0.20721012821E+02  0.87026266247E+02  0.41889672330E+02  0.98780949769E+02  0.00000000000E+00 0. -1.
        -13    1    5    5    0    0 -0.94816603970E+02  0.42478449100E+03  0.28895474664E+03  0.52242405935E+03  0.00000000000E+00 0.  1.
          3    1    6    6  503    0 -0.70173058382E+02 -0.57559591601E+02  0.55227143144E+02  0.10624218582E+03  0.00000000000E+00 0. -1.
         -3    1    6    6    0  503 -0.31875277055E+03 -0.26228654379E+03  0.45803047837E+02  0.41532575044E+03  0.00000000000E+00 0.  1.
<mgrwt>
<rscale>  0 0.15783038E+04</rscale>
<asrwt>0</asrwt>
<pdfrwt beam="1">  1        2 0.16503264E+00 0.15783038E+04</pdfrwt>
<pdfrwt beam="2">  1       -1 0.89315044E-01 0.15783038E+04</pdfrwt>
<totfact> 0.30496622E+01</totfact>
</mgrwt>
</event>
<event>
12    7  0.1637954E-007  0.1868198E+04  0.7818608E-02  0.8670850E-01
         -1   -1    0    0    0  501 -0.00000000000E+00  0.00000000000E+00  0.44159667380E+03  0.44159667380E+03  0.00000000000E+00 0.  1.
          2   -1    0    0  501    0  0.00000000000E+00 -0.00000000000E+00 -0.19758783978E+04  0.19758783978E+04  0.00000000000E+00 0. -1.
         24    2    1    2    0    0  0.62445826645E+03 -0.34057415293E+03 -0.66246261502E+03  0.97593648766E+03  0.87501036989E+02 0.  0.
        254    2    1    2    0    0 -0.62445826645E+03  0.34057415293E+03 -0.87181910896E+03  0.14415385839E+04  0.90112488036E+03 0.  0.
         23    2    4    4    0    0 -0.81706129187E+03  0.18881146691E+03 -0.82362060940E+03  0.11788890986E+04  0.90496817386E+02 0.  0.
         23    2    4    4    0    0  0.19260302543E+03  0.15176268602E+03 -0.48198499565E+02  0.26264948528E+03  0.80832038729E+02 0.  0.
          4    1    3    3  502    0  0.14710461683E+03 -0.53646486470E+02 -0.10924490401E+03  0.19092449517E+03  0.00000000000E+00 0. -1.
         -3    1    3    3    0  502  0.47735364962E+03 -0.28692766646E+03 -0.55321771101E+03  0.78501199250E+03  0.00000000000E+00 0.  1.
         13    1    5    5    0    0 -0.20250900192E+03  0.77499486578E+02 -0.24944061588E+03  0.33050973833E+03  0.00000000000E+00 0. -1.
        -13    1    5    5    0    0 -0.61455228995E+03  0.11131198033E+03 -0.57417999352E+03  0.84837936031E+03  0.00000000000E+00 0.  1.
          2    1    6    6  503    0  0.66504225304E+02  0.10058055024E+02 -0.24053390039E+02  0.71432079814E+02  0.00000000000E+00 0. -1.
         -2    1    6    6    0  503  0.12609880012E+03  0.14170463100E+03 -0.24145109526E+02  0.19121740547E+03  0.00000000000E+00 0.  1.
<mgrwt>
<rscale>  0 0.18681984E+04</rscale>
<asrwt>0</asrwt>
<pdfrwt beam="1">  1        2 0.30398129E+00 0.18681984E+04</pdfrwt>
<pdfrwt beam="2">  1       -1 0.67937950E-01 0.18681984E+04</pdfrwt>
<totfact> 0.16162133E+01</totfact>
</mgrwt>
</event>
<event>
12    7  0.1637954E-007  0.2117397E+04  0.7818608E-02  0.8553618E-01
          2   -1    0    0  501    0  0.00000000000E+00  0.00000000000E+00  0.17537535269E+04  0.17537535269E+04  0.00000000000E+00 0. -1.
         -1   -1    0    0    0  501 -0.00000000000E+00 -0.00000000000E+00 -0.63911043983E+03  0.63911043983E+03  0.00000000000E+00 0.  1.
         24    2    1    2    0    0 -0.71627620219E+03 -0.44802556235E+03  0.68431904115E+03  0.10901166801E+04  0.79267419743E+02 0.  0.
        254    2    1    2    0    0  0.71627620219E+03  0.44802556235E+03  0.43032404594E+03  0.13027472866E+04  0.89341659152E+03 0.  0.
         23    2    4    4    0    0  0.44324109256E+03 -0.49667824571E+02 -0.15528104431E+03  0.48109328341E+03  0.91700521760E+02 0.  0.
         23    2    4    4    0    0  0.27303510963E+03  0.49769338692E+03  0.58560509026E+03  0.82165400323E+03  0.99674975862E+02 0.  0.
          2    1    3    3  502    0 -0.52276161179E+03 -0.30626924667E+03  0.52924770806E+03  0.80447727793E+03  0.00000000000E+00 0. -1.
         -1    1    3    3    0  502 -0.19351459040E+03 -0.14175631568E+03  0.15507133309E+03  0.28563940218E+03  0.00000000000E+00 0.  1.
         13    1    5    5    0    0  0.19135837543E+03 -0.50909834050E+01 -0.11163540762E+03  0.22159966199E+03  0.00000000000E+00 0.  1.
        -13    1    5    5    0    0  0.25188271712E+03 -0.44576841166E+02 -0.43645636690E+02  0.25949362142E+03  0.00000000000E+00 0. -1.
          3    1    6    6  503    0  0.27069468268E+03  0.43010392340E+03  0.50512122078E+03  0.71652804819E+03  0.00000000000E+00 0. -1.
         -3    1    6    6    0  503  0.23404269439E+01  0.67589463518E+02  0.80483869482E+02  0.10512595504E+03  0.00000000000E+00 0.  1.
<mgrwt>
<rscale>  0 0.21173967E+04</rscale>
<asrwt>0</asrwt>
<pdfrwt beam="1">  1        2 0.26980823E+00 0.21173967E+04</pdfrwt>
<pdfrwt beam="2">  1       -1 0.98324684E-01 0.21173967E+04</pdfrwt>
<totfact> 0.95026354E+00</totfact>
</mgrwt>
</event>
<event>
12    7  0.1637954E-007  0.2208801E+04  0.7818608E-02  0.8514774E-01
          2   -1    0    0  501    0  0.00000000000E+00  0.00000000000E+00  0.11385265983E+04  0.11385265983E+04  0.00000000000E+00 0. -1.
         -1   -1    0    0    0  501 -0.00000000000E+00 -0.00000000000E+00 -0.10712968953E+04  0.10712968953E+04  0.00000000000E+00 0.  1.
         24    2    1    2    0    0  0.50314688484E+03  0.30763442153E+03 -0.67547202590E+03  0.90017294175E+03  0.79076812362E+02 0.  0.
        254    2    1    2    0    0 -0.50314688484E+03 -0.30763442153E+03  0.74270172895E+03  0.13096505518E+04  0.90320705529E+03 0.  0.
         23    2    4    4    0    0 -0.21039628238E+03  0.43131404688E+02  0.80761974431E+03  0.84042313534E+03  0.89075705497E+02 0.  0.
         23    2    4    4    0    0 -0.29275060246E+03 -0.35076582622E+03 -0.64918015363E+02  0.46922741650E+03  0.84973169826E+02 0.  0.
          2    1    3    3  502    0  0.26891808458E+03  0.16026840213E+03 -0.29870926558E+03  0.43270096172E+03  0.00000000000E+00 0. -1.
         -1    1    3    3    0  502  0.23422880026E+03  0.14736601941E+03 -0.37676276032E+03  0.46747198003E+03  0.00000000000E+00 0.  1.
         13    1    5    5    0    0 -0.63212097035E+02 -0.12918092794E+02  0.13520323583E+03  0.14980841536E+03  0.00000000000E+00 0. -1.
        -13    1    5    5    0    0 -0.14718418535E+03  0.56049497483E+02  0.67241650848E+03  0.69061471998E+03  0.00000000000E+00 0.  1.
          1    1    6    6  503    0 -0.47062747818E+01 -0.15626390658E+02  0.12533915044E+02  0.20577466648E+02  0.00000000000E+00 0. -1.
         -1    1    6    6    0  503 -0.28804432768E+03 -0.33513943556E+03 -0.77451930407E+02  0.44864994985E+03  0.00000000000E+00 0.  1.
<mgrwt>
<rscale>  0 0.22088006E+04</rscale>
<asrwt>0</asrwt>
<pdfrwt beam="1">  1        2 0.17515794E+00 0.22088006E+04</pdfrwt>
<pdfrwt beam="2">  1       -1 0.16481491E+00 0.22088006E+04</pdfrwt>
<totfact> 0.57762901E+00</totfact>
</mgrwt>
</event>
<event>
12    7  0.1637954E-007  0.1181039E+04  0.7818608E-02  0.9129617E-01
         -1   -1    0    0    0  501 -0.00000000000E+00  0.00000000000E+00  0.37374450174E+03  0.37374450174E+03  0.00000000000E+00 0.  1.
          2   -1    0    0  501    0  0.00000000000E+00 -0.00000000000E+00 -0.93302630188E+03  0.93302630188E+03  0.00000000000E+00 0. -1.
         24    2    1    2    0    0 -0.62743621762E+02  0.20780695542E+03 -0.26558258014E+02  0.23289455138E+03  0.80087690695E+02 0.  0.
        254    2    1    2    0    0  0.62743621762E+02 -0.20780695542E+03 -0.53272354212E+03  0.10738762522E+04  0.90680501763E+03 0.  0.
         23    2    4    4    0    0 -0.93339148106E+02 -0.53302810878E+03 -0.23074523191E+03  0.59438464655E+03  0.84962254455E+02 0.  0.
         23    2    4    4    0    0  0.15608276987E+03  0.32522115337E+03 -0.30197831022E+03  0.47949160569E+03  0.92685869702E+02 0.  0.
          4    1    3    3  502    0 -0.81636722478E+01  0.26324702622E+02 -0.33344997748E+02  0.43261118658E+02  0.00000000000E+00 0. -1.
         -1    1    3    3    0  502 -0.54579949514E+02  0.18148225279E+03  0.67867397348E+01  0.18963343272E+03  0.00000000000E+00 0.  1.
         13    1    5    5    0    0 -0.44830265409E+02 -0.37342646950E+03 -0.19552966834E+03  0.42389731306E+03  0.00000000000E+00 0. -1.
        -13    1    5    5    0    0 -0.48508882697E+02 -0.15960163929E+03 -0.35215563574E+02  0.17048733349E+03  0.00000000000E+00 0.  1.
          3    1    6    6  503    0  0.16283262373E+03  0.32639212542E+03 -0.29127719820E+03  0.46678548508E+03  0.00000000000E+00 0. -1.
         -3    1    6    6    0  503 -0.67498538623E+01 -0.11709720546E+01 -0.10701112016E+02  0.12706120616E+02  0.00000000000E+00 0.  1.
<mgrwt>
<rscale>  0 0.11810393E+04</rscale>
<asrwt>0</asrwt>
<pdfrwt beam="1">  1        2 0.14354251E+00 0.11810393E+04</pdfrwt>
<pdfrwt beam="2">  1       -1 0.57499155E-01 0.11810393E+04</pdfrwt>
<totfact> 0.96203271E+01</totfact>
</mgrwt>
</event>
<event>
12    7  0.1637954E-007  0.1401335E+04  0.7818608E-02  0.8952853E-01
         -1   -1    0    0    0  501 -0.00000000000E+00  0.00000000000E+00  0.47873783401E+03  0.47873783401E+03  0.00000000000E+00 0.  1.
          2   -1    0    0  501    0  0.00000000000E+00 -0.00000000000E+00 -0.10254772830E+04  0.10254772830E+04  0.00000000000E+00 0. -1.
         24    2    1    2    0    0 -0.13023408776E+03 -0.37268194701E+03 -0.67172294991E+02  0.40831827444E+03  0.79742992078E+02 0.  0.
        254    2    1    2    0    0  0.13023408776E+03  0.37268194701E+03 -0.47956715395E+03  0.10958968425E+04  0.90285795288E+03 0.  0.
         23    2    4    4    0    0  0.29359226158E+03  0.15161394651E+03  0.17125577750E+03  0.38335920861E+03  0.91937678139E+02 0.  0.
         23    2    4    4    0    0 -0.16335817382E+03  0.22106800050E+03 -0.65082293145E+03  0.71253763392E+03  0.92641447814E+02 0.  0.
          4    1    3    3  502    0 -0.61358985419E+02 -0.21215801365E+03  0.87875518664E+00  0.22085452239E+03  0.00000000000E+00 0. -1.
         -3    1    3    3    0  502 -0.68875102344E+02 -0.16052393336E+03 -0.68051050178E+02  0.18746375205E+03  0.00000000000E+00 0.  1.
         13    1    5    5    0    0  0.18196223387E+03  0.48422905498E+02  0.11833771037E+03  0.22239344871E+03  0.00000000000E+00 0. -1.
        -13    1    5    5    0    0  0.11163002771E+03  0.10319104101E+03  0.52918067125E+02  0.16096575990E+03  0.00000000000E+00 0.  1.
          3    1    6    6  503    0 -0.15374657465E+03  0.19722444226E+03 -0.63471208108E+03  0.68219858964E+03  0.00000000000E+00 0. -1.
         -3    1    6    6    0  503 -0.96115991712E+01  0.23843558234E+02 -0.16110850366E+02  0.30339044273E+02  0.00000000000E+00 0.  1.
<mgrwt>
<rscale>  0 0.14013348E+04</rscale>
<asrwt>0</asrwt>
<pdfrwt beam="1">  1        2 0.15776574E+00 0.14013348E+04</pdfrwt>
<pdfrwt beam="2">  1       -1 0.73651974E-01 0.14013348E+04</pdfrwt>
<totfact> 0.50026737E+01</totfact>
</mgrwt>
</event>
<event>
12    7  0.1637954E-007  0.1719178E+04  0.7818608E-02  0.8750501E-01
         -3   -1    0    0    0  501 -0.00000000000E+00  0.00000000000E+00  0.15232365681E+04  0.15232365681E+04  0.00000000000E+00 0.  1.
          4   -1    0    0  501    0  0.00000000000E+00 -0.00000000000E+00 -0.48508133676E+03  0.48508133676E+03  0.00000000000E+00 0. -1.
         24    2    1    2    0    0 -0.37778157632E+03 -0.41894524960E+03  0.68175183189E+03  0.88863669085E+03  0.81581655256E+02 0.  0.
        254    2    1    2    0    0  0.37778157632E+03  0.41894524960E+03  0.35640339948E+03  0.11196812140E+04  0.89912657413E+03 0.  0.
         23    2    4    4    0    0  0.36007722798E+03 -0.41293375191E+02  0.50403984964E+03  0.62751713071E+03  0.91437554503E+02 0.  0.
         23    2    4    4    0    0  0.17704348338E+02  0.46023862479E+03 -0.14763645016E+03  0.49216408331E+03  0.91081983856E+02 0.  0.
          4    1    3    3  502    0 -0.23248836206E+02 -0.64814633845E+02  0.79324740118E+02  0.10504217981E+03  0.00000000000E+00 0. -1.
         -3    1    3    3    0  502 -0.35453274011E+03 -0.35413061576E+03  0.60242709177E+03  0.78359451104E+03  0.00000000000E+00 0.  1.
         13    1    5    5    0    0  0.18382810636E+03  0.59091996680E+01  0.19082295273E+03  0.26503035792E+03  0.00000000000E+00 0. -1.
        -13    1    5    5    0    0  0.17624912162E+03 -0.47202574859E+02  0.31321689691E+03  0.36248677280E+03  0.00000000000E+00 0.  1.
          2    1    6    6  503    0  0.54959294164E+02  0.29259441984E+03 -0.90044721429E+02  0.31103065828E+03  0.00000000000E+00 0.  1.
         -2    1    6    6    0  503 -0.37254945826E+02  0.16764420495E+03 -0.57591728730E+02  0.18113342503E+03  0.00000000000E+00 0. -1.
<mgrwt>
<rscale>  0 0.17191784E+04</rscale>
<asrwt>0</asrwt>
<pdfrwt beam="1">  1        4 0.74627898E-01 0.17191784E+04</pdfrwt>
<pdfrwt beam="2">  1       -3 0.23434409E+00 0.17191784E+04</pdfrwt>
<totfact> 0.31925575E-01</totfact>
</mgrwt>
</event>
<event>
12    7  0.1637954E-007  0.2085615E+04  0.7818608E-02  0.8567606E-01
         -1   -1    0    0    0  501 -0.00000000000E+00  0.00000000000E+00  0.32246278482E+03  0.32246278482E+03  0.00000000000E+00 0.  1.
          2   -1    0    0  501    0  0.00000000000E+00 -0.00000000000E+00 -0.33723206712E+04  0.33723206712E+04  0.00000000000E+00 0. -1.
         24    2    1    2    0    0  0.51890776760E+03  0.58642958373E+03 -0.67260614179E+03  0.10353333293E+04  0.79694120658E+02 0.  0.
        254    2    1    2    0    0 -0.51890776760E+03 -0.58642958373E+03 -0.23772517445E+04  0.26594501267E+04  0.89899065138E+03 0.  0.
         23    2    4    4    0    0 -0.43270836144E+03  0.87973416582E+02 -0.56549001659E+03  0.72216955748E+03  0.82304694855E+02 0.  0.
         23    2    4    4    0    0 -0.86199406164E+02 -0.67440300031E+03 -0.18117617280E+04  0.19372805692E+04  0.91245276047E+02 0.  0.
          2    1    3    3  502    0  0.48006499796E+03  0.56686717318E+03 -0.64532244807E+03  0.98399281312E+03  0.00000000000E+00 0. -1.
         -1    1    3    3    0  502  0.38842769637E+02  0.19562410549E+02 -0.27283693718E+02  0.51340516188E+02  0.00000000000E+00 0.  1.
         13    1    5    5    0    0 -0.36946734398E+03  0.44926098514E+02 -0.45617741115E+03  0.58874638261E+03  0.00000000000E+00 0. -1.
        -13    1    5    5    0    0 -0.63241017457E+02  0.43047318068E+02 -0.10931260545E+03  0.13342317487E+03  0.00000000000E+00 0.  1.
          1    1    6    6  503    0 -0.22320376911E+02 -0.49539425391E+03 -0.13168811870E+04  0.14071566105E+04  0.00000000000E+00 0. -1.
         -1    1    6    6    0  503 -0.63879029253E+02 -0.17900874640E+03 -0.49488054099E+03  0.53012395863E+03  0.00000000000E+00 0.  1.
<mgrwt>
<rscale>  0 0.20856154E+04</rscale>
<asrwt>0</asrwt>
<pdfrwt beam="1">  1        2 0.51881853E+00 0.20856154E+04</pdfrwt>
<pdfrwt beam="2">  1       -1 0.49609662E-01 0.20856154E+04</pdfrwt>
<totfact> 0.42760195E+00</totfact>
</mgrwt>
</event>
<event>
12    7  0.1637954E-007  0.1825405E+04  0.7818608E-02  0.8692905E-01
          2   -1    0    0  501    0  0.00000000000E+00  0.00000000000E+00  0.12010941204E+04  0.12010941204E+04  0.00000000000E+00 0. -1.
         -1   -1    0    0    0  501 -0.00000000000E+00 -0.00000000000E+00 -0.69355603873E+03  0.69355603873E+03  0.00000000000E+00 0.  1.
         24    2    1    2    0    0 -0.64124603582E+02  0.59134665112E+03 -0.17250734584E+03  0.62453401684E+03  0.80505448505E+02 0.  0.
        254    2    1    2    0    0  0.64124603582E+02 -0.59134665112E+03  0.68004542750E+03  0.12701161423E+04  0.89270958595E+03 0.  0.
         23    2    4    4    0    0  0.28653124301E+03  0.11276157266E+03  0.27282900120E+03  0.42168863982E+03  0.92576020482E+02 0.  0.
         23    2    4    4    0    0 -0.22240663942E+03 -0.70410822378E+03  0.40721642630E+03  0.84842750246E+03  0.93653110113E+02 0.  0.
          4    1    3    3  502    0 -0.19541202830E+02  0.32144785471E+02  0.48355893891E-01  0.37618455302E+02  0.00000000000E+00 0. -1.
         -3    1    3    3    0  502 -0.44583400753E+02  0.55920186565E+03 -0.17255570174E+03  0.58691556153E+03  0.00000000000E+00 0.  1.
         13    1    5    5    0    0  0.17373074351E+02 -0.11910342418E+02  0.37647112293E+02  0.43139135746E+02  0.00000000000E+00 0. -1.
        -13    1    5    5    0    0  0.26915816865E+03  0.12467191508E+03  0.23518188890E+03  0.37854950407E+03  0.00000000000E+00 0.  1.
          2    1    6    6  503    0 -0.64741326538E+01 -0.94271611019E+02  0.78073080648E+02  0.12257429159E+03  0.00000000000E+00 0.  1.
         -2    1    6    6    0  503 -0.21593250677E+03 -0.60983661276E+03  0.32914334565E+03  0.72585321087E+03  0.00000000000E+00 0. -1.
<mgrwt>
<rscale>  0 0.18254052E+04</rscale>
<asrwt>0</asrwt>
<pdfrwt beam="1">  1        2 0.18478371E+00 0.18254052E+04</pdfrwt>
<pdfrwt beam="2">  1       -1 0.10670093E+00 0.18254052E+04</pdfrwt>
<totfact> 0.16660974E+01</totfact>
</mgrwt>
</event>
<event>
12    7  0.1637954E-007  0.1602391E+04  0.7818608E-02  0.8819080E-01
          2   -1    0    0  501    0  0.00000000000E+00  0.00000000000E+00  0.61973273768E+03  0.61973273768E+03  0.00000000000E+00 0. -1.
         -1   -1    0    0    0  501 -0.00000000000E+00 -0.00000000000E+00 -0.10357921577E+04  0.10357921577E+04  0.00000000000E+00 0.  1.
         24    2    1    2    0    0  0.31646163662E+03 -0.43977583814E+03 -0.18706352368E+03  0.57879506648E+03  0.80375442961E+02 0.  0.
        254    2    1    2    0    0 -0.31646163662E+03  0.43977583814E+03 -0.22899589639E+03  0.10767298289E+04  0.90186320953E+03 0.  0.
         23    2    4    4    0    0  0.11203616366E+03  0.18718385300E+03 -0.46277394978E+03  0.51989927933E+03  0.92442605235E+02 0.  0.
         23    2    4    4    0    0 -0.42849780028E+03  0.25259198515E+03  0.23377805339E+03  0.55683054961E+03  0.89414802654E+02 0.  0.
          4    1    3    3  502    0  0.17820944150E+02 -0.84710188003E+01  0.46241445858E+01  0.20266398867E+02  0.00000000000E+00 0. -1.
         -3    1    3    3    0  502  0.29864069247E+03 -0.43130481934E+03 -0.19168766827E+03  0.55852866762E+03  0.00000000000E+00 0.  1.
         13    1    5    5    0    0 -0.14710000156E+02  0.21275610468E+02 -0.77340680520E+02  0.81551312489E+02  0.00000000000E+00 0.  1.
        -13    1    5    5    0    0  0.12674616382E+03  0.16590824253E+03 -0.38543326926E+03  0.43834796684E+03  0.00000000000E+00 0. -1.
          2    1    6    6  503    0 -0.20874073552E+03  0.13653216245E+03  0.69527920239E+02  0.25893601090E+03  0.00000000000E+00 0. -1.
         -2    1    6    6    0  503 -0.21975706476E+03  0.11605982270E+03  0.16425013315E+03  0.29789453871E+03  0.00000000000E+00 0.  1.
<mgrwt>
<rscale>  0 0.16023911E+04</rscale>
<asrwt>0</asrwt>
<pdfrwt beam="1">  1        2 0.95343499E-01 0.16023911E+04</pdfrwt>
<pdfrwt beam="2">  1       -1 0.15935264E+00 0.16023911E+04</pdfrwt>
<totfact> 0.15436239E+01</totfact>
</mgrwt>
</event>
<event>
12    7  0.1637954E-007  0.1212024E+04  0.7818608E-02  0.9102396E-01
         -1   -1    0    0    0  501 -0.00000000000E+00  0.00000000000E+00  0.52658135108E+03  0.52658135108E+03  0.00000000000E+00 0.  1.
          2   -1    0    0  501    0  0.00000000000E+00 -0.00000000000E+00 -0.69742432737E+03  0.69742432737E+03  0.00000000000E+00 0. -1.
         24    2    1    2    0    0 -0.77389547121E+02 -0.61184166437E+02 -0.28239714814E+03  0.30990840072E+03  0.81008785543E+02 0.  0.
        254    2    1    2    0    0  0.77389547121E+02  0.61184166437E+02  0.11155417184E+03  0.91409727772E+03  0.90188516767E+03 0.  0.
         23    2    4    4    0    0  0.70750589395E+02 -0.31600658766E+03 -0.22163517156E+03  0.40272998147E+03  0.90573060876E+02 0.  0.
         23    2    4    4    0    0  0.66389577256E+01  0.37719075409E+03  0.33318934340E+03  0.51136729626E+03  0.90357248704E+02 0.  0.
          4    1    3    3  502    0 -0.56971350077E+02 -0.74449205461E+02 -0.26158811830E+03  0.27787904304E+03  0.00000000000E+00 0. -1.
         -3    1    3    3    0  502 -0.20418197044E+02  0.13265039024E+02 -0.20809029834E+02  0.32029357681E+02  0.00000000000E+00 0.  1.
         13    1    5    5    0    0  0.92092251725E+02 -0.26367467880E+03 -0.19191465523E+03  0.33887542543E+03  0.00000000000E+00 0. -1.
        -13    1    5    5    0    0 -0.21341662329E+02 -0.52331908853E+02 -0.29720516326E+02  0.63854556031E+02  0.00000000000E+00 0.  1.
          1    1    6    6  503    0 -0.15482081594E+02  0.30744175320E+03  0.30384534986E+03  0.43252991006E+03  0.00000000000E+00 0. -1.
         -1    1    6    6    0  503  0.22121039319E+02  0.69749000895E+02  0.29343993539E+02  0.78837386203E+02  0.00000000000E+00 0.  1.
<mgrwt>
<rscale>  0 0.12120242E+04</rscale>
<asrwt>0</asrwt>
<pdfrwt beam="1">  1        2 0.10729605E+00 0.12120242E+04</pdfrwt>
<pdfrwt beam="2">  1       -1 0.81012516E-01 0.12120242E+04</pdfrwt>
<totfact> 0.70433171E+01</totfact>
</mgrwt>
</event>
<event>
12    7  0.1637954E-007  0.1099427E+04  0.7818608E-02  0.9205751E-01
         -1   -1    0    0    0  501 -0.00000000000E+00  0.00000000000E+00  0.12893345671E+04  0.12893345671E+04  0.00000000000E+00 0.  1.
          2   -1    0    0  501    0  0.00000000000E+00 -0.00000000000E+00 -0.23437263574E+03  0.23437263574E+03  0.00000000000E+00 0. -1.
         24    2    1    2    0    0 -0.12925712809E+03  0.42883450148E+02  0.50389220205E+02  0.16810761613E+03  0.84703610483E+02 0.  0.
        254    2    1    2    0    0  0.12925712809E+03 -0.42883450148E+02  0.10045727112E+04  0.13555995867E+04  0.89996528381E+03 0.  0.
         23    2    4    4    0    0 -0.16438160096E+03 -0.21445815336E+03 -0.57360218642E+01  0.28548035683E+03  0.91937597909E+02 0.  0.
         23    2    4    4    0    0  0.29363872905E+03  0.17157470322E+03  0.10103087330E+04  0.10701192299E+04  0.93647467538E+02 0.  0.
          2    1    3    3  502    0 -0.45361636843E+02  0.30278626144E+02 -0.19777051008E+02  0.58013834944E+02  0.00000000000E+00 0. -1.
         -1    1    3    3    0  502 -0.83895491251E+02  0.12604824003E+02  0.70166271212E+02  0.11009378119E+03  0.00000000000E+00 0.  1.
         13    1    5    5    0    0 -0.58349852255E+02 -0.12330526046E+03  0.33075393236E+02  0.14036692685E+03  0.00000000000E+00 0.  1.
        -13    1    5    5    0    0 -0.10603174870E+03 -0.91152892904E+02 -0.38811415100E+02  0.14511342998E+03  0.00000000000E+00 0. -1.
          2    1    6    6  503    0  0.35674058774E+02  0.39460975670E+02  0.83094371640E+02  0.98663476872E+02  0.00000000000E+00 0.  1.
         -2    1    6    6    0  503  0.25796467028E+03  0.13211372755E+03  0.92721436140E+03  0.97145575304E+03  0.00000000000E+00 0. -1.
<mgrwt>
<rscale>  0 0.10994267E+04</rscale>
<asrwt>0</asrwt>
<pdfrwt beam="1">  1        2 0.36057329E-01 0.10994267E+04</pdfrwt>
<pdfrwt beam="2">  1       -1 0.19835916E+00 0.10994267E+04</pdfrwt>
<totfact> 0.25480452E+01</totfact>
</mgrwt>
</event>
<event>
12    7  0.1637954E-007  0.2513980E+04  0.7818608E-02  0.8398022E-01
          2   -1    0    0  501    0  0.00000000000E+00  0.00000000000E+00  0.94275386798E+03  0.94275386798E+03  0.00000000000E+00 0. -1.
         -1   -1    0    0    0  501 -0.00000000000E+00 -0.00000000000E+00 -0.16759664731E+04  0.16759664731E+04  0.00000000000E+00 0.  1.
         24    2    1    2    0    0 -0.59163246770E+03 -0.44699744913E+01  0.62981641550E+03  0.86783437632E+03  0.80117600942E+02 0.  0.
        254    2    1    2    0    0  0.59163246770E+03  0.44699744913E+01 -0.13630290206E+04  0.17508859647E+04  0.92612342212E+03 0.  0.
         23    2    4    4    0    0  0.27793168107E+03  0.31778872204E+03 -0.11896914719E+04  0.12653214904E+04  0.86237952693E+02 0.  0.
         23    2    4    4    0    0  0.31370078663E+03 -0.31331874755E+03 -0.17333754867E+03  0.48556447433E+03  0.95656321571E+02 0.  0.
          2    1    3    3  502    0 -0.28172289909E+03 -0.35901483625E+02  0.33164116975E+03  0.43662635499E+03  0.00000000000E+00 0. -1.
         -1    1    3    3    0  502 -0.30990956860E+03  0.31431509133E+02  0.29817524576E+03  0.43120802133E+03  0.00000000000E+00 0.  1.
         13    1    5    5    0    0  0.23089231047E+03  0.24478051971E+03 -0.10295604487E+04  0.10831544116E+04  0.00000000000E+00 0. -1.
        -13    1    5    5    0    0  0.47039370598E+02  0.73008202332E+02 -0.16013102324E+03  0.18216707880E+03  0.00000000000E+00 0.  1.
          3    1    6    6  503    0  0.16005857070E+03 -0.19275963622E+03 -0.52758816345E+02  0.25604397300E+03  0.00000000000E+00 0. -1.
         -3    1    6    6    0  503  0.15364221593E+03 -0.12055911133E+03 -0.12057873233E+03  0.22952050133E+03  0.00000000000E+00 0.  1.
<mgrwt>
<rscale>  0 0.25139800E+04</rscale>
<asrwt>0</asrwt>
<pdfrwt beam="1">  1        2 0.14503906E+00 0.25139800E+04</pdfrwt>
<pdfrwt beam="2">  1       -1 0.25784099E+00 0.25139800E+04</pdfrwt>
<totfact> 0.17279864E+00</totfact>
</mgrwt>
</event>
<event>
12    7  0.1637954E-007  0.2208286E+04  0.7818608E-02  0.8514987E-01
          2   -1    0    0  501    0  0.00000000000E+00  0.00000000000E+00  0.27427922907E+04  0.27427922907E+04  0.00000000000E+00 0. -1.
         -1   -1    0    0    0  501 -0.00000000000E+00 -0.00000000000E+00 -0.44448565963E+03  0.44448565963E+03  0.00000000000E+00 0.  1.
         24    2    1    2    0    0 -0.90503275033E+03 -0.89501155297E+02  0.79936462415E+03  0.12134205245E+04  0.79440738780E+02 0.  0.
        254    2    1    2    0    0  0.90503275033E+03  0.89501155297E+02  0.14989420069E+04  0.19738574258E+04  0.90674762825E+03 0.  0.
         23    2    4    4    0    0  0.68775715740E+03 -0.22568154238E+03  0.13832589562E+04  0.15635742157E+04  0.86121553478E+02 0.  0.
         23    2    4    4    0    0  0.21727559294E+03  0.31518269767E+03  0.11568305066E+03  0.41028321006E+03  0.91656576681E+02 0.  0.
          2    1    3    3  502    0 -0.88988122217E+03 -0.97536374350E+02  0.77811477270E+03  0.11861132043E+04  0.00000000000E+00 0. -1.
         -1    1    3    3    0  502 -0.15151528164E+02  0.80352190533E+01  0.21249851453E+02  0.27307320222E+02  0.00000000000E+00 0.  1.
         13    1    5    5    0    0  0.17757981338E+03 -0.63712854468E+02  0.44551647005E+03  0.48381695199E+03  0.00000000000E+00 0.  1.
        -13    1    5    5    0    0  0.51017734401E+03 -0.16196868791E+03  0.93774248619E+03  0.10797572637E+04  0.00000000000E+00 0. -1.
          3    1    6    6  503    0  0.25487901656E+02  0.80165482521E+02 -0.39294269632E+01  0.84211508210E+02  0.00000000000E+00 0. -1.
         -3    1    6    6    0  503  0.19178769128E+03  0.23501721515E+03  0.11961247763E+03  0.32607170185E+03  0.00000000000E+00 0.  1.
<mgrwt>
<rscale>  0 0.22082861E+04</rscale>
<asrwt>0</asrwt>
<pdfrwt beam="1">  1        2 0.42196803E+00 0.22082861E+04</pdfrwt>
<pdfrwt beam="2">  1       -1 0.68382411E-01 0.22082861E+04</pdfrwt>
<totfact> 0.56352513E+00</totfact>
</mgrwt>
</event>
<event>
12    7  0.1637954E-007  0.1864201E+04  0.7818608E-02  0.8672884E-01
         -1   -1    0    0    0  501 -0.00000000000E+00  0.00000000000E+00  0.90388937719E+03  0.90388937719E+03  0.00000000000E+00 0.  1.
          2   -1    0    0  501    0  0.00000000000E+00 -0.00000000000E+00 -0.96119187807E+03  0.96119187807E+03  0.00000000000E+00 0. -1.
         24    2    1    2    0    0 -0.56215571291E+03 -0.44076630237E+03 -0.96384367614E+02  0.72540820207E+03  0.81444057136E+02 0.  0.
        254    2    1    2    0    0  0.56215571291E+03  0.44076630237E+03  0.39081866735E+02  0.11396730532E+04  0.88714897114E+03 0.  0.
         23    2    4    4    0    0  0.46937178059E+03  0.56530794438E+03  0.31951955578E+03  0.80613453507E+03  0.88753601148E+02 0.  0.
         23    2    4    4    0    0  0.92783932321E+02 -0.12454164201E+03 -0.28043768904E+03  0.33353851812E+03  0.92104109261E+02 0.  0.
          2    1    3    3  502    0 -0.13293294697E+03 -0.90376467616E+02 -0.54555994354E+02  0.16975108485E+03  0.00000000000E+00 0. -1.
         -1    1    3    3    0  502 -0.42922276594E+03 -0.35038983476E+03 -0.41828373260E+02  0.55565711722E+03  0.00000000000E+00 0.  1.
         13    1    5    5    0    0  0.25596839474E+03  0.34973089568E+03  0.22555093199E+03  0.48857419234E+03  0.00000000000E+00 0.  1.
        -13    1    5    5    0    0  0.21340338586E+03  0.21557704870E+03  0.93968623785E+02  0.31756034273E+03  0.00000000000E+00 0. -1.
          1    1    6    6  503    0 -0.44584317216E+01 -0.14975419612E+02  0.16174260842E+01  0.15708496844E+02  0.00000000000E+00 0. -1.
         -1    1    6    6    0  503  0.97242364042E+02 -0.10956622240E+03 -0.28205511513E+03  0.31783002127E+03  0.00000000000E+00 0.  1.
<mgrwt>
<rscale>  0 0.18642008E+04</rscale>
<asrwt>0</asrwt>
<pdfrwt beam="1">  1        2 0.14787567E+00 0.18642008E+04</pdfrwt>
<pdfrwt beam="2">  1       -1 0.13905990E+00 0.18642008E+04</pdfrwt>
<totfact> 0.12204509E+01</totfact>
</mgrwt>
</event>
<event>
12    7  0.1637954E-007  0.2947754E+04  0.7818608E-02  0.8258810E-01
          2   -1    0    0  501    0  0.00000000000E+00  0.00000000000E+00  0.19780179419E+04  0.19780179419E+04  0.00000000000E+00 0. -1.
         -1   -1    0    0    0  501 -0.00000000000E+00 -0.00000000000E+00 -0.10982270532E+04  0.10982270532E+04  0.00000000000E+00 0.  1.
         24    2    1    2    0    0 -0.30496561479E+03  0.59395716105E+03 -0.80753401369E+03  0.10507928973E+04  0.79154244724E+02 0.  0.
        254    2    1    2    0    0  0.30496561479E+03 -0.59395716105E+03  0.16873249024E+04  0.20254520978E+04  0.89977871658E+03 0.  0.
         23    2    4    4    0    0  0.22754274513E+03 -0.81113690917E+03  0.14644691286E+04  0.16919781916E+04  0.91660164672E+02 0.  0.
         23    2    4    4    0    0  0.77422869665E+02  0.21717974812E+03  0.22285577379E+03  0.33347390623E+03  0.91535820747E+02 0.  0.
          2    1    3    3  502    0  0.16202344729E+00  0.31361747164E+02 -0.50800230615E+02  0.59701330532E+02  0.00000000000E+00 0. -1.
         -1    1    3    3    0  502 -0.30512763824E+03  0.56259541388E+03 -0.75673378307E+03  0.99109156680E+03  0.00000000000E+00 0.  1.
         13    1    5    5    0    0  0.16894379161E+03 -0.71483989901E+03  0.12581767250E+04  0.14568962754E+04  0.00000000000E+00 0.  1.
        -13    1    5    5    0    0  0.58598953513E+02 -0.96297010161E+02  0.20629240365E+03  0.23508191620E+03  0.00000000000E+00 0. -1.
          3    1    6    6  503    0  0.16500199887E+02 -0.44968850591E+01  0.24230671655E+02  0.29658118963E+02  0.00000000000E+00 0. -1.
         -3    1    6    6    0  503  0.60922669778E+02  0.22167663318E+03  0.19862510213E+03  0.30381578726E+03  0.00000000000E+00 0.  1.
<mgrwt>
<rscale>  0 0.29477536E+04</rscale>
<asrwt>0</asrwt>
<pdfrwt beam="1">  1        2 0.30431045E+00 0.29477536E+04</pdfrwt>
<pdfrwt beam="2">  1       -1 0.16895801E+00 0.29477536E+04</pdfrwt>
<totfact> 0.16832526E+00</totfact>
</mgrwt>
</event>
<event>
12    7  0.1637954E-007  0.2717749E+04  0.7818608E-02  0.8329269E-01
          2   -1    0    0  501    0  0.00000000000E+00  0.00000000000E+00  0.11032380856E+04  0.11032380856E+04  0.00000000000E+00 0. -1.
         -1   -1    0    0    0  501 -0.00000000000E+00 -0.00000000000E+00 -0.16737458048E+04  0.16737458048E+04  0.00000000000E+00 0.  1.
         24    2    1    2    0    0 -0.68176015578E+03  0.73628498110E+03 -0.94563219038E+03  0.13811326948E+04  0.79967478849E+02 0.  0.
        254    2    1    2    0    0  0.68176015578E+03 -0.73628498110E+03  0.37512447115E+03  0.13958511957E+04  0.89485736753E+03 0.  0.
         23    2    4    4    0    0  0.12178980973E+03  0.16779082663E+03 -0.65071049704E+02  0.24049900529E+03  0.10304858457E+03 0.  0.
         23    2    4    4    0    0  0.55997034605E+03 -0.90407580773E+03  0.44019552086E+03  0.11553521904E+04  0.10073099157E+03 0.  0.
          4    1    3    3  502    0 -0.20534744190E+03  0.17439842681E+03 -0.27365225871E+03  0.38401554899E+03  0.00000000000E+00 0. -1.
         -3    1    3    3    0  502 -0.47641271387E+03  0.56188655429E+03 -0.67197993167E+03  0.99711714578E+03  0.00000000000E+00 0.  1.
         13    1    5    5    0    0  0.55965913344E+02  0.13405611458E+03 -0.52390704070E+01  0.14536393353E+03  0.00000000000E+00 0. -1.
        -13    1    5    5    0    0  0.65823896385E+02  0.33734712051E+02 -0.59831979297E+02  0.95135071762E+02  0.00000000000E+00 0.  1.
          3    1    6    6  503    0  0.36526962128E+03 -0.61497347585E+03  0.24624849744E+03  0.75647378985E+03  0.00000000000E+00 0. -1.
         -3    1    6    6    0  503  0.19470072477E+03 -0.28910233188E+03  0.19394702342E+03  0.39887840054E+03  0.00000000000E+00 0.  1.
<mgrwt>
<rscale>  0 0.27177492E+04</rscale>
<asrwt>0</asrwt>
<pdfrwt beam="1">  1        2 0.16972894E+00 0.27177492E+04</pdfrwt>
<pdfrwt beam="2">  1       -1 0.25749935E+00 0.27177492E+04</pdfrwt>
<totfact> 0.13486184E+00</totfact>
</mgrwt>
</event>
<event>
12    7  0.1637954E-007  0.1286011E+04  0.7818608E-02  0.9040732E-01
          2   -1    0    0  501    0  0.00000000000E+00  0.00000000000E+00  0.10554937259E+04  0.10554937259E+04  0.00000000000E+00 0. -1.
         -1   -1    0    0    0  501 -0.00000000000E+00 -0.00000000000E+00 -0.39171841851E+03  0.39171841851E+03  0.00000000000E+00 0.  1.
         24    2    1    2    0    0  0.99276197760E+02  0.23928624385E+03 -0.46408752838E+02  0.27549914231E+03  0.81439149908E+02 0.  0.
        254    2    1    2    0    0 -0.99276197760E+02 -0.23928624385E+03  0.71018406021E+03  0.11717130021E+04  0.89522974143E+03 0.  0.
         23    2    4    4    0    0  0.11537918768E+03  0.87605440460E+02 -0.14696812969E+03  0.22522024119E+03  0.90207847494E+02 0.  0.
         23    2    4    4    0    0 -0.21465538544E+03 -0.32689168431E+03  0.85715218989E+03  0.94649276089E+03  0.90573517144E+02 0.  0.
          2    1    3    3  502    0  0.41539828501E+02  0.26040039235E+02 -0.20202440150E+02  0.53026216000E+02  0.00000000000E+00 0. -1.
         -1    1    3    3    0  502  0.57736369259E+02  0.21324620461E+03 -0.26206312688E+02  0.22247292631E+03  0.00000000000E+00 0.  1.
         13    1    5    5    0    0  0.45947845147E+02  0.23394412675E+02 -0.13390092653E+01  0.51578057000E+02  0.00000000000E+00 0.  1.
        -13    1    5    5    0    0  0.69431342535E+02  0.64211027785E+02 -0.14562912042E+03  0.17364218419E+03  0.00000000000E+00 0. -1.
          1    1    6    6  503    0 -0.20748984664E+03 -0.25401541948E+03  0.71213213589E+03  0.78403319366E+03  0.00000000000E+00 0. -1.
         -1    1    6    6    0  503 -0.71655388018E+01 -0.72876264822E+02  0.14502005400E+03  0.16245956723E+03  0.00000000000E+00 0.  1.
<mgrwt>
<rscale>  0 0.12860114E+04</rscale>
<asrwt>0</asrwt>
<pdfrwt beam="1">  1        2 0.16238365E+00 0.12860114E+04</pdfrwt>
<pdfrwt beam="2">  1       -1 0.60264372E-01 0.12860114E+04</pdfrwt>
<totfact> 0.72558567E+01</totfact>
</mgrwt>
</event>
<event>
12    7  0.1637954E-007  0.1578511E+04  0.7818608E-02  0.8833859E-01
         -1   -1    0    0    0  501 -0.00000000000E+00  0.00000000000E+00  0.36650549716E+03  0.36650549716E+03  0.00000000000E+00 0.  1.
          2   -1    0    0  501    0  0.00000000000E+00 -0.00000000000E+00 -0.16996322276E+04  0.16996322276E+04  0.00000000000E+00 0. -1.
         24    2    1    2    0    0 -0.45433019295E+03  0.24497840061E+03 -0.60063130047E+03  0.79586802664E+03  0.78851859439E+02 0.  0.
        254    2    1    2    0    0  0.45433019295E+03 -0.24497840061E+03 -0.73249543003E+03  0.12702696982E+04  0.90033616503E+03 0.  0.
         23    2    4    4    0    0  0.62556306678E+03  0.41696984834E+02 -0.66472894569E+03  0.91852026016E+03  0.93525975163E+02 0.  0.
         23    2    4    4    0    0 -0.17123287383E+03 -0.28667538545E+03 -0.67766484339E+02  0.35174943800E+03  0.87360729362E+02 0.  0.
          2    1    3    3  502    0 -0.40295948461E+03  0.18630535504E+03 -0.50228858215E+03  0.67035800235E+03  0.00000000000E+00 0. -1.
         -3    1    3    3    0  502 -0.51370708339E+02  0.58673045573E+02 -0.98342718319E+02  0.12551002429E+03  0.00000000000E+00 0.  1.
         13    1    5    5    0    0  0.30456187830E+03 -0.25156555035E+02 -0.30436771758E+03  0.43131252878E+03  0.00000000000E+00 0.  1.
        -13    1    5    5    0    0  0.32100118847E+03  0.66853539869E+02 -0.36036122811E+03  0.48720773138E+03  0.00000000000E+00 0. -1.
          1    1    6    6  503    0 -0.98560601319E+02 -0.20643259116E+03 -0.81026561262E+02  0.24268067590E+03  0.00000000000E+00 0. -1.
         -1    1    6    6    0  503 -0.72672272508E+02 -0.80242794289E+02  0.13260076923E+02  0.10906876210E+03  0.00000000000E+00 0.  1.
<mgrwt>
<rscale>  0 0.15785114E+04</rscale>
<asrwt>0</asrwt>
<pdfrwt beam="1">  1        2 0.26148189E+00 0.15785114E+04</pdfrwt>
<pdfrwt beam="2">  1       -1 0.56385459E-01 0.15785114E+04</pdfrwt>
<totfact> 0.34171172E+01</totfact>
</mgrwt>
</event>
<event>
12    7  0.1637954E-007  0.2106872E+04  0.7818608E-02  0.8558222E-01
          2   -1    0    0  501    0  0.00000000000E+00  0.00000000000E+00  0.24018316481E+04  0.24018316481E+04  0.00000000000E+00 0. -1.
         -1   -1    0    0    0  501 -0.00000000000E+00 -0.00000000000E+00 -0.46203380226E+03  0.46203380226E+03  0.00000000000E+00 0.  1.
         24    2    1    2    0    0 -0.27835046774E+03 -0.49487298349E+03 -0.83591250900E+02  0.57924053256E+03  0.78446444514E+02 0.  0.
        254    2    1    2    0    0  0.27835046774E+03  0.49487298349E+03  0.20233890968E+04  0.22846249178E+04  0.89611903537E+03 0.  0.
         23    2    4    4    0    0 -0.20681876188E+03  0.46335426079E+02  0.12114105779E+04  0.12338607974E+04  0.99879462290E+02 0.  0.
         23    2    4    4    0    0  0.48516922962E+03  0.44853755741E+03  0.81197851887E+03  0.10507641205E+04  0.90669730458E+02 0.  0.
          2    1    3    3  502    0 -0.20359812599E+03 -0.35463923377E+03 -0.95338901789E+02  0.41989366419E+03  0.00000000000E+00 0. -1.
         -1    1    3    3    0  502 -0.74752341753E+02 -0.14023374972E+03  0.11747650888E+02  0.15934686837E+03  0.00000000000E+00 0.  1.
         13    1    5    5    0    0 -0.11044104416E+03  0.74723264120E+02  0.72977917110E+03  0.74186146214E+03  0.00000000000E+00 0.  1.
        -13    1    5    5    0    0 -0.96377717713E+02 -0.28387838041E+02  0.48163140682E+03  0.49199933522E+03  0.00000000000E+00 0. -1.
          1    1    6    6  503    0  0.39584237841E+03  0.40902222618E+03  0.69764849977E+03  0.90039091470E+03  0.00000000000E+00 0. -1.
         -1    1    6    6    0  503  0.89326851217E+02  0.39515331229E+02  0.11433001910E+03  0.15037320578E+03  0.00000000000E+00 0.  1.
<mgrwt>
<rscale>  0 0.21068720E+04</rscale>
<asrwt>0</asrwt>
<pdfrwt beam="1">  1        2 0.36951255E+00 0.21068720E+04</pdfrwt>
<pdfrwt beam="2">  1       -1 0.71082125E-01 0.21068720E+04</pdfrwt>
<totfact> 0.83118897E+00</totfact>
</mgrwt>
</event>
<event>
12    7  0.1637954E-007  0.1903264E+04  0.7818608E-02  0.8653233E-01
         -1   -1    0    0    0  501 -0.00000000000E+00  0.00000000000E+00  0.11102218473E+04  0.11102218473E+04  0.00000000000E+00 0.  1.
          2   -1    0    0  501    0  0.00000000000E+00 -0.00000000000E+00 -0.81569603431E+03  0.81569603431E+03  0.00000000000E+00 0. -1.
         24    2    1    2    0    0  0.43870537593E+03 -0.63535961630E+02  0.67923132192E+03  0.81482911562E+03  0.78051737277E+02 0.  0.
        254    2    1    2    0    0 -0.43870537593E+03  0.63535961630E+02 -0.38470550894E+03  0.11110887660E+04  0.94340907987E+03 0.  0.
         23    2    4    4    0    0  0.20834150985E+03 -0.22045243055E+03 -0.20355332734E+03  0.37606746363E+03  0.89371814725E+02 0.  0.
         23    2    4    4    0    0 -0.64704688578E+03  0.28398839218E+03 -0.18115218160E+03  0.73502130235E+03  0.90117272045E+02 0.  0.
          2    1    3    3  502    0  0.37675469151E+03 -0.73823941999E+02  0.54515419495E+03  0.66677370094E+03  0.00000000000E+00 0. -1.
         -1    1    3    3    0  502  0.61950684413E+02  0.10287980369E+02  0.13407712697E+03  0.14805541468E+03  0.00000000000E+00 0.  1.
         13    1    5    5    0    0  0.19632634976E+01 -0.16339682980E+02 -0.39170641443E+02  0.42487395714E+02  0.00000000000E+00 0.  1.
        -13    1    5    5    0    0  0.20637824635E+03 -0.20411274757E+03 -0.16438268590E+03  0.33358006792E+03  0.00000000000E+00 0. -1.
          3    1    6    6  503    0 -0.44225527870E+03  0.15268832549E+03 -0.13939881197E+03  0.48819615428E+03  0.00000000000E+00 0. -1.
         -3    1    6    6    0  503 -0.20479160708E+03  0.13130006669E+03 -0.41753369630E+02  0.24682514806E+03  0.00000000000E+00 0.  1.
<mgrwt>
<rscale>  0 0.19032641E+04</rscale>
<asrwt>0</asrwt>
<pdfrwt beam="1">  1        2 0.12549170E+00 0.19032641E+04</pdfrwt>
<pdfrwt beam="2">  1       -1 0.17080336E+00 0.19032641E+04</pdfrwt>
<totfact> 0.87058339E+00</totfact>
</mgrwt>
</event>
<event>
12    7  0.1637954E-007  0.1524567E+04  0.7818608E-02  0.8868279E-01
          2   -1    0    0  501    0  0.00000000000E+00  0.00000000000E+00  0.97074461971E+03  0.97074461971E+03  0.00000000000E+00 0. -1.
         -1   -1    0    0    0  501 -0.00000000000E+00 -0.00000000000E+00 -0.59858803308E+03  0.59858803308E+03  0.00000000000E+00 0.  1.
         24    2    1    2    0    0 -0.48948182895E+02 -0.30866458110E+03 -0.17612695631E+03  0.36683295967E+03  0.76654858444E+02 0.  0.
        254    2    1    2    0    0  0.48948182895E+02  0.30866458110E+03  0.54828354293E+03  0.12024996931E+04  0.10235823955E+04 0.  0.
         23    2    4    4    0    0 -0.23136869646E+03 -0.16946983186E+03  0.56620164270E+03  0.64031882834E+03  0.84690047323E+02 0.  0.
         23    2    4    4    0    0  0.28031687936E+03  0.47813441296E+03 -0.17918099768E+02  0.56218086479E+03  0.92391540334E+02 0.  0.
          2    1    3    3  502    0  0.38903264528E+01 -0.30862473138E+02 -0.46040421237E+02  0.55563902632E+02  0.00000000000E+00 0. -1.
         -1    1    3    3    0  502 -0.52838509348E+02 -0.27780210797E+03 -0.13008653507E+03  0.31126905703E+03  0.00000000000E+00 0.  1.
         13    1    5    5    0    0 -0.23793694197E+03 -0.15770157005E+03  0.53692113129E+03  0.60808558179E+03  0.00000000000E+00 0.  1.
        -13    1    5    5    0    0  0.65682455044E+01 -0.11768261802E+02  0.29280511409E+02  0.32233246551E+02  0.00000000000E+00 0. -1.
          1    1    6    6  503    0  0.11179677812E+03  0.27716235330E+03 -0.24113381519E+02  0.29983152745E+03  0.00000000000E+00 0. -1.
         -1    1    6    6    0  503  0.16852010124E+03  0.20097205966E+03  0.61952817515E+01  0.26234933733E+03  0.00000000000E+00 0.  1.
<mgrwt>
<rscale>  0 0.15245670E+04</rscale>
<asrwt>0</asrwt>
<pdfrwt beam="1">  1        2 0.14934533E+00 0.15245670E+04</pdfrwt>
<pdfrwt beam="2">  1       -1 0.92090467E-01 0.15245670E+04</pdfrwt>
<totfact> 0.33247397E+01</totfact>
</mgrwt>
</event>
<event>
12    7  0.1637954E-007  0.2196653E+04  0.7818608E-02  0.8519823E-01
         -1   -1    0    0    0  501 -0.00000000000E+00  0.00000000000E+00  0.48231121293E+03  0.48231121293E+03  0.00000000000E+00 0.  1.
          2   -1    0    0  501    0  0.00000000000E+00 -0.00000000000E+00 -0.25011257257E+04  0.25011257257E+04  0.00000000000E+00 0. -1.
         24    2    1    2    0    0 -0.40616362163E+03  0.45813901079E+03  0.71079987736E+02  0.62426728698E+03  0.98979998947E+02 0.  0.
        254    2    1    2    0    0  0.40616362163E+03 -0.45813901079E+03 -0.20898945005E+04  0.23591696516E+04  0.90728285626E+03 0.  0.
         23    2    4    4    0    0  0.23954830356E+03  0.18068610927E+03 -0.24335959959E+03  0.39603667072E+03  0.87122270524E+02 0.  0.
         23    2    4    4    0    0  0.16661531808E+03 -0.63882512007E+03 -0.18465349009E+04  0.19631329809E+04  0.91333248427E+02 0.  0.
          4    1    3    3  502    0 -0.77109916221E+01  0.33054332512E+02  0.20007571780E+02  0.39399888555E+02  0.00000000000E+00 0. -1.
         -3    1    3    3    0  502 -0.39845263001E+03  0.42508467828E+03  0.51072415956E+02  0.58486739843E+03  0.00000000000E+00 0.  1.
         13    1    5    5    0    0  0.69322257202E+02  0.93485629286E+02 -0.59401248037E+02  0.13066616431E+03  0.00000000000E+00 0.  1.
        -13    1    5    5    0    0  0.17022604635E+03  0.87200479988E+02 -0.18395835155E+03  0.26537050641E+03  0.00000000000E+00 0. -1.
          4    1    6    6  503    0 -0.81817875158E+01 -0.81577911935E+02 -0.25272647458E+03  0.26569261999E+03  0.00000000000E+00 0. -1.
         -4    1    6    6    0  503  0.17479710559E+03 -0.55724720813E+03 -0.15938084263E+04  0.16974403609E+04  0.00000000000E+00 0.  1.
<mgrwt>
<rscale>  0 0.21966529E+04</rscale>
<asrwt>0</asrwt>
<pdfrwt beam="1">  1        2 0.38478856E+00 0.21966529E+04</pdfrwt>
<pdfrwt beam="2">  1       -1 0.74201727E-01 0.21966529E+04</pdfrwt>
<totfact> 0.66129824E+00</totfact>
</mgrwt>
</event>
<event>
12    7  0.1637954E-007  0.2551613E+04  0.7818608E-02  0.8384825E-01
         -1   -1    0    0    0  501 -0.00000000000E+00  0.00000000000E+00  0.13558514648E+04  0.13558514648E+04  0.00000000000E+00 0.  1.
          2   -1    0    0  501    0  0.00000000000E+00 -0.00000000000E+00 -0.12004875766E+04  0.12004875766E+04  0.00000000000E+00 0. -1.
         24    2    1    2    0    0 -0.73305253691E+02  0.10747867040E+04  0.36951204012E+03  0.11416238598E+04  0.78903548402E+02 0.  0.
        254    2    1    2    0    0  0.73305253691E+02 -0.10747867040E+04 -0.21414815200E+03  0.14147151816E+04  0.89163865706E+03 0.  0.
         23    2    4    4    0    0 -0.28564654868E+03 -0.92539564359E+03 -0.27417428619E+03  0.10108856265E+04  0.93633128784E+02 0.  0.
         23    2    4    4    0    0  0.35895180237E+03 -0.14939106046E+03  0.60026134184E+02  0.40382955510E+03  0.91165165601E+02 0.  0.
          4    1    3    3  502    0 -0.54964916727E+02  0.91230377448E+03  0.34178628215E+03  0.97577516963E+03  0.00000000000E+00 0. -1.
         -3    1    3    3    0  502 -0.18340336963E+02  0.16248292956E+03  0.27725757969E+02  0.16584869012E+03  0.00000000000E+00 0.  1.
         13    1    5    5    0    0 -0.15449749183E+03 -0.36086659066E+03 -0.89631816777E+02  0.40265125582E+03  0.00000000000E+00 0.  1.
        -13    1    5    5    0    0 -0.13114905684E+03 -0.56452905293E+03 -0.18454246941E+03  0.60823437073E+03  0.00000000000E+00 0. -1.
          2    1    6    6  503    0  0.37905141773E+01 -0.72714050686E+01 -0.12032542055E+02  0.14561023237E+02  0.00000000000E+00 0. -1.
         -2    1    6    6    0  503  0.35516128819E+03 -0.14211965539E+03  0.72058676240E+02  0.38926853186E+03  0.00000000000E+00 0.  1.
<mgrwt>
<rscale>  0 0.25516135E+04</rscale>
<asrwt>0</asrwt>
<pdfrwt beam="1">  1        2 0.18469040E+00 0.25516135E+04</pdfrwt>
<pdfrwt beam="2">  1       -1 0.20859253E+00 0.25516135E+04</pdfrwt>
<totfact> 0.25176950E+00</totfact>
</mgrwt>
</event>
<event>
12    7  0.1637954E-007  0.1301440E+04  0.7818608E-02  0.9028424E-01
         -1   -1    0    0    0  501 -0.00000000000E+00  0.00000000000E+00  0.10832067811E+04  0.10832067811E+04  0.00000000000E+00 0.  1.
          2   -1    0    0  501    0  0.00000000000E+00 -0.00000000000E+00 -0.39090995376E+03  0.39090995376E+03  0.00000000000E+00 0. -1.
         24    2    1    2    0    0  0.63680051481E+02 -0.32230477852E+03  0.20268115429E+03  0.39627643077E+03  0.89553559767E+02 0.  0.
        254    2    1    2    0    0 -0.63680051481E+02  0.32230477852E+03  0.48961567307E+03  0.10778403041E+04  0.90226420444E+03 0.  0.
         23    2    4    4    0    0 -0.54059809150E+02 -0.97784739832E+02  0.61334653265E+03  0.63021738446E+03  0.92171927726E+02 0.  0.
         23    2    4    4    0    0 -0.96202423313E+01  0.42008951835E+03 -0.12373085958E+03  0.44762291963E+03  0.92136855144E+02 0.  0.
          2    1    3    3  502    0  0.19771141452E+02 -0.97493180088E+02  0.11231815144E+03  0.15003727983E+03  0.00000000000E+00 0. -1.
         -1    1    3    3    0  502  0.43908910029E+02 -0.22481159843E+03  0.90363002853E+02  0.24623915094E+03  0.00000000000E+00 0.  1.
         13    1    5    5    0    0 -0.27551629447E+02 -0.59094319163E+02  0.13871778215E+03  0.15327704957E+03  0.00000000000E+00 0. -1.
        -13    1    5    5    0    0 -0.26508179703E+02 -0.38690420669E+02  0.47462875050E+03  0.47694033489E+03  0.00000000000E+00 0.  1.
          2    1    6    6  503    0  0.25755690843E+02  0.82158243868E+02 -0.24379972000E+00  0.86101057396E+02  0.00000000000E+00 0. -1.
         -2    1    6    6    0  503 -0.35375933174E+02  0.33793127448E+03 -0.12348705986E+03  0.36152186224E+03  0.00000000000E+00 0.  1.
<mgrwt>
<rscale>  0 0.13014397E+04</rscale>
<asrwt>0</asrwt>
<pdfrwt beam="1">  1        2 0.60139993E-01 0.13014397E+04</pdfrwt>
<pdfrwt beam="2">  1       -1 0.16664720E+00 0.13014397E+04</pdfrwt>
<totfact> 0.23847455E+01</totfact>
</mgrwt>
</event>
<event>
12    7  0.1637954E-007  0.1214465E+04  0.7818608E-02  0.9100289E-01
         -1   -1    0    0    0  501 -0.00000000000E+00  0.00000000000E+00  0.66440283638E+03  0.66440283638E+03  0.00000000000E+00 0.  1.
          2   -1    0    0  501    0  0.00000000000E+00 -0.00000000000E+00 -0.55498154211E+03  0.55498154211E+03  0.00000000000E+00 0. -1.
         24    2    1    2    0    0  0.26978923476E+03  0.52786123400E+02  0.11453258355E+02  0.28637754613E+03  0.79424906563E+02 0.  0.
        254    2    1    2    0    0 -0.26978923476E+03 -0.52786123400E+02  0.97968035915E+02  0.93300683236E+03  0.88618926147E+03 0.  0.
         23    2    4    4    0    0 -0.31338827335E+03 -0.41274275406E+03  0.16930843588E+03  0.55261606469E+03  0.90279441689E+02 0.  0.
         23    2    4    4    0    0  0.43599038588E+02  0.35995663066E+03 -0.71340399969E+02  0.38039076767E+03  0.90211037798E+02 0.  0.
          4    1    3    3  502    0  0.25777405286E+03  0.31852664787E+02  0.20636305283E+02  0.26055308802E+03  0.00000000000E+00 0. -1.
         -3    1    3    3    0  502  0.12015181904E+02  0.20933458614E+02 -0.91830469284E+01  0.25824458109E+02  0.00000000000E+00 0.  1.
         13    1    5    5    0    0 -0.18988952271E+03 -0.21039242757E+03  0.13197275497E+03  0.31263367136E+03  0.00000000000E+00 0. -1.
        -13    1    5    5    0    0 -0.12349875064E+03 -0.20235032649E+03  0.37335680919E+02  0.23998239333E+03  0.00000000000E+00 0.  1.
          2    1    6    6  503    0  0.16248837287E+02  0.20292842135E+03  0.50453950200E+01  0.20364043046E+03  0.00000000000E+00 0.  1.
         -2    1    6    6    0  503  0.27350201301E+02  0.15702820930E+03 -0.76385794989E+02  0.17675033721E+03  0.00000000000E+00 0. -1.
<mgrwt>
<rscale>  0 0.12144650E+04</rscale>
<asrwt>0</asrwt>
<pdfrwt beam="1">  1        2 0.85381775E-01 0.12144650E+04</pdfrwt>
<pdfrwt beam="2">  1       -1 0.10221582E+00 0.12144650E+04</pdfrwt>
<totfact> 0.55651605E+01</totfact>
</mgrwt>
</event>
<event>
12    7  0.1637954E-007  0.1744171E+04  0.7818608E-02  0.8736566E-01
          2   -1    0    0  501    0  0.00000000000E+00  0.00000000000E+00  0.23654103928E+04  0.23654103928E+04  0.00000000000E+00 0. -1.
         -1   -1    0    0    0  501 -0.00000000000E+00 -0.00000000000E+00 -0.32152260428E+03  0.32152260428E+03  0.00000000000E+00 0.  1.
         24    2    1    2    0    0  0.18132689443E+03  0.57870451727E+03  0.87754134901E+03  0.10691252918E+04  0.71914597713E+02 0.  0.
        254    2    1    2    0    0 -0.18132689443E+03 -0.57870451727E+03  0.11663464395E+04  0.16178077053E+04  0.94295248738E+03 0.  0.
         23    2    4    4    0    0  0.13618863041E+03 -0.67287685930E+03  0.45865068898E+03  0.83146486890E+03  0.98299353323E+02 0.  0.
         23    2    4    4    0    0 -0.31751552484E+03  0.94172342036E+02  0.70769575056E+03  0.78634283644E+03  0.88415171425E+02 0.  0.
          2    1    3    3  502    0  0.17448657070E+03  0.53370861173E+03  0.77594272021E+03  0.95779828285E+03  0.00000000000E+00 0. -1.
         -1    1    3    3    0  502  0.68403237273E+01  0.44995905539E+02  0.10159862880E+03  0.11132700893E+03  0.00000000000E+00 0.  1.
         13    1    5    5    0    0  0.94634962675E+02 -0.55098477774E+03  0.41211283719E+03  0.69453365076E+03  0.00000000000E+00 0. -1.
        -13    1    5    5    0    0  0.41553667740E+02 -0.12189208157E+03  0.46537851792E+02  0.13693121814E+03  0.00000000000E+00 0.  1.
          3    1    6    6  503    0 -0.18955016548E+03  0.65493752195E+02  0.32598736582E+03  0.38273549546E+03  0.00000000000E+00 0. -1.
         -3    1    6    6    0  503 -0.12796535936E+03  0.28678589841E+02  0.38170838473E+03  0.40360734097E+03  0.00000000000E+00 0.  1.
<mgrwt>
<rscale>  0 0.17441708E+04</rscale>
<asrwt>0</asrwt>
<pdfrwt beam="1">  1        2 0.36390928E+00 0.17441708E+04</pdfrwt>
<pdfrwt beam="2">  1       -1 0.49465017E-01 0.17441708E+04</pdfrwt>
<totfact> 0.18424106E+01</totfact>
</mgrwt>
</event>
<event>
12    7  0.1637954E-007  0.1660432E+04  0.7818608E-02  0.8784259E-01
          2   -1    0    0  501    0  0.00000000000E+00  0.00000000000E+00  0.14585470419E+04  0.14585470419E+04  0.00000000000E+00 0. -1.
         -1   -1    0    0    0  501 -0.00000000000E+00 -0.00000000000E+00 -0.47256509288E+03  0.47256509288E+03  0.00000000000E+00 0.  1.
         24    2    1    2    0    0  0.45521908020E+03  0.34261454684E+03  0.29128526752E+03  0.64531288520E+03  0.83501341552E+02 0.  0.
        254    2    1    2    0    0 -0.45521908020E+03 -0.34261454684E+03  0.69469668153E+03  0.12857992496E+04  0.91981905410E+03 0.  0.
         23    2    4    4    0    0  0.37052744985E+01  0.18629963114E+03 -0.93423210336E+02  0.22770743820E+03  0.91659694294E+02 0.  0.
         23    2    4    4    0    0 -0.45892435470E+03 -0.52891417798E+03  0.78811989187E+03  0.10580918114E+04  0.89797251739E+02 0.  0.
          4    1    3    3  502    0  0.36479059202E+03  0.26510385753E+03  0.19145241163E+03  0.48990433477E+03  0.00000000000E+00 0. -1.
         -3    1    3    3    0  502  0.90428488180E+02  0.77510689312E+02  0.99832855887E+02  0.15540855043E+03  0.00000000000E+00 0.  1.
         13    1    5    5    0    0  0.32063714282E+01  0.19624757121E+02 -0.52416440913E+02  0.56061530373E+02  0.00000000000E+00 0. -1.
        -13    1    5    5    0    0  0.49890307024E+00  0.16667487402E+03 -0.41006769423E+02  0.17164590783E+03  0.00000000000E+00 0.  1.
          3    1    6    6  503    0 -0.39092024701E+03 -0.40101300786E+03  0.64941001917E+03  0.85753334920E+03  0.00000000000E+00 0. -1.
         -3    1    6    6    0  503 -0.68004107686E+02 -0.12790117012E+03  0.13870987270E+03  0.20055846221E+03  0.00000000000E+00 0.  1.
<mgrwt>
<rscale>  0 0.16604318E+04</rscale>
<asrwt>0</asrwt>
<pdfrwt beam="1">  1        2 0.22439185E+00 0.16604318E+04</pdfrwt>
<pdfrwt beam="2">  1       -1 0.72702322E-01 0.16604318E+04</pdfrwt>
<totfact> 0.27806096E+01</totfact>
</mgrwt>
</event>
<event>
12    7  0.1637954E-007  0.2521628E+04  0.7818608E-02  0.8395321E-01
         -1   -1    0    0    0  501 -0.00000000000E+00  0.00000000000E+00  0.83783300224E+03  0.83783300224E+03  0.00000000000E+00 0.  1.
          2   -1    0    0  501    0  0.00000000000E+00 -0.00000000000E+00 -0.18973379032E+04  0.18973379032E+04  0.00000000000E+00 0. -1.
         24    2    1    2    0    0 -0.59062848027E+03 -0.57001959650E+03 -0.12147393103E+04  0.14682822433E+04  0.80602804378E+02 0.  0.
        254    2    1    2    0    0  0.59062848027E+03  0.57001959650E+03  0.15523440935E+03  0.12668886621E+04  0.95244150379E+03 0.  0.
         23    2    4    4    0    0  0.52684217354E+03 -0.77467848924E+02 -0.12197111034E+03  0.55370531979E+03  0.90270072399E+02 0.  0.
         23    2    4    4    0    0  0.63786306732E+02  0.64748744542E+03  0.27720551969E+03  0.71318334228E+03  0.92080913658E+02 0.  0.
          4    1    3    3  502    0 -0.43473654573E+03 -0.42889601419E+03 -0.83930436310E+03  0.10379689153E+04  0.00000000000E+00 0. -1.
         -3    1    3    3    0  502 -0.15589193454E+03 -0.14112358231E+03 -0.37543494718E+03  0.43031332806E+03  0.00000000000E+00 0.  1.
         13    1    5    5    0    0  0.48397157521E+03 -0.59122774966E+02 -0.13380485464E+03  0.50559640748E+03  0.00000000000E+00 0. -1.
        -13    1    5    5    0    0  0.42870598332E+02 -0.18345073958E+02  0.11833744301E+02  0.48108912314E+02  0.00000000000E+00 0.  1.
          3    1    6    6  503    0  0.86693310428E+01  0.17965535012E+03  0.12147150697E+03  0.21704038595E+03  0.00000000000E+00 0. -1.
         -3    1    6    6    0  503  0.55116975689E+02  0.46783209530E+03  0.15573401272E+03  0.49614295633E+03  0.00000000000E+00 0.  1.
<mgrwt>
<rscale>  0 0.25216283E+04</rscale>
<asrwt>0</asrwt>
<pdfrwt beam="1">  1        2 0.29189814E+00 0.25216283E+04</pdfrwt>
<pdfrwt beam="2">  1       -1 0.12889739E+00 0.25216283E+04</pdfrwt>
<totfact> 0.40001792E+00</totfact>
</mgrwt>
</event>
<event>
12    7  0.1637954E-007  0.1302034E+04  0.7818608E-02  0.9027954E-01
         -1   -1    0    0    0  501 -0.00000000000E+00  0.00000000000E+00  0.15946534798E+04  0.15946534798E+04  0.00000000000E+00 0.  1.
          2   -1    0    0  501    0  0.00000000000E+00 -0.00000000000E+00 -0.26577752096E+03  0.26577752096E+03  0.00000000000E+00 0. -1.
         24    2    1    2    0    0  0.28638466221E+03  0.84108781292E+02  0.13444158857E+03  0.33712787095E+03  0.80561770069E+02 0.  0.
        254    2    1    2    0    0 -0.28638466221E+03 -0.84108781292E+02  0.11944343703E+04  0.15233031298E+04  0.89704431249E+03 0.  0.
         23    2    4    4    0    0 -0.12737815443E+03 -0.14516738745E+03 -0.84271435030E+02  0.22996542807E+03  0.92106779022E+02 0.  0.
         23    2    4    4    0    0 -0.15900650778E+03  0.61058606156E+02  0.12787058053E+04  0.12933377018E+04  0.92858232363E+02 0.  0.
          2    1    3    3  502    0  0.26917012985E+03  0.56577913062E+02  0.10893828351E+03  0.29583976856E+03  0.00000000000E+00 0. -1.
         -1    1    3    3    0  502  0.17214532360E+02  0.27530868230E+02  0.25503305063E+02  0.41288102391E+02  0.00000000000E+00 0.  1.
         13    1    5    5    0    0 -0.91078855696E+02 -0.14825295716E+03 -0.84737428539E+02  0.19353224294E+03  0.00000000000E+00 0. -1.
        -13    1    5    5    0    0 -0.36299298735E+02  0.30855697105E+01  0.46599350942E+00  0.36433185135E+02  0.00000000000E+00 0.  1.
          3    1    6    6  503    0 -0.47724536104E+02  0.33529375042E+02  0.19364595981E+03  0.20223898756E+03  0.00000000000E+00 0. -1.
         -3    1    6    6    0  503 -0.11128197167E+03  0.27529231114E+02  0.10850598455E+04  0.10910987142E+04  0.00000000000E+00 0.  1.
<mgrwt>
<rscale>  0 0.13020339E+04</rscale>
<asrwt>0</asrwt>
<pdfrwt beam="1">  1        2 0.40888850E-01 0.13020339E+04</pdfrwt>
<pdfrwt beam="2">  1       -1 0.24533130E+00 0.13020339E+04</pdfrwt>
<totfact> 0.10573514E+01</totfact>
</mgrwt>
</event>
<event>
12    7  0.1637954E-007  0.1668938E+04  0.7818608E-02  0.8779281E-01
         -1   -1    0    0    0  501 -0.00000000000E+00  0.00000000000E+00  0.35283930507E+03  0.35283930507E+03  0.00000000000E+00 0.  1.
          2   -1    0    0  501    0  0.00000000000E+00 -0.00000000000E+00 -0.19735294803E+04  0.19735294803E+04  0.00000000000E+00 0. -1.
         24    2    1    2    0    0 -0.35075856031E+03  0.12220929161E+03  0.94077512307E+02  0.39119847194E+03  0.78860557563E+02 0.  0.
        254    2    1    2    0    0  0.35075856031E+03 -0.12220929161E+03 -0.17147676875E+04  0.19351703134E+04  0.81638792321E+03 0.  0.
         23    2    4    4    0    0  0.38299510809E+02 -0.43426895373E+03 -0.81750593800E+03  0.93106225931E+03  0.92220363032E+02 0.  0.
         23    2    4    4    0    0  0.31245904950E+03  0.31205966212E+03 -0.89726174950E+03  0.10041080541E+04  0.90235507476E+02 0.  0.
          4    1    3    3  502    0 -0.49323444173E+02  0.22372310562E+01  0.37196633241E+02  0.61817447961E+02  0.00000000000E+00 0. -1.
         -3    1    3    3    0  502 -0.30143511613E+03  0.11997206055E+03  0.56880879065E+02  0.32938102398E+03  0.00000000000E+00 0.  1.
         13    1    5    5    0    0 -0.20976111281E+02 -0.12604147018E+03 -0.18335023981E+03  0.22348100566E+03  0.00000000000E+00 0.  1.
        -13    1    5    5    0    0  0.59275622090E+02 -0.30822748355E+03 -0.63415569818E+03  0.70758125366E+03  0.00000000000E+00 0. -1.
          3    1    6    6  503    0  0.31452063771E+03  0.29728941764E+03 -0.88353703208E+03  0.98384039175E+03  0.00000000000E+00 0. -1.
         -3    1    6    6    0  503 -0.20615882070E+01  0.14770244482E+02 -0.13724717428E+02  0.20267662334E+02  0.00000000000E+00 0.  1.
<mgrwt>
<rscale>  0 0.16689383E+04</rscale>
<asrwt>0</asrwt>
<pdfrwt beam="1">  1        2 0.30361992E+00 0.16689383E+04</pdfrwt>
<pdfrwt beam="2">  1       -1 0.54282970E-01 0.16689383E+04</pdfrwt>
<totfact> 0.25738457E+01</totfact>
</mgrwt>
</event>
<event>
12    7  0.1637954E-007  0.2365462E+04  0.7818608E-02  0.8452548E-01
          2   -1    0    0  501    0  0.00000000000E+00  0.00000000000E+00  0.44377937715E+04  0.44377937715E+04  0.00000000000E+00 0. -1.
         -1   -1    0    0    0  501 -0.00000000000E+00 -0.00000000000E+00 -0.31521349116E+03  0.31521349116E+03  0.00000000000E+00 0.  1.
         24    2    1    2    0    0  0.73077434628E+03  0.64824091091E+03  0.12785320006E+04  0.16109491504E+04  0.79155951761E+02 0.  0.
        254    2    1    2    0    0 -0.73077434628E+03 -0.64824091091E+03  0.28440482797E+04  0.31420581123E+04  0.91086285460E+03 0.  0.
         23    2    4    4    0    0 -0.26196515030E+03 -0.39192385231E+03  0.36154390880E+03  0.60086990537E+03  0.90003328901E+02 0.  0.
         23    2    4    4    0    0 -0.46880919598E+03 -0.25631705861E+03  0.24825043709E+04  0.25411882069E+04  0.96587031160E+02 0.  0.
          2    1    3    3  502    0 -0.13127126905E+01  0.57445135068E+01  0.58461908524E+01  0.83006383803E+01  0.00000000000E+00 0. -1.
         -1    1    3    3    0  502  0.73208705897E+03  0.64249639741E+03  0.12726858098E+04  0.16026485120E+04  0.00000000000E+00 0.  1.
         13    1    5    5    0    0 -0.11843318135E+03 -0.21488166347E+03  0.13742705827E+03  0.28122365492E+03  0.00000000000E+00 0.  1.
        -13    1    5    5    0    0 -0.14353196895E+03 -0.17704218883E+03  0.22411685052E+03  0.31964625045E+03  0.00000000000E+00 0. -1.
          4    1    6    6  503    0 -0.31794456022E+03 -0.13969908615E+03  0.14312384187E+04  0.14727688173E+04  0.00000000000E+00 0. -1.
         -4    1    6    6    0  503 -0.15086463576E+03 -0.11661797246E+03  0.10512659522E+04  0.10684193896E+04  0.00000000000E+00 0.  1.
<mgrwt>
<rscale>  0 0.23654619E+04</rscale>
<asrwt>0</asrwt>
<pdfrwt beam="1">  1        2 0.68273746E+00 0.23654619E+04</pdfrwt>
<pdfrwt beam="2">  1       -1 0.48494386E-01 0.23654619E+04</pdfrwt>
<totfact> 0.62173633E-01</totfact>
</mgrwt>
</event>
<event>
12    7  0.1637954E-007  0.1069717E+04  0.7818608E-02  0.9235221E-01
         -1   -1    0    0    0  501 -0.00000000000E+00  0.00000000000E+00  0.11869068790E+03  0.11869068790E+03  0.00000000000E+00 0.  1.
          2   -1    0    0  501    0  0.00000000000E+00 -0.00000000000E+00 -0.24102433072E+04  0.24102433072E+04  0.00000000000E+00 0. -1.
         24    2    1    2    0    0  0.35250577886E+02 -0.25497707104E+02 -0.17288078286E+03  0.19446406646E+03  0.77690229466E+02 0.  0.
        254    2    1    2    0    0 -0.35250577886E+02  0.25497707104E+02 -0.21186718364E+04  0.23344699286E+04  0.97932975081E+03 0.  0.
         23    2    4    4    0    0  0.39547741566E+03 -0.21517999421E+03 -0.12478806922E+04  0.13293060060E+04  0.84518751912E+02 0.  0.
         23    2    4    4    0    0 -0.43072799354E+03  0.24067770131E+03 -0.87079114420E+03  0.10051639226E+04  0.92870523442E+02 0.  0.
          2    1    3    3  502    0  0.39330603842E+01  0.19634568115E+02 -0.10619063058E+03  0.10806218234E+03  0.00000000000E+00 0. -1.
         -1    1    3    3    0  502  0.31317517502E+02 -0.45132275219E+02 -0.66690152274E+02  0.86401884119E+02  0.00000000000E+00 0.  1.
         13    1    5    5    0    0  0.39430775572E+03 -0.20666449183E+03 -0.11854451001E+04  0.12662815262E+04  0.00000000000E+00 0. -1.
        -13    1    5    5    0    0  0.11696599378E+01 -0.85155023764E+01 -0.62435592152E+02  0.63024479787E+02  0.00000000000E+00 0.  1.
          1    1    6    6  503    0 -0.43555051582E+03  0.23871049065E+03 -0.86425137872E+03  0.99680358938E+03  0.00000000000E+00 0. -1.
         -1    1    6    6    0  503  0.48225222736E+01  0.19672106606E+01 -0.65397654793E+01  0.83603332103E+01  0.00000000000E+00 0.  1.
<mgrwt>
<rscale>  0 0.10697167E+04</rscale>
<asrwt>0</asrwt>
<pdfrwt beam="1">  1        2 0.37080667E+00 0.10697167E+04</pdfrwt>
<pdfrwt beam="2">  1       -1 0.18260106E-01 0.10697167E+04</pdfrwt>
<totfact> 0.10666284E+02</totfact>
</mgrwt>
</event>
<event>
12    7  0.1637954E-007  0.1499812E+04  0.7818608E-02  0.8884578E-01
         -1   -1    0    0    0  501 -0.00000000000E+00  0.00000000000E+00  0.93462106016E+03  0.93462106016E+03  0.00000000000E+00 0.  1.
          2   -1    0    0  501    0  0.00000000000E+00 -0.00000000000E+00 -0.60169757292E+03  0.60169757292E+03  0.00000000000E+00 0. -1.
         24    2    1    2    0    0 -0.15870838657E+03 -0.22869932235E+03 -0.29250537886E+03  0.41122281187E+03  0.77801493111E+02 0.  0.
        254    2    1    2    0    0  0.15870838657E+03  0.22869932235E+03  0.62542886610E+03  0.11250958212E+04  0.89285363210E+03 0.  0.
         23    2    4    4    0    0  0.27918690701E+03  0.70122071118E+02 -0.13655389023E+03  0.33144289488E+03  0.91350937173E+02 0.  0.
         23    2    4    4    0    0 -0.12047852044E+03  0.15857725123E+03  0.76198275633E+03  0.79365292634E+03  0.98007285646E+02 0.  0.
          2    1    3    3  502    0 -0.12068939355E+03 -0.14126257505E+03 -0.14543183200E+03  0.23594800822E+03  0.00000000000E+00 0. -1.
         -1    1    3    3    0  502 -0.38018993023E+02 -0.87436747303E+02 -0.14707354686E+03  0.17527480365E+03  0.00000000000E+00 0.  1.
         13    1    5    5    0    0  0.65784377800E+02  0.29291196498E+02 -0.78544158961E+02  0.10655863861E+03  0.00000000000E+00 0. -1.
        -13    1    5    5    0    0  0.21340252921E+03  0.40830874620E+02 -0.58009731271E+02  0.22488425627E+03  0.00000000000E+00 0.  1.
          3    1    6    6  503    0  0.12234959388E+01  0.54661719324E+02  0.29464071134E+03  0.29967073477E+03  0.00000000000E+00 0. -1.
         -3    1    6    6    0  503 -0.12170201638E+03  0.10391553191E+03  0.46734204499E+03  0.49398219156E+03  0.00000000000E+00 0.  1.
<mgrwt>
<rscale>  0 0.14998123E+04</rscale>
<asrwt>0</asrwt>
<pdfrwt beam="1">  1        2 0.92568858E-01 0.14998123E+04</pdfrwt>
<pdfrwt beam="2">  1       -1 0.14378785E+00 0.14998123E+04</pdfrwt>
<totfact> 0.21322560E+01</totfact>
</mgrwt>
</event>
<event>
12    7  0.1637954E-007  0.2115779E+04  0.7818608E-02  0.8554324E-01
          2   -1    0    0  501    0  0.00000000000E+00  0.00000000000E+00  0.30996100146E+04  0.30996100146E+04  0.00000000000E+00 0. -1.
         -1   -1    0    0    0  501 -0.00000000000E+00 -0.00000000000E+00 -0.36105509869E+03  0.36105509869E+03  0.00000000000E+00 0.  1.
         24    2    1    2    0    0  0.43607958666E+03  0.72040670896E+03  0.14507946842E+04  0.16797584621E+04  0.87361566351E+02 0.  0.
        254    2    1    2    0    0 -0.43607958666E+03 -0.72040670896E+03  0.12877602317E+04  0.17809066511E+04  0.89674458653E+03 0.  0.
         23    2    4    4    0    0 -0.38351585327E+02 -0.26764564995E+03 -0.69100702890E+02  0.29350975834E+03  0.90928725179E+02 0.  0.
         23    2    4    4    0    0 -0.39772800133E+03 -0.45276105901E+03  0.13568609346E+04  0.14873968928E+04  0.89987672839E+02 0.  0.
          2    1    3    3  502    0  0.40600284194E+02  0.40050782305E+02  0.13561163094E+03  0.14711547398E+03  0.00000000000E+00 0. -1.
         -1    1    3    3    0  502  0.39547930247E+03  0.68035592666E+03  0.13151830532E+04  0.15326429881E+04  0.00000000000E+00 0.  1.
         13    1    5    5    0    0 -0.37695278439E+02 -0.90262786177E+02 -0.62346028685E+02  0.11599712013E+03  0.00000000000E+00 0. -1.
        -13    1    5    5    0    0 -0.65630688793E+00 -0.17738286378E+03 -0.67546742049E+01  0.17751263821E+03  0.00000000000E+00 0.  1.
          3    1    6    6  503    0 -0.37751880849E+03 -0.41057354894E+03  0.11921730337E+04  0.13161943747E+04  0.00000000000E+00 0. -1.
         -3    1    6    6    0  503 -0.20209192840E+02 -0.42187510072E+02  0.16468790093E+03  0.17120251807E+03  0.00000000000E+00 0.  1.
<mgrwt>
<rscale>  0 0.21157788E+04</rscale>
<asrwt>0</asrwt>
<pdfrwt beam="1">  1        2 0.47686306E+00 0.21157788E+04</pdfrwt>
<pdfrwt beam="2">  1       -1 0.55546941E-01 0.21157788E+04</pdfrwt>
<totfact> 0.51796298E+00</totfact>
</mgrwt>
</event>
<event>
12    7  0.1637954E-007  0.1734859E+04  0.7818608E-02  0.8741729E-01
         -1   -1    0    0    0  501 -0.00000000000E+00  0.00000000000E+00  0.10868250275E+04  0.10868250275E+04  0.00000000000E+00 0.  1.
          2   -1    0    0  501    0  0.00000000000E+00 -0.00000000000E+00 -0.69232317232E+03  0.69232317232E+03  0.00000000000E+00 0. -1.
         24    2    1    2    0    0  0.32210829067E+03 -0.28730513587E+03 -0.33256179619E+03  0.55081324668E+03  0.80621910281E+02 0.  0.
        254    2    1    2    0    0 -0.32210829067E+03  0.28730513587E+03  0.72706365132E+03  0.12283349531E+04  0.89100348591E+03 0.  0.
         23    2    4    4    0    0 -0.40115243606E+03  0.53147827800E+03  0.33497227481E+03  0.75089589210E+03  0.90806271440E+02 0.  0.
         23    2    4    4    0    0  0.79044145391E+02 -0.24417314213E+03  0.39209137651E+03  0.47743906100E+03  0.91345000819E+02 0.  0.
          4    1    3    3  502    0  0.25060651162E+03 -0.18728367176E+03 -0.20735920614E+03  0.37533536704E+03  0.00000000000E+00 0. -1.
         -3    1    3    3    0  502  0.71501779044E+02 -0.10002146412E+03 -0.12520259005E+03  0.17547787964E+03  0.00000000000E+00 0.  1.
         13    1    5    5    0    0 -0.24005105974E+03  0.29315675136E+03  0.23742590624E+03  0.44714254227E+03  0.00000000000E+00 0. -1.
        -13    1    5    5    0    0 -0.16110137631E+03  0.23832152664E+03  0.97546368575E+02  0.30375334983E+03  0.00000000000E+00 0.  1.
          2    1    6    6  503    0  0.70468927751E+02 -0.25128884345E+03  0.38006644620E+03  0.46104496109E+03  0.00000000000E+00 0. -1.
         -2    1    6    6    0  503  0.85752176403E+01  0.71157013176E+01  0.12024930311E+02  0.16394099909E+02  0.00000000000E+00 0.  1.
<mgrwt>
<rscale>  0 0.17348592E+04</rscale>
<asrwt>0</asrwt>
<pdfrwt beam="1">  1        2 0.10651126E+00 0.17348592E+04</pdfrwt>
<pdfrwt beam="2">  1       -1 0.16720385E+00 0.17348592E+04</pdfrwt>
<totfact> 0.11618532E+01</totfact>
</mgrwt>
</event>
<event>
12    7  0.1637954E-007  0.1352072E+04  0.7818608E-02  0.8989261E-01
          2   -1    0    0  501    0  0.00000000000E+00  0.00000000000E+00  0.18822967662E+04  0.18822967662E+04  0.00000000000E+00 0. -1.
         -1   -1    0    0    0  501 -0.00000000000E+00 -0.00000000000E+00 -0.24280154119E+03  0.24280154119E+03  0.00000000000E+00 0.  1.
         24    2    1    2    0    0  0.37915920086E+02  0.17574521555E+03  0.98024205373E+03  0.99981892605E+03  0.80245892077E+02 0.  0.
        254    2    1    2    0    0 -0.37915920086E+02 -0.17574521555E+03  0.65925317125E+03  0.11252793813E+04  0.89404415127E+03 0.  0.
         23    2    4    4    0    0  0.41572290804E+03 -0.79080432913E+02  0.24694399201E+03  0.49828002573E+03  0.90677437726E+02 0.  0.
         23    2    4    4    0    0 -0.45363882813E+03 -0.96664782636E+02  0.41230917923E+03  0.62699935557E+03  0.89426316143E+02 0.  0.
          4    1    3    3  502    0  0.37338552435E+02  0.14795845800E+03  0.92969300801E+03  0.94213319755E+03  0.00000000000E+00 0. -1.
         -3    1    3    3    0  502  0.57736765157E+00  0.27786757547E+02  0.50549045720E+02  0.57685728491E+02  0.00000000000E+00 0.  1.
         13    1    5    5    0    0  0.51079204459E+02 -0.39003322632E+02  0.21819922860E+02  0.67870857797E+02  0.00000000000E+00 0. -1.
        -13    1    5    5    0    0  0.36464370359E+03 -0.40077110281E+02  0.22512406915E+03  0.43040916794E+03  0.00000000000E+00 0.  1.
          3    1    6    6  503    0 -0.13646143261E+03  0.74881796125E+01  0.95193566339E+02  0.16655212546E+03  0.00000000000E+00 0. -1.
         -3    1    6    6    0  503 -0.31717739552E+03 -0.10415296225E+03  0.31711561290E+03  0.46044723011E+03  0.00000000000E+00 0.  1.
<mgrwt>
<rscale>  0 0.13520718E+04</rscale>
<asrwt>0</asrwt>
<pdfrwt beam="1">  1        2 0.28958411E+00 0.13520718E+04</pdfrwt>
<pdfrwt beam="2">  1       -1 0.37354084E-01 0.13520718E+04</pdfrwt>
<totfact> 0.59646110E+01</totfact>
</mgrwt>
</event>
<event>
12    7  0.1637954E-007  0.2136467E+04  0.7818608E-02  0.8545347E-01
         -1   -1    0    0    0  501 -0.00000000000E+00  0.00000000000E+00  0.57180302505E+03  0.57180302505E+03  0.00000000000E+00 0.  1.
          2   -1    0    0  501    0  0.00000000000E+00 -0.00000000000E+00 -0.19956569968E+04  0.19956569968E+04  0.00000000000E+00 0. -1.
         24    2    1    2    0    0 -0.36169163096E+03  0.36936712364E+03  0.26995642374E+03  0.58889697725E+03  0.81671728078E+02 0.  0.
        254    2    1    2    0    0  0.36169163096E+03 -0.36936712364E+03 -0.16938103955E+04  0.19785630446E+04  0.88230672537E+03 0.  0.
         23    2    4    4    0    0  0.29985186038E+03 -0.37737538599E+03 -0.28625308730E+03  0.56727246631E+03  0.86798046754E+02 0.  0.
         23    2    4    4    0    0  0.61839770579E+02  0.80082623429E+01 -0.14075573082E+04  0.14112905783E+04  0.81456927490E+02 0.  0.
          2    1    3    3  502    0 -0.90423680589E+01  0.22480484186E+02  0.31546795074E+02  0.39778598125E+02  0.00000000000E+00 0. -1.
         -1    1    3    3    0  502 -0.35264926290E+03  0.34688663946E+03  0.23840962867E+03  0.54911837913E+03  0.00000000000E+00 0.  1.
         13    1    5    5    0    0  0.35724279490E+02 -0.38656276559E+02 -0.29280301193E+01  0.52717219415E+02  0.00000000000E+00 0. -1.
        -13    1    5    5    0    0  0.26412758089E+03 -0.33871910943E+03 -0.28332505718E+03  0.51455524689E+03  0.00000000000E+00 0.  1.
          3    1    6    6  503    0  0.16794908840E+02  0.14411060162E+02 -0.81447006126E+02  0.84400014365E+02  0.00000000000E+00 0. -1.
         -3    1    6    6    0  503  0.45044861739E+02 -0.64027978191E+01 -0.13261103021E+04  0.13268905639E+04  0.00000000000E+00 0.  1.
<mgrwt>
<rscale>  0 0.21364669E+04</rscale>
<asrwt>0</asrwt>
<pdfrwt beam="1">  1        2 0.30702415E+00 0.21364669E+04</pdfrwt>
<pdfrwt beam="2">  1       -1 0.87969697E-01 0.21364669E+04</pdfrwt>
<totfact> 0.89252107E+00</totfact>
</mgrwt>
</event>
<event>
12    7  0.1637954E-007  0.1902507E+04  0.7818608E-02  0.8653610E-01
         -1   -1    0    0    0  501 -0.00000000000E+00  0.00000000000E+00  0.62710623185E+03  0.62710623185E+03  0.00000000000E+00 0.  1.
          2   -1    0    0  501    0  0.00000000000E+00 -0.00000000000E+00 -0.14429498639E+04  0.14429498639E+04  0.00000000000E+00 0. -1.
         24    2    1    2    0    0 -0.68534563854E+03 -0.58624545529E+02 -0.45185165222E+02  0.69404780153E+03  0.80778524695E+02 0.  0.
        254    2    1    2    0    0  0.68534563854E+03  0.58624545529E+02 -0.77065846686E+03  0.13760082942E+04  0.90903733240E+03 0.  0.
         23    2    4    4    0    0  0.47343183558E+03  0.25585027664E+03 -0.89359005921E+03  0.10472438511E+04  0.92840846171E+02 0.  0.
         23    2    4    4    0    0  0.21191380296E+03 -0.19722573111E+03  0.12293159235E+03  0.32876444316E+03  0.95751938852E+02 0.  0.
          4    1    3    3  502    0 -0.24139067025E+03 -0.37101667750E+02 -0.51183102791E+02  0.24953095889E+03  0.00000000000E+00 0. -1.
         -3    1    3    3    0  502 -0.44395496829E+03 -0.21522877779E+02  0.59979375693E+01  0.44451684264E+03  0.00000000000E+00 0.  1.
         13    1    5    5    0    0  0.54996689250E+02  0.13976368571E+02 -0.15011716003E+03  0.16048406912E+03  0.00000000000E+00 0. -1.
        -13    1    5    5    0    0  0.41843514633E+03  0.24187390807E+03 -0.74347289918E+03  0.88675978196E+03  0.00000000000E+00 0.  1.
          3    1    6    6  503    0  0.13525026590E+03 -0.96502231427E+02  0.11474455943E+03  0.20191985790E+03  0.00000000000E+00 0. -1.
         -3    1    6    6    0  503  0.76663537062E+02 -0.10072349968E+03  0.81870329271E+01  0.12684458526E+03  0.00000000000E+00 0.  1.
<mgrwt>
<rscale>  0 0.19025066E+04</rscale>
<asrwt>0</asrwt>
<pdfrwt beam="1">  1        2 0.22199229E+00 0.19025066E+04</pdfrwt>
<pdfrwt beam="2">  1       -1 0.96477883E-01 0.19025066E+04</pdfrwt>
<totfact> 0.15091362E+01</totfact>
</mgrwt>
</event>
<event>
12    7  0.1637954E-007  0.1539160E+04  0.7818608E-02  0.8858822E-01
         -1   -1    0    0    0  501 -0.00000000000E+00  0.00000000000E+00  0.77279992041E+03  0.77279992041E+03  0.00000000000E+00 0.  1.
          2   -1    0    0  501    0  0.00000000000E+00 -0.00000000000E+00 -0.76637333532E+03  0.76637333532E+03  0.00000000000E+00 0. -1.
         24    2    1    2    0    0 -0.31198433260E+03 -0.33377209764E+03 -0.18081492646E+03  0.50080143669E+03  0.96798783097E+02 0.  0.
        254    2    1    2    0    0  0.31198433260E+03  0.33377209764E+03  0.18724151156E+03  0.10383718190E+04  0.91346516846E+03 0.  0.
         23    2    4    4    0    0 -0.15492061440E+03 -0.28204880230E+02 -0.24133828074E+03  0.30262088753E+03  0.92408461647E+02 0.  0.
         23    2    4    4    0    0  0.46690494700E+03  0.36197697787E+03  0.42857979229E+03  0.73575093151E+03  0.92850594065E+02 0.  0.
          2    1    3    3  502    0 -0.27014219122E+03 -0.25152458386E+03 -0.17457696569E+03  0.40831181309E+03  0.00000000000E+00 0. -1.
         -3    1    3    3    0  502 -0.41842141377E+02 -0.82247513783E+02 -0.62379607746E+01  0.92489623597E+02  0.00000000000E+00 0.  1.
         13    1    5    5    0    0 -0.15976402432E+03 -0.11729243041E+02 -0.23480880014E+03  0.28424864332E+03  0.00000000000E+00 0.  1.
        -13    1    5    5    0    0  0.48434099105E+01 -0.16475637188E+02 -0.65294805960E+01  0.18372244206E+02  0.00000000000E+00 0. -1.
          2    1    6    6  503    0  0.60830531094E+02  0.60658249077E+02  0.10396516228E+03  0.13486486445E+03  0.00000000000E+00 0. -1.
         -2    1    6    6    0  503  0.40607441591E+03  0.30131872879E+03  0.32461463001E+03  0.60088606706E+03  0.00000000000E+00 0.  1.
<mgrwt>
<rscale>  0 0.15391598E+04</rscale>
<asrwt>0</asrwt>
<pdfrwt beam="1">  1        2 0.11790359E+00 0.15391598E+04</pdfrwt>
<pdfrwt beam="2">  1       -1 0.11889230E+00 0.15391598E+04</pdfrwt>
<totfact> 0.25405198E+01</totfact>
</mgrwt>
</event>
<event>
12    7  0.1637954E-007  0.2881494E+04  0.7818608E-02  0.8278405E-01
         -1   -1    0    0    0  501 -0.00000000000E+00  0.00000000000E+00  0.84990841961E+03  0.84990841961E+03  0.00000000000E+00 0.  1.
          2   -1    0    0  501    0  0.00000000000E+00 -0.00000000000E+00 -0.24423249099E+04  0.24423249099E+04  0.00000000000E+00 0. -1.
         24    2    1    2    0    0  0.11588471359E+04  0.13902593029E+03 -0.87769699908E+02  0.11731577480E+04  0.79628435618E+02 0.  0.
        254    2    1    2    0    0 -0.11588471359E+04 -0.13902593029E+03 -0.15046467904E+04  0.21190755816E+04  0.92965825061E+03 0.  0.
         23    2    4    4    0    0  0.11921257784E+03 -0.14778275781E+03 -0.21995740329E+03  0.30453819802E+03  0.91163987233E+02 0.  0.
         23    2    4    4    0    0 -0.12780597137E+04  0.87568275206E+01 -0.12846893871E+04  0.18145373835E+04  0.92767349266E+02 0.  0.
          4    1    3    3  502    0  0.41910865836E+03  0.38288130749E+02  0.47483072352E+01  0.42088073714E+03  0.00000000000E+00 0. -1.
         -3    1    3    3    0  502  0.73973847751E+03  0.10073779954E+03 -0.92518007143E+02  0.75227701082E+03  0.00000000000E+00 0.  1.
         13    1    5    5    0    0  0.49042590996E+02 -0.12338953074E+03 -0.16676972580E+03  0.21317198097E+03  0.00000000000E+00 0. -1.
        -13    1    5    5    0    0  0.70169986847E+02 -0.24393227077E+02 -0.53187677487E+02  0.91366217049E+02  0.00000000000E+00 0.  1.
          1    1    6    6  503    0 -0.16385501393E+03 -0.45896673435E+01 -0.12386454087E+03  0.20545548209E+03  0.00000000000E+00 0. -1.
         -1    1    6    6    0  503 -0.11142046998E+04  0.13346494864E+02 -0.11608248462E+04  0.16090819015E+04  0.00000000000E+00 0.  1.
<mgrwt>
<rscale>  0 0.28814944E+04</rscale>
<asrwt>0</asrwt>
<pdfrwt beam="1">  1        2 0.37574229E+00 0.28814944E+04</pdfrwt>
<pdfrwt beam="2">  1       -1 0.13075514E+00 0.28814944E+04</pdfrwt>
<totfact> 0.18455484E+00</totfact>
</mgrwt>
</event>
<event>
12    7  0.1637954E-007  0.2003009E+04  0.7818608E-02  0.8605215E-01
         -1   -1    0    0    0  501 -0.00000000000E+00  0.00000000000E+00  0.80766722679E+03  0.80766722679E+03  0.00000000000E+00 0.  1.
          2   -1    0    0  501    0  0.00000000000E+00 -0.00000000000E+00 -0.12418616613E+04  0.12418616613E+04  0.00000000000E+00 0. -1.
         24    2    1    2    0    0 -0.61074971735E+03 -0.46015160608E+03  0.58713595964E+02  0.76900293303E+03  0.56245060560E+02 0.  0.
        254    2    1    2    0    0  0.61074971735E+03  0.46015160608E+03 -0.49290803042E+03  0.12805259550E+04  0.90112911239E+03 0.  0.
         23    2    4    4    0    0  0.34661717821E+03  0.13183896619E+03 -0.70382333457E+03  0.80048228073E+03  0.88767191308E+02 0.  0.
         23    2    4    4    0    0  0.26413253914E+03  0.32831263989E+03  0.21091530414E+03  0.48004367428E+03  0.91659565550E+02 0.  0.
          2    1    3    3  502    0 -0.22099037218E+03 -0.16872887308E+03 -0.56911774155E+01  0.27809812424E+03  0.00000000000E+00 0. -1.
         -1    1    3    3    0  502 -0.38975934517E+03 -0.29142273299E+03  0.64404773380E+02  0.49090480878E+03  0.00000000000E+00 0.  1.
         13    1    5    5    0    0  0.33362498269E+03  0.10481971167E+03 -0.62553541349E+03  0.71665009214E+03  0.00000000000E+00 0. -1.
        -13    1    5    5    0    0  0.12992195528E+02  0.27019254511E+02 -0.78287921073E+02  0.83832188597E+02  0.00000000000E+00 0.  1.
          1    1    6    6  503    0  0.17567499324E+03  0.16357084446E+03  0.85128248811E+02  0.25468400647E+03  0.00000000000E+00 0. -1.
         -1    1    6    6    0  503  0.88457545898E+02  0.16474179543E+03  0.12578705533E+03  0.22535966782E+03  0.00000000000E+00 0.  1.
<mgrwt>
<rscale>  0 0.20030087E+04</rscale>
<asrwt>0</asrwt>
<pdfrwt beam="1">  1        2 0.19105564E+00 0.20030087E+04</pdfrwt>
<pdfrwt beam="2">  1       -1 0.12425650E+00 0.20030087E+04</pdfrwt>
<totfact> 0.10757937E+01</totfact>
</mgrwt>
</event>
<event>
12    7  0.1637954E-007  0.2601929E+04  0.7818608E-02  0.8367546E-01
         -1   -1    0    0    0  501 -0.00000000000E+00  0.00000000000E+00  0.52049371268E+03  0.52049371268E+03  0.00000000000E+00 0.  1.
          2   -1    0    0  501    0  0.00000000000E+00 -0.00000000000E+00 -0.32517367806E+04  0.32517367806E+04  0.00000000000E+00 0. -1.
         24    2    1    2    0    0 -0.55207407234E+03  0.35986285997E+03 -0.25572669700E+04  0.26420290546E+04  0.80100623838E+02 0.  0.
        254    2    1    2    0    0  0.55207407234E+03 -0.35986285997E+03 -0.17397609790E+03  0.11302014387E+04  0.90155451862E+03 0.  0.
         23    2    4    4    0    0  0.11460726144E+02 -0.44923220596E+03 -0.31659993885E+03  0.55693803020E+03  0.89462422775E+02 0.  0.
         23    2    4    4    0    0  0.54061334620E+03  0.89369345991E+02  0.14262384095E+03  0.57326340849E+03  0.89664404416E+02 0.  0.
          2    1    3    3  502    0 -0.51190251949E+03  0.30565140772E+03 -0.23148904644E+04  0.23904361181E+04  0.00000000000E+00 0. -1.
         -1    1    3    3    0  502 -0.40171552852E+02  0.54211452250E+02 -0.24237650558E+03  0.25159293645E+03  0.00000000000E+00 0.  1.
         13    1    5    5    0    0 -0.12662620922E+02 -0.73494108706E+02 -0.92356086282E+02  0.11870708764E+03  0.00000000000E+00 0.  1.
        -13    1    5    5    0    0  0.24123347066E+02 -0.37573809726E+03 -0.22424385257E+03  0.43823094256E+03  0.00000000000E+00 0. -1.
          3    1    6    6  503    0  0.38075580579E+03  0.10353782848E+03  0.94904159233E+02  0.40583477550E+03  0.00000000000E+00 0. -1.
         -3    1    6    6    0  503  0.15985754041E+03 -0.14168482488E+02  0.47719681717E+02  0.16742863299E+03  0.00000000000E+00 0.  1.
<mgrwt>
<rscale>  0 0.26019289E+04</rscale>
<asrwt>0</asrwt>
<pdfrwt beam="1">  1        2 0.50026722E+00 0.26019289E+04</pdfrwt>
<pdfrwt beam="2">  1       -1 0.80075953E-01 0.26019289E+04</pdfrwt>
<totfact> 0.18775931E+00</totfact>
</mgrwt>
</event>
<event>
12    7  0.1637954E-007  0.1415595E+04  0.7818608E-02  0.8942607E-01
         -1   -1    0    0    0  501 -0.00000000000E+00  0.00000000000E+00  0.40001300627E+03  0.40001300627E+03  0.00000000000E+00 0.  1.
          2   -1    0    0  501    0  0.00000000000E+00 -0.00000000000E+00 -0.12524032891E+04  0.12524032891E+04  0.00000000000E+00 0. -1.
         24    2    1    2    0    0 -0.25783611724E+03  0.31224818583E+03 -0.36122940165E+03  0.54823383041E+03  0.78072141535E+02 0.  0.
        254    2    1    2    0    0  0.25783611724E+03 -0.31224818583E+03 -0.49116088115E+03  0.11041824649E+04  0.90222032330E+03 0.  0.
         23    2    4    4    0    0  0.49190043413E+03 -0.30012425012E+01 -0.38479514496E+02  0.50108179145E+03  0.87334094903E+02 0.  0.
         23    2    4    4    0    0 -0.23406431689E+03 -0.30924694333E+03 -0.45268136666E+03  0.60310067348E+03  0.91598178086E+02 0.  0.
          4    1    3    3  502    0 -0.11208148108E+03  0.93984291106E+02 -0.16520215743E+03  0.22065144051E+03  0.00000000000E+00 0. -1.
         -3    1    3    3    0  502 -0.14575463616E+03  0.21826389473E+03 -0.19602724421E+03  0.32758238990E+03  0.00000000000E+00 0.  1.
         13    1    5    5    0    0  0.47848148079E+03 -0.18828262718E+02 -0.36765127715E+02  0.48026108062E+03  0.00000000000E+00 0. -1.
        -13    1    5    5    0    0  0.13418953340E+02  0.15827020217E+02 -0.17143867809E+01  0.20820710836E+02  0.00000000000E+00 0.  1.
          1    1    6    6  503    0 -0.21059170689E+03 -0.23730953158E+03 -0.32172158030E+03  0.45185114365E+03  0.00000000000E+00 0. -1.
         -1    1    6    6    0  503 -0.23472610005E+02 -0.71937411750E+02 -0.13095978636E+03  0.15124952982E+03  0.00000000000E+00 0.  1.
<mgrwt>
<rscale>  0 0.14155954E+04</rscale>
<asrwt>0</asrwt>
<pdfrwt beam="1">  1        2 0.19267743E+00 0.14155954E+04</pdfrwt>
<pdfrwt beam="2">  1       -1 0.61540463E-01 0.14155954E+04</pdfrwt>
<totfact> 0.52330810E+01</totfact>
</mgrwt>
</event>
<event>
12    7  0.1637954E-007  0.2207178E+04  0.7818608E-02  0.8515446E-01
         -1   -1    0    0    0  501 -0.00000000000E+00  0.00000000000E+00  0.41154820663E+03  0.41154820663E+03  0.00000000000E+00 0.  1.
          2   -1    0    0  501    0  0.00000000000E+00 -0.00000000000E+00 -0.29593349501E+04  0.29593349501E+04  0.00000000000E+00 0. -1.
         24    2    1    2    0    0 -0.48425071871E+02 -0.89927753423E+03 -0.13931412782E+04  0.16607709632E+04  0.79199116180E+02 0.  0.
        254    2    1    2    0    0  0.48425071871E+02  0.89927753423E+03 -0.11546454653E+04  0.17101121936E+04  0.88330770000E+03 0.  0.
         23    2    4    4    0    0  0.90386539621E+02  0.44333951018E+03  0.28488918079E+01  0.46210257399E+03  0.93867059593E+02 0.  0.
         23    2    4    4    0    0 -0.41961467750E+02  0.45593802405E+03 -0.11574943571E+04  0.12480096196E+04  0.89969868592E+02 0.  0.
          4    1    3    3  502    0 -0.63223970093E+02 -0.68034837712E+03 -0.10923362474E+04  0.12884369065E+04  0.00000000000E+00 0. -1.
         -3    1    3    3    0  502  0.14798898222E+02 -0.21892915710E+03 -0.30080503085E+03  0.37233405673E+03  0.00000000000E+00 0.  1.
         13    1    5    5    0    0  0.60173728281E+02  0.41686059323E+03  0.99858431929E+01  0.42129959510E+03  0.00000000000E+00 0.  1.
        -13    1    5    5    0    0  0.30212811340E+02  0.26478916947E+02 -0.71369513850E+01  0.40802978896E+02  0.00000000000E+00 0. -1.
          2    1    6    6  503    0 -0.58192637134E+02  0.25781358120E+03 -0.58350255058E+03  0.64056963103E+03  0.00000000000E+00 0. -1.
         -2    1    6    6    0  503  0.16231169385E+02  0.19812444285E+03 -0.57399180653E+03  0.60743998854E+03  0.00000000000E+00 0.  1.
<mgrwt>
<rscale>  0 0.22071783E+04</rscale>
<asrwt>0</asrwt>
<pdfrwt beam="1">  1        2 0.45528229E+00 0.22071783E+04</pdfrwt>
<pdfrwt beam="2">  1       -1 0.63315110E-01 0.22071783E+04</pdfrwt>
<totfact> 0.48599596E+00</totfact>
</mgrwt>
</event>
<event>
12    7  0.1637954E-007  0.2086342E+04  0.7818608E-02  0.8567284E-01
          2   -1    0    0  501    0  0.00000000000E+00  0.00000000000E+00  0.15204631658E+04  0.15204631658E+04  0.00000000000E+00 0. -1.
         -3   -1    0    0    0  501 -0.00000000000E+00 -0.00000000000E+00 -0.71570642832E+03  0.71570642832E+03  0.00000000000E+00 0.  1.
         24    2    1    2    0    0  0.32973595407E+03  0.75587488594E+03  0.11102364125E+03  0.83589440036E+03  0.79501930984E+02 0.  0.
        254    2    1    2    0    0 -0.32973595407E+03 -0.75587488594E+03  0.69373309626E+03  0.14002751938E+04  0.89410981815E+03 0.  0.
         23    2    4    4    0    0  0.20624201691E+03 -0.61307144637E+03  0.34192952688E+03  0.73702386203E+03  0.88859461845E+02 0.  0.
         23    2    4    4    0    0 -0.53597797098E+03 -0.14280343958E+03  0.35180356939E+03  0.66325133177E+03  0.92040045265E+02 0.  0.
          4    1    3    3  502    0  0.18436965233E+03  0.32896360786E+03  0.63503281819E+02  0.38241586107E+03  0.00000000000E+00 0. -1.
         -1    1    3    3    0  502  0.14536630175E+03  0.42691127808E+03  0.47520359430E+02  0.45347853929E+03  0.00000000000E+00 0.  1.
         13    1    5    5    0    0  0.97678678837E+02 -0.20674996162E+03  0.83700329229E+02  0.24350034095E+03  0.00000000000E+00 0.  1.
        -13    1    5    5    0    0  0.10856333807E+03 -0.40632148474E+03  0.25822919765E+03  0.49352352108E+03  0.00000000000E+00 0. -1.
          2    1    6    6  503    0 -0.38852912833E+03 -0.62181284680E+02  0.26187070335E+03  0.47264961758E+03  0.00000000000E+00 0. -1.
         -2    1    6    6    0  503 -0.14744884265E+03 -0.80622154896E+02  0.89932866032E+02  0.19060171419E+03  0.00000000000E+00 0.  1.
<mgrwt>
<rscale>  0 0.20863415E+04</rscale>
<asrwt>0</asrwt>
<pdfrwt beam="1">  1        2 0.23391741E+00 0.20863415E+04</pdfrwt>
<pdfrwt beam="2">  1       -3 0.11010868E+00 0.20863415E+04</pdfrwt>
<totfact> 0.50433436E+00</totfact>
</mgrwt>
</event>
<event>
12    7  0.1637954E-007  0.1573119E+04  0.7818608E-02  0.8837234E-01
          2   -1    0    0  501    0  0.00000000000E+00  0.00000000000E+00  0.11249715674E+04  0.11249715674E+04  0.00000000000E+00 0. -1.
         -1   -1    0    0    0  501 -0.00000000000E+00 -0.00000000000E+00 -0.54994800948E+03  0.54994800948E+03  0.00000000000E+00 0.  1.
         24    2    1    2    0    0 -0.37943803214E+03 -0.22405112070E+03 -0.10606319424E+03  0.46061386085E+03  0.82119441738E+02 0.  0.
        254    2    1    2    0    0  0.37943803214E+03  0.22405112070E+03  0.68108675215E+03  0.12143057160E+04  0.90359674804E+03 0.  0.
         23    2    4    4    0    0 -0.24739263186E+03 -0.92987287215E+02  0.29222387004E+03  0.40665194907E+03  0.10060451071E+03 0.  0.
         23    2    4    4    0    0  0.62683066400E+03  0.31703840791E+03  0.38886288211E+03  0.80765376695E+03  0.87522755660E+02 0.  0.
          4    1    3    3  502    0 -0.84080146672E+02 -0.92203158957E+02 -0.30209347882E+02  0.12838807688E+03  0.00000000000E+00 0. -1.
         -3    1    3    3    0  502 -0.29535788547E+03 -0.13184796174E+03 -0.75853846361E+02  0.33222578397E+03  0.00000000000E+00 0.  1.
         13    1    5    5    0    0 -0.18943121625E+03 -0.99688211289E+02  0.26918120134E+03  0.34391924098E+03  0.00000000000E+00 0. -1.
        -13    1    5    5    0    0 -0.57961415613E+02  0.67009240742E+01  0.23042668696E+02  0.62732708087E+02  0.00000000000E+00 0.  1.
          4    1    6    6  503    0  0.55815140165E+03  0.28589613757E+03  0.31375642672E+03  0.70122227856E+03  0.00000000000E+00 0. -1.
         -4    1    6    6    0  503  0.68679262352E+02  0.31142270344E+02  0.75106455390E+02  0.10643148839E+03  0.00000000000E+00 0.  1.
<mgrwt>
<rscale>  0 0.15731190E+04</rscale>
<asrwt>0</asrwt>
<pdfrwt beam="1">  1        2 0.17307255E+00 0.15731190E+04</pdfrwt>
<pdfrwt beam="2">  1       -1 0.84607386E-01 0.15731190E+04</pdfrwt>
<totfact> 0.31875310E+01</totfact>
</mgrwt>
</event>
<event>
12    7  0.1637954E-007  0.1517573E+04  0.7818608E-02  0.8872850E-01
          2   -1    0    0  501    0  0.00000000000E+00  0.00000000000E+00  0.26196941377E+04  0.26196941377E+04  0.00000000000E+00 0. -1.
         -1   -1    0    0    0  501 -0.00000000000E+00 -0.00000000000E+00 -0.21978032422E+03  0.21978032422E+03  0.00000000000E+00 0.  1.
         24    2    1    2    0    0  0.37640152712E+03 -0.10648091621E+03  0.24680203416E+03  0.46924815989E+03  0.79159941673E+02 0.  0.
        254    2    1    2    0    0 -0.37640152712E+03  0.10648091621E+03  0.21531117794E+04  0.23702263021E+04  0.91053066582E+03 0.  0.
         23    2    4    4    0    0  0.85032915113E+02 -0.26829404322E+03  0.12551494058E+04  0.12895495064E+04  0.91244771024E+02 0.  0.
         23    2    4    4    0    0 -0.46143444223E+03  0.37477495944E+03  0.89796237356E+03  0.10806767957E+04  0.90265706029E+02 0.  0.
          4    1    3    3  502    0  0.46166166527E+01 -0.14345305310E+02  0.34827273309E+01  0.15467072231E+02  0.00000000000E+00 0. -1.
         -3    1    3    3    0  502  0.37178491047E+03 -0.92135610904E+02  0.24331930682E+03  0.45378108766E+03  0.00000000000E+00 0.  1.
         13    1    5    5    0    0  0.18678157685E+02 -0.32740280608E+02  0.71087550319E+02  0.80462658166E+02  0.00000000000E+00 0.  1.
        -13    1    5    5    0    0  0.66354757428E+02 -0.23555376262E+03  0.11840618555E+04  0.12090868482E+04  0.00000000000E+00 0. -1.
          1    1    6    6  503    0 -0.30309753365E+03  0.25721206190E+03  0.52202165300E+03  0.65614995686E+03  0.00000000000E+00 0. -1.
         -1    1    6    6    0  503 -0.15833690858E+03  0.11756289754E+03  0.37594072056E+03  0.42452683881E+03  0.00000000000E+00 0.  1.
<mgrwt>
<rscale>  0 0.15175734E+04</rscale>
<asrwt>0</asrwt>
<pdfrwt beam="1">  1        2 0.40302985E+00 0.15175734E+04</pdfrwt>
<pdfrwt beam="2">  1       -1 0.33812359E-01 0.15175734E+04</pdfrwt>
<totfact> 0.26972333E+01</totfact>
</mgrwt>
</event>
<event>
12    7  0.1637954E-007  0.1433766E+04  0.7818608E-02  0.8929733E-01
          2   -1    0    0  501    0  0.00000000000E+00  0.00000000000E+00  0.74524849103E+03  0.74524849103E+03  0.00000000000E+00 0. -1.
         -1   -1    0    0    0  501 -0.00000000000E+00 -0.00000000000E+00 -0.68959692283E+03  0.68959692283E+03  0.00000000000E+00 0.  1.
         24    2    1    2    0    0 -0.16444168933E+03 -0.37396441088E+03  0.13808728687E+03  0.43881826375E+03  0.81258353507E+02 0.  0.
        254    2    1    2    0    0  0.16444168933E+03  0.37396441088E+03 -0.82435718673E+02  0.99602715011E+03  0.90464577944E+03 0.  0.
         23    2    4    4    0    0 -0.11411178843E+03  0.60249762543E+03 -0.31981113861E+02  0.62109182693E+03  0.93313326660E+02 0.  0.
         23    2    4    4    0    0  0.27855347776E+03 -0.22853321455E+03 -0.50454604812E+02  0.37493532318E+03  0.90616550883E+02 0.  0.
          4    1    3    3  502    0 -0.16025590893E+03 -0.37318485277E+03  0.14453569690E+03  0.43109100937E+03  0.00000000000E+00 0. -1.
         -3    1    3    3    0  502 -0.41857804045E+01 -0.77955810996E+00 -0.64484100268E+01  0.77272543840E+01  0.00000000000E+00 0.  1.
         13    1    5    5    0    0  0.13412914573E+02  0.13310839518E+03 -0.27603654659E+01  0.13381095157E+03  0.00000000000E+00 0.  1.
        -13    1    5    5    0    0 -0.12752470300E+03  0.46938923025E+03 -0.29220748395E+02  0.48728087536E+03  0.00000000000E+00 0. -1.
          4    1    6    6  503    0  0.23526474164E+03 -0.14227355767E+03 -0.34059716242E+02  0.27704030057E+03  0.00000000000E+00 0. -1.
         -4    1    6    6    0  503  0.43288736126E+02 -0.86259656880E+02 -0.16394888570E+02  0.97895022609E+02  0.00000000000E+00 0.  1.
<mgrwt>
<rscale>  0 0.14337658E+04</rscale>
<asrwt>0</asrwt>
<pdfrwt beam="1">  1        2 0.11465361E+00 0.14337658E+04</pdfrwt>
<pdfrwt beam="2">  1       -1 0.10609183E+00 0.14337658E+04</pdfrwt>
<totfact> 0.34853763E+01</totfact>
</mgrwt>
</event>
<event>
12    7  0.1637954E-007  0.1451588E+04  0.7818608E-02  0.8917300E-01
          2   -1    0    0  501    0  0.00000000000E+00  0.00000000000E+00  0.10771734246E+04  0.10771734246E+04  0.00000000000E+00 0. -1.
         -1   -1    0    0    0  501 -0.00000000000E+00 -0.00000000000E+00 -0.48903640348E+03  0.48903640348E+03  0.00000000000E+00 0.  1.
         24    2    1    2    0    0  0.14669385952E+03 -0.10229934697E+03 -0.25549210872E+03  0.32168697764E+03  0.78879966723E+02 0.  0.
        254    2    1    2    0    0 -0.14669385952E+03  0.10229934697E+03  0.84362912987E+03  0.12445228505E+04  0.89729748231E+03 0.  0.
         23    2    4    4    0    0 -0.31035906941E+03 -0.30865521318E+03  0.53797848268E+03  0.69940859771E+03  0.90336848168E+02 0.  0.
         23    2    4    4    0    0  0.16366520989E+03  0.41095456015E+03  0.30565064719E+03  0.54511425276E+03  0.89762347345E+02 0.  0.
          2    1    3    3  502    0  0.16079074062E+01  0.30831168907E+01  0.46024707230E+01  0.57683370866E+01  0.00000000000E+00 0. -1.
         -1    1    3    3    0  502  0.14508595212E+03 -0.10538246386E+03 -0.26009457945E+03  0.31591864055E+03  0.00000000000E+00 0.  1.
         13    1    5    5    0    0 -0.14811632954E+03 -0.85459598726E+02  0.20632849617E+03  0.26797992168E+03  0.00000000000E+00 0.  1.
        -13    1    5    5    0    0 -0.16224273987E+03 -0.22319561445E+03  0.33164998651E+03  0.43142867603E+03  0.00000000000E+00 0. -1.
          4    1    6    6  503    0  0.48117659304E+02  0.44244240613E+02  0.29380735533E+02  0.71666516483E+02  0.00000000000E+00 0.  1.
         -4    1    6    6    0  503  0.11554755058E+03  0.36671031953E+03  0.27626991166E+03  0.47344773628E+03  0.00000000000E+00 0. -1.
<mgrwt>
<rscale>  0 0.14515881E+04</rscale>
<asrwt>0</asrwt>
<pdfrwt beam="1">  1        2 0.16571899E+00 0.14515881E+04</pdfrwt>
<pdfrwt beam="2">  1       -1 0.75236370E-01 0.14515881E+04</pdfrwt>
<totfact> 0.44224854E+01</totfact>
</mgrwt>
</event>
<event>
12    7  0.1637954E-007  0.1502114E+04  0.7818608E-02  0.8883049E-01
          2   -1    0    0  501    0  0.00000000000E+00  0.00000000000E+00  0.11280043163E+04  0.11280043163E+04  0.00000000000E+00 0. -1.
         -1   -1    0    0    0  501 -0.00000000000E+00 -0.00000000000E+00 -0.50007455350E+03  0.50007455350E+03  0.00000000000E+00 0.  1.
         24    2    1    2    0    0 -0.52938628324E+01  0.33862637144E+03 -0.15950833366E+03  0.38317466445E+03  0.81756165235E+02 0.  0.
        254    2    1    2    0    0  0.52938628324E+01 -0.33862637144E+03  0.78743809642E+03  0.12449042053E+04  0.90279116095E+03 0.  0.
         23    2    4    4    0    0  0.32980155234E+03 -0.54302036338E+02  0.71978274035E+03  0.79884071198E+03  0.91331893318E+02 0.  0.
         23    2    4    4    0    0 -0.32450768951E+03 -0.28432433510E+03  0.67655356069E+02  0.44606349333E+03  0.90828546136E+02 0.  0.
          4    1    3    3  502    0 -0.22724369498E+02  0.70637763433E+02 -0.74928200465E+01  0.74580379083E+02  0.00000000000E+00 0. -1.
         -3    1    3    3    0  502  0.17430506665E+02  0.26798860801E+03 -0.15201551362E+03  0.30859428537E+03  0.00000000000E+00 0.  1.
         13    1    5    5    0    0  0.99929087155E+02  0.14432628119E+02  0.15236699148E+03  0.18278354222E+03  0.00000000000E+00 0. -1.
        -13    1    5    5    0    0  0.22987246519E+03 -0.68734664457E+02  0.56741574887E+03  0.61605716976E+03  0.00000000000E+00 0.  1.
          2    1    6    6  503    0 -0.24483404856E+02 -0.31136767869E+02  0.33722162409E+02  0.52020377394E+02  0.00000000000E+00 0. -1.
         -2    1    6    6    0  503 -0.30002428465E+03 -0.25318756723E+03  0.33933193660E+02  0.39404311593E+03  0.00000000000E+00 0.  1.
<mgrwt>
<rscale>  0 0.15021135E+04</rscale>
<asrwt>0</asrwt>
<pdfrwt beam="1">  1        2 0.17353912E+00 0.15021135E+04</pdfrwt>
<pdfrwt beam="2">  1       -1 0.76934547E-01 0.15021135E+04</pdfrwt>
<totfact> 0.39101696E+01</totfact>
</mgrwt>
</event>
<event>
12    7  0.1637954E-007  0.1690717E+04  0.7818608E-02  0.8766676E-01
         -1   -1    0    0    0  501 -0.00000000000E+00  0.00000000000E+00  0.62977194447E+03  0.62977194447E+03  0.00000000000E+00 0.  1.
          2   -1    0    0  501    0  0.00000000000E+00 -0.00000000000E+00 -0.11347460392E+04  0.11347460392E+04  0.00000000000E+00 0. -1.
         24    2    1    2    0    0  0.39283170621E+03 -0.15101337573E+03  0.26694066479E+03  0.50473067780E+03  0.79837018587E+02 0.  0.
        254    2    1    2    0    0 -0.39283170621E+03  0.15101337573E+03 -0.77191475954E+03  0.12597873059E+04  0.90226928965E+03 0.  0.
         23    2    4    4    0    0 -0.67096832356E+03  0.10765189767E+03 -0.63164167314E+03  0.93111022320E+03  0.78788465002E+02 0.  0.
         23    2    4    4    0    0  0.27813661735E+03  0.43361478064E+02 -0.14027308641E+03  0.32867708270E+03  0.95456221543E+02 0.  0.
          4    1    3    3  502    0  0.58777923547E+02 -0.52375654750E+02  0.65141448506E+02  0.10218347137E+03  0.00000000000E+00 0. -1.
         -3    1    3    3    0  502  0.33405378267E+03 -0.98637720981E+02  0.20179921628E+03  0.40254720643E+03  0.00000000000E+00 0.  1.
         13    1    5    5    0    0 -0.10875316935E+03  0.91202963021E+01 -0.14193448597E+03  0.17904141967E+03  0.00000000000E+00 0.  1.
        -13    1    5    5    0    0 -0.56221515421E+03  0.98531601365E+02 -0.48970718717E+03  0.75206880354E+03  0.00000000000E+00 0. -1.
          4    1    6    6  503    0  0.25371541264E+03  0.27318365967E+02 -0.15219238093E+03  0.29712005072E+03  0.00000000000E+00 0. -1.
         -4    1    6    6    0  503  0.24421204710E+02  0.16043112097E+02  0.11919294520E+02  0.31557031975E+02  0.00000000000E+00 0.  1.
<mgrwt>
<rscale>  0 0.16907173E+04</rscale>
<asrwt>0</asrwt>
<pdfrwt beam="1">  1        2 0.17457631E+00 0.16907173E+04</pdfrwt>
<pdfrwt beam="2">  1       -1 0.96887992E-01 0.16907173E+04</pdfrwt>
<totfact> 0.23074940E+01</totfact>
</mgrwt>
</event>
<event>
12    7  0.1637954E-007  0.2201719E+04  0.7818608E-02  0.8517713E-01
          4   -1    0    0  501    0  0.00000000000E+00  0.00000000000E+00  0.70088075695E+03  0.70088075695E+03  0.00000000000E+00 0. -1.
         -1   -1    0    0    0  501 -0.00000000000E+00 -0.00000000000E+00 -0.17290985130E+04  0.17290985130E+04  0.00000000000E+00 0.  1.
         24    2    1    2    0    0  0.45426130837E+03  0.23241275138E+03 -0.12614352941E+04  0.13632459974E+04  0.82774543972E+02 0.  0.
        254    2    1    2    0    0 -0.45426130837E+03 -0.23241275138E+03  0.23321753799E+03  0.10667332725E+04  0.90728189193E+03 0.  0.
         23    2    4    4    0    0 -0.47096428602E+03 -0.34865270248E+03 -0.18607077454E+03  0.62165149591E+03  0.91990127612E+02 0.  0.
         23    2    4    4    0    0  0.16702977649E+02  0.11623995110E+03  0.41928831253E+03  0.44508177662E+03  0.92219212524E+02 0.  0.
          4    1    3    3  502    0  0.47380641605E+02  0.38260941733E+02 -0.96408544834E+02  0.11403259349E+03  0.00000000000E+00 0. -1.
         -3    1    3    3    0  502  0.40688066677E+03  0.19415180965E+03 -0.11650267492E+04  0.12492134040E+04  0.00000000000E+00 0.  1.
         13    1    5    5    0    0 -0.30742172599E+02 -0.94060875263E+01 -0.30975440325E+02  0.44643404463E+02  0.00000000000E+00 0.  1.
        -13    1    5    5    0    0 -0.44022211342E+03 -0.33924661496E+03 -0.15509533422E+03  0.57700809145E+03  0.00000000000E+00 0. -1.
          2    1    6    6  503    0  0.53603069469E+02  0.56393571131E+02  0.19192681941E+03  0.20709762899E+03  0.00000000000E+00 0.  1.
         -2    1    6    6    0  503 -0.36900091820E+02  0.59846379969E+02  0.22736149312E+03  0.23798414763E+03  0.00000000000E+00 0. -1.
<mgrwt>
<rscale>  0 0.22017192E+04</rscale>
<asrwt>0</asrwt>
<pdfrwt beam="1">  1        4 0.10782781E+00 0.22017192E+04</pdfrwt>
<pdfrwt beam="2">  1       -1 0.26601515E+00 0.22017192E+04</pdfrwt>
<totfact> 0.14397932E-01</totfact>
</mgrwt>
</event>
<event>
12    7  0.1637954E-007  0.2163380E+04  0.7818608E-02  0.8533827E-01
         -1   -1    0    0    0  501 -0.00000000000E+00  0.00000000000E+00  0.60604184192E+03  0.60604184192E+03  0.00000000000E+00 0.  1.
          2   -1    0    0  501    0  0.00000000000E+00 -0.00000000000E+00 -0.19306470164E+04  0.19306470164E+04  0.00000000000E+00 0. -1.
         24    2    1    2    0    0 -0.11855753249E+03  0.21197093576E+03 -0.15199576069E+04  0.15412829830E+04  0.79338142828E+02 0.  0.
        254    2    1    2    0    0  0.11855753249E+03 -0.21197093576E+03  0.19535243237E+03  0.99540587534E+03  0.94534793474E+03 0.  0.
         23    2    4    4    0    0  0.43646686520E+03 -0.32368624364E+02 -0.16290343792E+03  0.47588290950E+03  0.91520277556E+02 0.  0.
         23    2    4    4    0    0 -0.31790933271E+03 -0.17960231140E+03  0.35825587029E+03  0.51952296585E+03  0.90738687239E+02 0.  0.
          4    1    3    3  502    0 -0.12236377773E+03  0.16066305588E+03 -0.12836562899E+04  0.12994456441E+04  0.00000000000E+00 0. -1.
         -3    1    3    3    0  502  0.38062452410E+01  0.51307879879E+02 -0.23630131701E+03  0.24183733885E+03  0.00000000000E+00 0.  1.
         13    1    5    5    0    0  0.35236040976E+03 -0.39154650655E+02 -0.16595364154E+03  0.39144802487E+03  0.00000000000E+00 0.  1.
        -13    1    5    5    0    0  0.84106455445E+02  0.67860262910E+01  0.30502036225E+01  0.84434884630E+02  0.00000000000E+00 0. -1.
          2    1    6    6  503    0 -0.76365427032E+02 -0.24393665499E+02  0.13001483796E+03  0.15274353489E+03  0.00000000000E+00 0.  1.
         -2    1    6    6    0  503 -0.24154390568E+03 -0.15520864590E+03  0.22824103233E+03  0.36677943096E+03  0.00000000000E+00 0. -1.
<mgrwt>
<rscale>  0 0.21633796E+04</rscale>
<asrwt>0</asrwt>
<pdfrwt beam="1">  1        2 0.29702262E+00 0.21633796E+04</pdfrwt>
<pdfrwt beam="2">  1       -1 0.93237207E-01 0.21633796E+04</pdfrwt>
<totfact> 0.85091435E+00</totfact>
</mgrwt>
</event>
<event>
12    7  0.1637954E-007  0.1601547E+04  0.7818608E-02  0.8819598E-01
         -1   -1    0    0    0  501 -0.00000000000E+00  0.00000000000E+00  0.20722775405E+03  0.20722775405E+03  0.00000000000E+00 0.  1.
          2   -1    0    0  501    0  0.00000000000E+00 -0.00000000000E+00 -0.30943647629E+04  0.30943647629E+04  0.00000000000E+00 0. -1.
         24    2    1    2    0    0 -0.47427802093E+03 -0.27515509601E+02 -0.15446595090E+04  0.16180724482E+04  0.80552495633E+02 0.  0.
        254    2    1    2    0    0  0.47427802093E+03  0.27515509601E+02 -0.13424774999E+04  0.16835200687E+04  0.89794055471E+03 0.  0.
         23    2    4    4    0    0  0.31805144057E+03  0.43453488632E+03 -0.55102106328E+03  0.77533661027E+03  0.86864036155E+02 0.  0.
         23    2    4    4    0    0  0.15622658036E+03 -0.40701937672E+03 -0.79145643660E+03  0.90818345847E+03  0.91227110956E+02 0.  0.
          4    1    3    3  502    0 -0.41683492606E+03 -0.43830133039E+02 -0.14049361186E+04  0.14661234373E+04  0.00000000000E+00 0. -1.
         -3    1    3    3    0  502 -0.57443094873E+02  0.16314623438E+02 -0.13972339038E+03  0.15194901087E+03  0.00000000000E+00 0.  1.
         13    1    5    5    0    0  0.22360540399E+03  0.36157838948E+03 -0.44892540887E+03  0.61828175710E+03  0.00000000000E+00 0.  1.
        -13    1    5    5    0    0  0.94446036580E+02  0.72956496841E+02 -0.10209565441E+03  0.15705485318E+03  0.00000000000E+00 0. -1.
          3    1    6    6  503    0  0.79649832665E+02 -0.14596745409E+03 -0.38157698620E+03  0.41623501762E+03  0.00000000000E+00 0. -1.
         -3    1    6    6    0  503  0.76576747691E+02 -0.26105192263E+03 -0.40987945040E+03  0.49194844085E+03  0.00000000000E+00 0.  1.
<mgrwt>
<rscale>  0 0.16015471E+04</rscale>
<asrwt>0</asrwt>
<pdfrwt beam="1">  1        2 0.47605609E+00 0.16015471E+04</pdfrwt>
<pdfrwt beam="2">  1       -1 0.31881195E-01 0.16015471E+04</pdfrwt>
<totfact> 0.15288720E+01</totfact>
</mgrwt>
</event>
<event>
12    7  0.1637954E-007  0.1683742E+04  0.7818608E-02  0.8770692E-01
         -1   -1    0    0    0  501 -0.00000000000E+00  0.00000000000E+00  0.41737208051E+03  0.41737208051E+03  0.00000000000E+00 0.  1.
          2   -1    0    0  501    0  0.00000000000E+00 -0.00000000000E+00 -0.16981164160E+04  0.16981164160E+04  0.00000000000E+00 0. -1.
         24    2    1    2    0    0 -0.11919087661E+03 -0.55732929671E+03 -0.67748574265E+03  0.88914018416E+03  0.82224847557E+02 0.  0.
        254    2    1    2    0    0  0.11919087661E+03  0.55732929671E+03 -0.60325859280E+03  0.12263483123E+04  0.90287698126E+03 0.  0.
         23    2    4    4    0    0  0.10934536083E+03  0.26404427061E+03 -0.80587857785E+03  0.85955843207E+03  0.87889880679E+02 0.  0.
         23    2    4    4    0    0  0.98455157775E+01  0.29328502610E+03  0.20261998505E+03  0.36678988025E+03  0.85830747361E+02 0.  0.
          2    1    3    3  502    0 -0.44441977533E+02 -0.21583876248E+03 -0.32531934744E+03  0.39293019555E+03  0.00000000000E+00 0. -1.
         -1    1    3    3    0  502 -0.74748899073E+02 -0.34149053423E+03 -0.35216639522E+03  0.49620998862E+03  0.00000000000E+00 0.  1.
         13    1    5    5    0    0  0.57153001740E+02  0.22846276531E+03 -0.61846197701E+03  0.66178313499E+03  0.00000000000E+00 0. -1.
        -13    1    5    5    0    0  0.52192359089E+02  0.35581505298E+02 -0.18741660084E+03  0.19777529708E+03  0.00000000000E+00 0.  1.
          4    1    6    6  503    0  0.41236405267E+02  0.20125046093E+03  0.11254287828E+03  0.23423938310E+03  0.00000000000E+00 0. -1.
         -4    1    6    6    0  503 -0.31390889490E+02  0.92034565173E+02  0.90077106770E+02  0.13255049715E+03  0.00000000000E+00 0.  1.
<mgrwt>
<rscale>  0 0.16837415E+04</rscale>
<asrwt>0</asrwt>
<pdfrwt beam="1">  1        2 0.26124867E+00 0.16837415E+04</pdfrwt>
<pdfrwt beam="2">  1       -1 0.64211091E-01 0.16837415E+04</pdfrwt>
<totfact> 0.26241556E+01</totfact>
</mgrwt>
</event>
<event>
12    7  0.1637954E-007  0.1908817E+04  0.7818608E-02  0.8650480E-01
          2   -1    0    0  501    0  0.00000000000E+00  0.00000000000E+00  0.71062001731E+03  0.71062001731E+03  0.00000000000E+00 0. -1.
         -1   -1    0    0    0  501 -0.00000000000E+00 -0.00000000000E+00 -0.12818322097E+04  0.12818322097E+04  0.00000000000E+00 0.  1.
         24    2    1    2    0    0 -0.23931726271E+03  0.62736414533E+03 -0.55792513381E+03  0.87720626031E+03  0.85742901242E+02 0.  0.
        254    2    1    2    0    0  0.23931726271E+03 -0.62736414533E+03 -0.13287058580E+02  0.11152459667E+04  0.89035863404E+03 0.  0.
         23    2    4    4    0    0 -0.13345550922E+03 -0.57307832041E+03  0.25102628301E+03  0.64619120473E+03  0.91212630931E+02 0.  0.
         23    2    4    4    0    0  0.37277277193E+03 -0.54285824920E+02 -0.26431334159E+03  0.46905476197E+03  0.90798330934E+02 0.  0.
          2    1    3    3  502    0 -0.44321856728E+02  0.10322078443E+03 -0.54950505822E+02  0.12505404996E+03  0.00000000000E+00 0. -1.
         -1    1    3    3    0  502 -0.19499540599E+03  0.52414336090E+03 -0.50297462799E+03  0.75215221035E+03  0.00000000000E+00 0.  1.
         13    1    5    5    0    0 -0.33219653948E+02 -0.35639715145E+02  0.19371984042E+02  0.52430987686E+02  0.00000000000E+00 0.  1.
        -13    1    5    5    0    0 -0.10023585527E+03 -0.53743860526E+03  0.23165429897E+03  0.59376021704E+03  0.00000000000E+00 0. -1.
          4    1    6    6  503    0  0.21639991916E+03 -0.23270682759E+02 -0.98056440719E+02  0.23871639084E+03  0.00000000000E+00 0.  1.
         -4    1    6    6    0  503  0.15637285277E+03 -0.31015142162E+02 -0.16625690087E+03  0.23033837113E+03  0.00000000000E+00 0. -1.
<mgrwt>
<rscale>  0 0.19088170E+04</rscale>
<asrwt>0</asrwt>
<pdfrwt beam="1">  1        2 0.10932616E+00 0.19088170E+04</pdfrwt>
<pdfrwt beam="2">  1       -1 0.19720496E+00 0.19088170E+04</pdfrwt>
<totfact> 0.67575754E+00</totfact>
</mgrwt>
</event>
<event>
12    7  0.1637954E-007  0.1190713E+04  0.7818608E-02  0.9121024E-01
          2   -1    0    0  501    0  0.00000000000E+00  0.00000000000E+00  0.20502422974E+04  0.20502422974E+04  0.00000000000E+00 0. -1.
         -1   -1    0    0    0  501 -0.00000000000E+00 -0.00000000000E+00 -0.17288170333E+03  0.17288170333E+03  0.00000000000E+00 0.  1.
         24    2    1    2    0    0  0.10616543904E+03 -0.10367595430E+03  0.39579835512E+02  0.17392973929E+03  0.81640595806E+02 0.  0.
        254    2    1    2    0    0 -0.10616543904E+03  0.10367595430E+03  0.18377807585E+04  0.20491942614E+04  0.89428138781E+03 0.  0.
         23    2    4    4    0    0 -0.42785747017E+03 -0.52160681877E+02  0.14442609362E+04  0.15099981011E+04  0.91770703294E+02 0.  0.
         23    2    4    4    0    0  0.32169203113E+03  0.15583663618E+03  0.39351982230E+03  0.53919616027E+03  0.90021267701E+02 0.  0.
          2    1    3    3  502    0  0.36089655910E+02 -0.76470978836E+02  0.49695007671E+02  0.98080924013E+02  0.00000000000E+00 0. -1.
         -1    1    3    3    0  502  0.70075783129E+02 -0.27204975469E+02 -0.10115172159E+02  0.75848815279E+02  0.00000000000E+00 0.  1.
         13    1    5    5    0    0 -0.29010097759E+03  0.82664724160E+01  0.96091705224E+03  0.10037870756E+04  0.00000000000E+00 0. -1.
        -13    1    5    5    0    0 -0.13775649258E+03 -0.60427154293E+02  0.48334388397E+03  0.50621102556E+03  0.00000000000E+00 0.  1.
          3    1    6    6  503    0  0.20798542310E+02 -0.11345203240E+02  0.34200841053E+02  0.41605174287E+02  0.00000000000E+00 0. -1.
         -3    1    6    6    0  503  0.30089348882E+03  0.16718183942E+03  0.35931898125E+03  0.49759098599E+03  0.00000000000E+00 0.  1.
<mgrwt>
<rscale>  0 0.11907130E+04</rscale>
<asrwt>0</asrwt>
<pdfrwt beam="1">  1        2 0.31542188E+00 0.11907130E+04</pdfrwt>
<pdfrwt beam="2">  1       -1 0.26597187E-01 0.11907130E+04</pdfrwt>
<totfact> 0.88848494E+01</totfact>
</mgrwt>
</event>
<event>
12    7  0.1637954E-007  0.1430345E+04  0.7818608E-02  0.8932141E-01
          2   -1    0    0  501    0  0.00000000000E+00  0.00000000000E+00  0.50921702117E+03  0.50921702117E+03  0.00000000000E+00 0. -1.
         -1   -1    0    0    0  501 -0.00000000000E+00 -0.00000000000E+00 -0.10044282432E+04  0.10044282432E+04  0.00000000000E+00 0.  1.
         24    2    1    2    0    0 -0.13726230070E+03 -0.23251331526E+02  0.26279033383E+03  0.30793844520E+03  0.79910968385E+02 0.  0.
        254    2    1    2    0    0  0.13726230070E+03  0.23251331526E+02 -0.75800155585E+03  0.12057068192E+04  0.92724377134E+03 0.  0.
         23    2    4    4    0    0 -0.29574146394E+03  0.27576238870E+03 -0.44162483537E+03  0.60595747426E+03  0.92973420315E+02 0.  0.
         23    2    4    4    0    0  0.43300376464E+03 -0.25251105717E+03 -0.31637672048E+03  0.59974934490E+03  0.91383550268E+02 0.  0.
          2    1    3    3  502    0 -0.13755388413E+03 -0.19804158035E+02  0.19175560566E+03  0.23681952626E+03  0.00000000000E+00 0. -1.
         -1    1    3    3    0  502  0.29158342842E+00 -0.34471734909E+01  0.71034728164E+02  0.71118918941E+02  0.00000000000E+00 0.  1.
         13    1    5    5    0    0 -0.99142858368E+02  0.69938534586E+02 -0.78233078100E+02  0.14436453683E+03  0.00000000000E+00 0. -1.
        -13    1    5    5    0    0 -0.19659860557E+03  0.20582385411E+03 -0.36339175727E+03  0.46159293743E+03  0.00000000000E+00 0.  1.
          4    1    6    6  503    0  0.92756219316E+02 -0.97751013615E+02 -0.10044281471E+03  0.16807062775E+03  0.00000000000E+00 0.  1.
         -4    1    6    6    0  503  0.34024754533E+03 -0.15476004356E+03 -0.21593390577E+03  0.43167871715E+03  0.00000000000E+00 0. -1.
<mgrwt>
<rscale>  0 0.14303454E+04</rscale>
<asrwt>0</asrwt>
<pdfrwt beam="1">  1        2 0.78341081E-01 0.14303454E+04</pdfrwt>
<pdfrwt beam="2">  1       -1 0.15452742E+00 0.14303454E+04</pdfrwt>
<totfact> 0.21540434E+01</totfact>
</mgrwt>
</event>
<event>
12    7  0.1637954E-007  0.1300230E+04  0.7818608E-02  0.9029383E-01
          2   -1    0    0  501    0  0.00000000000E+00  0.00000000000E+00  0.11515789520E+04  0.11515789520E+04  0.00000000000E+00 0. -1.
         -1   -1    0    0    0  501 -0.00000000000E+00 -0.00000000000E+00 -0.36701728797E+03  0.36701728797E+03  0.00000000000E+00 0.  1.
         24    2    1    2    0    0 -0.48884509791E+02 -0.29112891604E+03  0.19164682370E+03  0.36068862618E+03  0.78879902178E+02 0.  0.
        254    2    1    2    0    0  0.48884509791E+02  0.29112891604E+03  0.59291484030E+03  0.11579076138E+04  0.94976644135E+03 0.  0.
         23    2    4    4    0    0 -0.24691691468E+03  0.64153371372E+02  0.70743250505E+03  0.75708013444E+03  0.87326759665E+02 0.  0.
         23    2    4    4    0    0  0.29580142447E+03  0.22697554467E+03 -0.11451766475E+03  0.40082747932E+03  0.92368782853E+02 0.  0.
          2    1    3    3  502    0 -0.10940710429E+02 -0.67816651911E+02  0.87870396682E+02  0.11153476603E+03  0.00000000000E+00 0. -1.
         -1    1    3    3    0  502 -0.37943799362E+02 -0.22331226413E+03  0.10377642702E+03  0.24915386014E+03  0.00000000000E+00 0.  1.
         13    1    5    5    0    0 -0.96692341884E+02  0.60159614886E+01  0.38020758564E+03  0.39235622710E+03  0.00000000000E+00 0.  1.
        -13    1    5    5    0    0 -0.15022457279E+03  0.58137409883E+02  0.32722491941E+03  0.36472390733E+03  0.00000000000E+00 0. -1.
          1    1    6    6  503    0  0.15715994770E+03  0.69186108575E+02 -0.29507632746E+02  0.17423164802E+03  0.00000000000E+00 0. -1.
         -1    1    6    6    0  503  0.13864147677E+03  0.15778943609E+03 -0.85010032005E+02  0.22659583130E+03  0.00000000000E+00 0.  1.
<mgrwt>
<rscale>  0 0.13002298E+04</rscale>
<asrwt>0</asrwt>
<pdfrwt beam="1">  1        2 0.17716599E+00 0.13002298E+04</pdfrwt>
<pdfrwt beam="2">  1       -1 0.56464199E-01 0.13002298E+04</pdfrwt>
<totfact> 0.71862106E+01</totfact>
</mgrwt>
</event>
<event>
12    7  0.1637954E-007  0.2080099E+04  0.7818608E-02  0.8570061E-01
          4   -1    0    0  501    0  0.00000000000E+00  0.00000000000E+00  0.14071649609E+04  0.14071649609E+04  0.00000000000E+00 0. -1.
         -3   -1    0    0    0  501 -0.00000000000E+00 -0.00000000000E+00 -0.76871101188E+03  0.76871101188E+03  0.00000000000E+00 0.  1.
         24    2    1    2    0    0  0.53990007880E+03  0.17696013831E+03 -0.39007204719E+03  0.69376651182E+03  0.79679265048E+02 0.  0.
        254    2    1    2    0    0 -0.53990007880E+03 -0.17696013831E+03  0.10285259963E+04  0.14821094610E+04  0.90331375710E+03 0.  0.
         23    2    4    4    0    0 -0.56676954362E+02  0.23658459755E+03 -0.12610671956E+02  0.25836395139E+03  0.86071791987E+02 0.  0.
         23    2    4    4    0    0 -0.48322312444E+03 -0.41354473586E+03  0.10411366682E+04  0.12237455096E+04  0.95203328967E+02 0.  0.
          4    1    3    3  502    0  0.53060752871E+02  0.41930978573E+02 -0.58883014469E+02  0.89670841706E+02  0.00000000000E+00 0. -1.
         -3    1    3    3    0  502  0.48683932593E+03  0.13502915974E+03 -0.33118903273E+03  0.60409567011E+03  0.00000000000E+00 0.  1.
         13    1    5    5    0    0 -0.27523847285E+02  0.22465898339E+03 -0.75709390324E+01  0.22646531767E+03  0.00000000000E+00 0. -1.
        -13    1    5    5    0    0 -0.29153107077E+02  0.11925614158E+02 -0.50397329241E+01  0.31898633721E+02  0.00000000000E+00 0.  1.
          4    1    6    6  503    0 -0.42751164017E+03 -0.38926859757E+03  0.97791842277E+03  0.11360548777E+04  0.00000000000E+00 0. -1.
         -4    1    6    6    0  503 -0.55711484271E+02 -0.24276138298E+02  0.63218245452E+02  0.87690631930E+02  0.00000000000E+00 0.  1.
<mgrwt>
<rscale>  0 0.20800992E+04</rscale>
<asrwt>0</asrwt>
<pdfrwt beam="1">  1        4 0.21648692E+00 0.20800992E+04</pdfrwt>
<pdfrwt beam="2">  1       -3 0.11826323E+00 0.20800992E+04</pdfrwt>
<totfact> 0.12678036E-01</totfact>
</mgrwt>
</event>
<event>
12    7  0.1637954E-007  0.2805107E+04  0.7818608E-02  0.8301685E-01
         -1   -1    0    0    0  501 -0.00000000000E+00  0.00000000000E+00  0.97896748321E+03  0.97896748321E+03  0.00000000000E+00 0.  1.
          2   -1    0    0  501    0  0.00000000000E+00 -0.00000000000E+00 -0.20094187630E+04  0.20094187630E+04  0.00000000000E+00 0. -1.
         24    2    1    2    0    0 -0.88234517026E+03  0.64287952509E+03  0.21799329271E+03  0.11165609315E+04  0.85791344952E+02 0.  0.
        254    2    1    2    0    0  0.88234517026E+03 -0.64287952509E+03 -0.12484445725E+04  0.18718253147E+04  0.86792227464E+03 0.  0.
         23    2    4    4    0    0  0.33823419063E+03  0.14078499460E+03 -0.13147686132E+03  0.39965501023E+03  0.90637628611E+02 0.  0.
         23    2    4    4    0    0  0.54411097963E+03 -0.78366451970E+03 -0.11169677111E+04  0.14721703044E+04  0.97374020785E+02 0.  0.
          4    1    3    3  502    0 -0.17973751905E+03  0.89992561476E+02  0.41563097484E+02  0.20526014700E+03  0.00000000000E+00 0. -1.
         -3    1    3    3    0  502 -0.70260765121E+03  0.55288696362E+03  0.17643019522E+03  0.91130078452E+03  0.00000000000E+00 0.  1.
         13    1    5    5    0    0  0.22384582765E+03  0.13746779184E+03 -0.84385043430E+02  0.27590792650E+03  0.00000000000E+00 0.  1.
        -13    1    5    5    0    0  0.11438836298E+03  0.33172027655E+01 -0.47091817891E+02  0.12374708373E+03  0.00000000000E+00 0. -1.
          1    1    6    6  503    0  0.19461529366E+03 -0.32490518725E+03 -0.38178510215E+03  0.53777165921E+03  0.00000000000E+00 0. -1.
         -1    1    6    6    0  503  0.34949568597E+03 -0.45875933245E+03 -0.73518260899E+03  0.93439864522E+03  0.00000000000E+00 0.  1.
<mgrwt>
<rscale>  0 0.28051065E+04</rscale>
<asrwt>0</asrwt>
<pdfrwt beam="1">  1        2 0.30914134E+00 0.28051065E+04</pdfrwt>
<pdfrwt beam="2">  1       -1 0.15061038E+00 0.28051065E+04</pdfrwt>
<totfact> 0.22539765E+00</totfact>
</mgrwt>
</event>
<event>
12    7  0.1637954E-007  0.1485143E+04  0.7818608E-02  0.8894393E-01
          2   -1    0    0  501    0  0.00000000000E+00  0.00000000000E+00  0.36290250053E+04  0.36290250053E+04  0.00000000000E+00 0. -1.
         -1   -1    0    0    0  501 -0.00000000000E+00 -0.00000000000E+00 -0.15194500567E+03  0.15194500567E+03  0.00000000000E+00 0.  1.
         24    2    1    2    0    0 -0.84929257105E+02  0.36656292221E+02  0.22860324635E+04  0.22893005948E+04  0.79975787689E+02 0.  0.
        254    2    1    2    0    0  0.84929257105E+02 -0.36656292221E+02  0.11910475362E+04  0.14916694162E+04  0.89326745795E+03 0.  0.
         23    2    4    4    0    0  0.28129080833E+03  0.34443584875E+03  0.53658051368E+03  0.70264694734E+03  0.89629862159E+02 0.  0.
         23    2    4    4    0    0 -0.19636155122E+03 -0.38109214097E+03  0.65446702248E+03  0.78902246888E+03  0.10217775775E+03 0.  0.
          2    1    3    3  502    0 -0.88927811853E+02  0.54000188535E+02  0.18771704386E+04  0.18800513375E+04  0.00000000000E+00 0. -1.
         -1    1    3    3    0  502  0.39985547484E+01 -0.17343896314E+02  0.40886202488E+03  0.40924925726E+03  0.00000000000E+00 0.  1.
         13    1    5    5    0    0  0.17570031361E+03  0.22167240999E+03  0.40500808674E+03  0.49400486624E+03  0.00000000000E+00 0. -1.
        -13    1    5    5    0    0  0.10559049472E+03  0.12276343877E+03  0.13157242695E+03  0.20864208110E+03  0.00000000000E+00 0.  1.
          2    1    6    6  503    0 -0.29131321151E+02 -0.93186968188E+02  0.22763755223E+03  0.24769194597E+03  0.00000000000E+00 0.  1.
         -2    1    6    6    0  503 -0.16723023007E+03 -0.28790517278E+03  0.42682947025E+03  0.54133052292E+03  0.00000000000E+00 0. -1.
<mgrwt>
<rscale>  0 0.14851427E+04</rscale>
<asrwt>0</asrwt>
<pdfrwt beam="1">  1        2 0.55831147E+00 0.14851427E+04</pdfrwt>
<pdfrwt beam="2">  1       -1 0.23376157E-01 0.14851427E+04</pdfrwt>
<totfact> 0.11579913E+01</totfact>
</mgrwt>
</event>
<event>
12    7  0.1637954E-007  0.1627908E+04  0.7818608E-02  0.8803584E-01
         -1   -1    0    0    0  501 -0.00000000000E+00  0.00000000000E+00  0.30288586450E+03  0.30288586450E+03  0.00000000000E+00 0.  1.
          2   -1    0    0  501    0  0.00000000000E+00 -0.00000000000E+00 -0.21873618195E+04  0.21873618195E+04  0.00000000000E+00 0. -1.
         24    2    1    2    0    0 -0.22561912462E+03 -0.50567423382E+03 -0.78823110223E+03  0.96712665182E+03  0.86111961996E+02 0.  0.
        254    2    1    2    0    0  0.22561912462E+03  0.50567423382E+03 -0.10962448528E+04  0.15231210322E+04  0.90085208626E+03 0.  0.
         23    2    4    4    0    0  0.28977046347E+03  0.32949026590E+03 -0.12060291135E+04  0.12866256654E+04  0.91480181082E+02 0.  0.
         23    2    4    4    0    0 -0.64151338849E+02  0.17618396792E+03  0.10978426065E+03  0.23649536681E+03  0.93387846159E+02 0.  0.
          4    1    3    3  502    0 -0.21165404356E+03 -0.50027539624E+03 -0.74986848087E+03  0.92594581096E+03  0.00000000000E+00 0. -1.
         -3    1    3    3    0  502 -0.13965081062E+02 -0.53988375798E+01 -0.38362621359E+02  0.41180840859E+02  0.00000000000E+00 0.  1.
         13    1    5    5    0    0  0.14065412469E+03  0.10713244914E+03 -0.40112392455E+03  0.43836211891E+03  0.00000000000E+00 0. -1.
        -13    1    5    5    0    0  0.14911633878E+03  0.22235781676E+03 -0.80490518891E+03  0.84826354649E+03  0.00000000000E+00 0.  1.
          3    1    6    6  503    0 -0.55538944113E+02  0.84220551992E+02  0.11365882875E+02  0.10152270182E+03  0.00000000000E+00 0. -1.
         -3    1    6    6    0  503 -0.86123947356E+01  0.91963415926E+02  0.98418377774E+02  0.13497266499E+03  0.00000000000E+00 0.  1.
<mgrwt>
<rscale>  0 0.16279078E+04</rscale>
<asrwt>0</asrwt>
<pdfrwt beam="1">  1        2 0.33651720E+00 0.16279078E+04</pdfrwt>
<pdfrwt beam="2">  1       -1 0.46597826E-01 0.16279078E+04</pdfrwt>
<totfact> 0.26257389E+01</totfact>
</mgrwt>
</event>
<event>
12    7  0.1637954E-007  0.1207967E+04  0.7818608E-02  0.9105912E-01
          2   -1    0    0  501    0  0.00000000000E+00  0.00000000000E+00  0.14045301532E+04  0.14045301532E+04  0.00000000000E+00 0. -1.
         -1   -1    0    0    0  501 -0.00000000000E+00 -0.00000000000E+00 -0.25972805076E+03  0.25972805076E+03  0.00000000000E+00 0.  1.
         24    2    1    2    0    0 -0.23287151165E+03  0.48875023478E+02  0.39864449925E+03  0.47128760276E+03  0.81096602111E+02 0.  0.
        254    2    1    2    0    0  0.23287151165E+03 -0.48875023478E+02  0.74615760316E+03  0.11929706012E+04  0.89989431472E+03 0.  0.
         23    2    4    4    0    0 -0.94972942346E+02 -0.16066664141E+03  0.80362656376E+03  0.82993334280E+03  0.90222336834E+02 0.  0.
         23    2    4    4    0    0  0.32784445400E+03  0.11179161793E+03 -0.57468960595E+02  0.36303725838E+03  0.92271434837E+02 0.  0.
          2    1    3    3  502    0 -0.23809109018E+03  0.49943707839E+02  0.37461496619E+03  0.44667450573E+03  0.00000000000E+00 0. -1.
         -1    1    3    3    0  502  0.52195785288E+01 -0.10686843610E+01  0.24029533063E+02  0.24613097032E+02  0.00000000000E+00 0.  1.
         13    1    5    5    0    0 -0.10689636133E+03 -0.16062600594E+03  0.71767818368E+03  0.74316184051E+03  0.00000000000E+00 0.  1.
        -13    1    5    5    0    0  0.11923418987E+02 -0.40635466425E-01  0.85948380075E+02  0.86771502287E+02  0.00000000000E+00 0. -1.
          3    1    6    6  503    0 -0.14084540859E+01 -0.54027976801E+01  0.55955486221E+01  0.79046903840E+01  0.00000000000E+00 0. -1.
         -3    1    6    6    0  503  0.32925290808E+03  0.11719441561E+03 -0.63064509217E+02  0.35513256800E+03  0.00000000000E+00 0.  1.
<mgrwt>
<rscale>  0 0.12079667E+04</rscale>
<asrwt>0</asrwt>
<pdfrwt beam="1">  1        2 0.21608156E+00 0.12079667E+04</pdfrwt>
<pdfrwt beam="2">  1       -1 0.39958162E-01 0.12079667E+04</pdfrwt>
<totfact> 0.98605412E+01</totfact>
</mgrwt>
</event>
<event>
12    7  0.1637954E-007  0.2863283E+04  0.7818608E-02  0.8283886E-01
         -1   -1    0    0    0  501 -0.00000000000E+00  0.00000000000E+00  0.66451233006E+03  0.66451233006E+03  0.00000000000E+00 0.  1.
          2   -1    0    0  501    0  0.00000000000E+00 -0.00000000000E+00 -0.30843640462E+04  0.30843640462E+04  0.00000000000E+00 0. -1.
         24    2    1    2    0    0 -0.18806006740E+03 -0.18485835411E+03  0.55941374477E+03  0.62371274686E+03  0.80837198892E+02 0.  0.
        254    2    1    2    0    0  0.18806006740E+03  0.18485835411E+03 -0.29792654609E+04  0.31251636294E+04  0.90613786144E+03 0.  0.
         23    2    4    4    0    0  0.63520640911E+01 -0.18650600287E+03 -0.13058838390E+03  0.24505341288E+03  0.90404708559E+02 0.  0.
         23    2    4    4    0    0  0.18170800331E+03  0.37136435698E+03 -0.28486770770E+04  0.28801102165E+04  0.95626806481E+02 0.  0.
          2    1    3    3  502    0 -0.14494381715E+03 -0.14886816001E+03  0.35121301184E+03  0.40806987010E+03  0.00000000000E+00 0. -1.
         -1    1    3    3    0  502 -0.43116250255E+02 -0.35990194097E+02  0.20820073292E+03  0.21564287676E+03  0.00000000000E+00 0.  1.
         13    1    5    5    0    0  0.25440242135E+02 -0.14754140964E+03 -0.58150342985E+02  0.16061486814E+03  0.00000000000E+00 0. -1.
        -13    1    5    5    0    0 -0.19088178044E+02 -0.38964593235E+02 -0.72438040911E+02  0.84438544741E+02  0.00000000000E+00 0.  1.
          2    1    6    6  503    0  0.15238962432E+03  0.36308422820E+03 -0.26610049580E+04  0.26899814387E+04  0.00000000000E+00 0. -1.
         -2    1    6    6    0  503  0.29318378992E+02  0.82801287850E+01 -0.18767211904E+03  0.19012877779E+03  0.00000000000E+00 0.  1.
<mgrwt>
<rscale>  0 0.28632834E+04</rscale>
<asrwt>0</asrwt>
<pdfrwt beam="1">  1        2 0.47451755E+00 0.28632834E+04</pdfrwt>
<pdfrwt beam="2">  1       -1 0.10223267E+00 0.28632834E+04</pdfrwt>
<totfact> 0.13715196E+00</totfact>
</mgrwt>
</event>
<event>
12    7  0.1637954E-007  0.2932329E+04  0.7818608E-02  0.8263323E-01
          2   -1    0    0  501    0  0.00000000000E+00  0.00000000000E+00  0.13359886918E+04  0.13359886918E+04  0.00000000000E+00 0. -1.
         -1   -1    0    0    0  501 -0.00000000000E+00 -0.00000000000E+00 -0.16090240881E+04  0.16090240881E+04  0.00000000000E+00 0.  1.
         24    2    1    2    0    0 -0.98564908456E+03  0.10078892275E+03  0.76491120099E+03  0.12541725272E+04  0.78721393417E+02 0.  0.
        254    2    1    2    0    0  0.98564908456E+03 -0.10078892275E+03 -0.10379465973E+04  0.16908402528E+04  0.89439649862E+03 0.  0.
         23    2    4    4    0    0 -0.13713651611E+03  0.20493860218E+02 -0.19040066361E+02  0.16706757520E+03  0.91228439642E+02 0.  0.
         23    2    4    4    0    0  0.11227856007E+04 -0.12128278297E+03 -0.10189065309E+04  0.15237726776E+04  0.91409166152E+02 0.  0.
          4    1    3    3  502    0 -0.95516521360E+03  0.10690902986E+03  0.72683374797E+03  0.12050134535E+04  0.00000000000E+00 0. -1.
         -3    1    3    3    0  502 -0.30483870956E+02 -0.61201071101E+01  0.38077453018E+02  0.49159073708E+02  0.00000000000E+00 0.  1.
         13    1    5    5    0    0 -0.90460879655E+02  0.42245097204E+02  0.20772562058E+02  0.10197704801E+03  0.00000000000E+00 0.  1.
        -13    1    5    5    0    0 -0.46675636451E+02 -0.21751236987E+02 -0.39812628418E+02  0.65090527192E+02  0.00000000000E+00 0. -1.
          3    1    6    6  503    0  0.13072248889E+03  0.14690756606E+02 -0.12570690433E+03  0.18195167828E+03  0.00000000000E+00 0. -1.
         -3    1    6    6    0  503  0.99206311177E+03 -0.13597353958E+03 -0.89319962659E+03  0.13418209993E+04  0.00000000000E+00 0.  1.
<mgrwt>
<rscale>  0 0.29323288E+04</rscale>
<asrwt>0</asrwt>
<pdfrwt beam="1">  1        2 0.20553672E+00 0.29323288E+04</pdfrwt>
<pdfrwt beam="2">  1       -1 0.24754217E+00 0.29323288E+04</pdfrwt>
<totfact> 0.11174408E+00</totfact>
</mgrwt>
</event>
<event>
12    7  0.1637954E-007  0.2523744E+04  0.7818608E-02  0.8394575E-01
          2   -1    0    0  501    0  0.00000000000E+00  0.00000000000E+00  0.13372497265E+04  0.13372497265E+04  0.00000000000E+00 0. -1.
         -1   -1    0    0    0  501 -0.00000000000E+00 -0.00000000000E+00 -0.11907435815E+04  0.11907435815E+04  0.00000000000E+00 0.  1.
         24    2    1    2    0    0  0.62193838068E+02 -0.85345893625E+03 -0.62170357421E+03  0.10607073858E+04  0.79527321061E+02 0.  0.
        254    2    1    2    0    0 -0.62193838068E+02  0.85345893625E+03  0.76820971920E+03  0.14672859223E+04  0.91132956477E+03 0.  0.
         23    2    4    4    0    0 -0.57578147889E+02  0.43942951204E+03  0.91317099678E+03  0.10193317725E+04  0.93501090831E+02 0.  0.
         23    2    4    4    0    0 -0.46156901789E+01  0.41402942421E+03 -0.14496127758E+03  0.44795414971E+03  0.90595140814E+02 0.  0.
          2    1    3    3  502    0  0.42023937598E+02 -0.61503914356E+03 -0.49066816194E+03  0.78790507333E+03  0.00000000000E+00 0. -1.
         -1    1    3    3    0  502  0.20169900470E+02 -0.23841979269E+03 -0.13103541227E+03  0.27280231249E+03  0.00000000000E+00 0.  1.
         13    1    5    5    0    0  0.93117219490E+01  0.21078635269E+03  0.49445092812E+03  0.53758656508E+03  0.00000000000E+00 0. -1.
        -13    1    5    5    0    0 -0.66889869838E+02  0.22864315935E+03  0.41872006867E+03  0.48174520746E+03  0.00000000000E+00 0.  1.
          1    1    6    6  503    0  0.42892643604E+02  0.18941948625E+03 -0.70059453172E+02  0.20646512447E+03  0.00000000000E+00 0. -1.
         -1    1    6    6    0  503 -0.47508333783E+02  0.22460993796E+03 -0.74901824411E+02  0.24148902524E+03  0.00000000000E+00 0.  1.
<mgrwt>
<rscale>  0 0.25237445E+04</rscale>
<asrwt>0</asrwt>
<pdfrwt beam="1">  1        2 0.20573073E+00 0.25237445E+04</pdfrwt>
<pdfrwt beam="2">  1       -1 0.18319132E+00 0.25237445E+04</pdfrwt>
<totfact> 0.31492909E+00</totfact>
</mgrwt>
</event>
<event>
12    7  0.1946484E-007  0.2420636E+04  0.7818608E-02  0.8431818E-01
          2   -1    0    0  501    0  0.00000000000E+00  0.00000000000E+00  0.13504915017E+04  0.13504915017E+04  0.00000000000E+00 0. -1.
         -1   -1    0    0    0  501 -0.00000000000E+00 -0.00000000000E+00 -0.10846940283E+04  0.10846940283E+04  0.00000000000E+00 0.  1.
         24    2    1    2    0    0  0.64198711815E+03  0.53590993619E+03 -0.50961536523E+03  0.98241185773E+03  0.77963569392E+02 0.  0.
        254    2    1    2    0    0 -0.64198711815E+03 -0.53590993619E+03  0.77541283865E+03  0.14527736723E+04  0.89996630661E+03 0.  0.
         23    2    4    4    0    0 -0.22223931504E+03  0.22975214010E+02 -0.15444942570E+03  0.28593077506E+03  0.89351046003E+02 0.  0.
         23    2    4    4    0    0 -0.41974780311E+03 -0.55888515020E+03  0.92986226435E+03  0.11668428972E+04  0.91310935036E+02 0.  0.
          2    1    3    3  502    0  0.10739489399E+03  0.97704060362E+02 -0.12370672848E+03  0.19074354861E+03  0.00000000000E+00 0. -1.
         -1    1    3    3    0  502  0.53459222416E+03  0.43820587583E+03 -0.38590863675E+03  0.79166830911E+03  0.00000000000E+00 0.  1.
         13    1    5    5    0    0 -0.35101814037E+02 -0.26669170628E+02 -0.12384742982E+02  0.45790434256E+02  0.00000000000E+00 0. -1.
        -13    1    5    5    0    0 -0.18713750100E+03  0.49644384638E+02 -0.14206468272E+03  0.24014034081E+03  0.00000000000E+00 0.  1.
          2    1    6    6  503    0 -0.62401912722E+02 -0.84369073923E+02  0.19947036159E+03  0.22538980566E+03  0.00000000000E+00 0. -1.
         -2    1    6    6    0  503 -0.35734589039E+03 -0.47451607628E+03  0.73039190276E+03  0.94145309158E+03  0.00000000000E+00 0.  1.
<mgrwt>
<rscale>  0 0.24206363E+04</rscale>
<asrwt>0</asrwt>
<pdfrwt beam="1">  1        2 0.20776792E+00 0.24206363E+04</pdfrwt>
<pdfrwt beam="2">  1       -1 0.16687601E+00 0.24206363E+04</pdfrwt>
<totfact> 0.41016739E+00</totfact>
</mgrwt>
</event>
<event>
12    7  0.1637954E-007  0.1792684E+04  0.7818608E-02  0.8710200E-01
         -1   -1    0    0    0  501 -0.00000000000E+00  0.00000000000E+00  0.61620798175E+03  0.61620798175E+03  0.00000000000E+00 0.  1.
          2   -1    0    0  501    0  0.00000000000E+00 -0.00000000000E+00 -0.13038274889E+04  0.13038274889E+04  0.00000000000E+00 0. -1.
         24    2    1    2    0    0 -0.21001545928E+03 -0.10258144104E+03  0.40924835228E+03  0.48203454322E+03  0.10121087804E+03 0.  0.
        254    2    1    2    0    0  0.21001545928E+03  0.10258144104E+03 -0.10968678595E+04  0.14380009275E+04  0.90005451007E+03 0.  0.
         23    2    4    4    0    0  0.17402853670E+03  0.18560779175E+03 -0.12262218971E+04  0.12557051795E+04  0.91864970751E+02 0.  0.
         23    2    4    4    0    0  0.35986922575E+02 -0.83026350710E+02  0.12935403764E+03  0.18229574801E+03  0.91163804106E+02 0.  0.
          2    1    3    3  502    0 -0.61932832104E+02  0.14612852735E+02  0.13257103334E+03  0.14705199774E+03  0.00000000000E+00 0. -1.
         -1    1    3    3    0  502 -0.14808262717E+03 -0.11719429377E+03  0.27667731893E+03  0.33498254548E+03  0.00000000000E+00 0.  1.
         13    1    5    5    0    0  0.66728065801E+02  0.93097674362E+02 -0.35448964843E+03  0.37253553197E+03  0.00000000000E+00 0. -1.
        -13    1    5    5    0    0  0.10730047090E+03  0.92510117387E+02 -0.87173224866E+03  0.88316964748E+03  0.00000000000E+00 0.  1.
          2    1    6    6  503    0 -0.13356672379E+02 -0.59577856386E+02  0.10714850272E+03  0.12332365266E+03  0.00000000000E+00 0.  1.
         -2    1    6    6    0  503  0.49343594955E+02 -0.23448494324E+02  0.22205534917E+02  0.58972095351E+02  0.00000000000E+00 0. -1.
<mgrwt>
<rscale>  0 0.17926839E+04</rscale>
<asrwt>0</asrwt>
<pdfrwt beam="1">  1        2 0.20058884E+00 0.17926839E+04</pdfrwt>
<pdfrwt beam="2">  1       -1 0.94801229E-01 0.17926839E+04</pdfrwt>
<totfact> 0.19054228E+01</totfact>
</mgrwt>
</event>
<event>
12    7  0.1637954E-007  0.2505722E+04  0.7818608E-02  0.8400950E-01
         -1   -1    0    0    0  501 -0.00000000000E+00  0.00000000000E+00  0.13019578780E+04  0.13019578780E+04  0.00000000000E+00 0.  1.
          2   -1    0    0  501    0  0.00000000000E+00 -0.00000000000E+00 -0.12056157044E+04  0.12056157044E+04  0.00000000000E+00 0. -1.
         24    2    1    2    0    0  0.15850980065E+03  0.99758362405E+03 -0.36871462788E+03  0.10784921315E+04  0.83044307930E+02 0.  0.
        254    2    1    2    0    0 -0.15850980065E+03 -0.99758362405E+03  0.46505680144E+03  0.14290814508E+04  0.89760655117E+03 0.  0.
         23    2    4    4    0    0 -0.51524350222E+03 -0.54722464128E+03  0.17084731425E+03  0.77731879701E+03  0.10052379216E+03 0.  0.
         23    2    4    4    0    0  0.35673370157E+03 -0.45035898277E+03  0.29420948719E+03  0.65176265384E+03  0.90295001996E+02 0.  0.
          2    1    3    3  502    0  0.13068409985E+03  0.56105579631E+03 -0.21274669785E+03  0.61410349126E+03  0.00000000000E+00 0. -1.
         -1    1    3    3    0  502  0.27825700806E+02  0.43652782774E+03 -0.15596793003E+03  0.46438864027E+03  0.00000000000E+00 0.  1.
         13    1    5    5    0    0 -0.46141995160E+03 -0.51815657657E+03  0.13637070937E+03  0.70710082728E+03  0.00000000000E+00 0. -1.
        -13    1    5    5    0    0 -0.53823550623E+02 -0.29068064713E+02  0.34476604885E+02  0.70217969725E+02  0.00000000000E+00 0.  1.
          3    1    6    6  503    0  0.20992476383E+03 -0.25723152170E+03  0.21915240456E+03  0.39782438167E+03  0.00000000000E+00 0. -1.
         -3    1    6    6    0  503  0.14680893774E+03 -0.19312746107E+03  0.75057082638E+02  0.25393827217E+03  0.00000000000E+00 0.  1.
<mgrwt>
<rscale>  0 0.25057221E+04</rscale>
<asrwt>0</asrwt>
<pdfrwt beam="1">  1        2 0.18547934E+00 0.25057221E+04</pdfrwt>
<pdfrwt beam="2">  1       -1 0.20030121E+00 0.25057221E+04</pdfrwt>
<totfact> 0.28601786E+00</totfact>
</mgrwt>
</event>
<event>
12    7  0.1637954E-007  0.2628539E+04  0.7818608E-02  0.8358571E-01
          2   -1    0    0  501    0  0.00000000000E+00  0.00000000000E+00  0.28787926793E+04  0.28787926793E+04  0.00000000000E+00 0. -1.
         -1   -1    0    0    0  501 -0.00000000000E+00 -0.00000000000E+00 -0.60001008314E+03  0.60001008314E+03  0.00000000000E+00 0.  1.
         24    2    1    2    0    0 -0.45975458368E+03  0.56878407812E+03  0.21950014842E+04  0.23150298832E+04  0.80263564659E+02 0.  0.
        254    2    1    2    0    0  0.45975458368E+03 -0.56878407812E+03  0.83781111948E+02  0.11637728792E+04  0.90136476241E+03 0.  0.
         23    2    4    4    0    0 -0.17409463846E+03  0.92376444037E+02 -0.78570348365E+02  0.22895074888E+03  0.86039498009E+02 0.  0.
         23    2    4    4    0    0  0.63384922214E+03 -0.66116052215E+03  0.16235146031E+03  0.93482213032E+03  0.92931943930E+02 0.  0.
          4    1    3    3  502    0 -0.41850962698E+03  0.47607466713E+03  0.19178217244E+04  0.20198607781E+04  0.00000000000E+00 0. -1.
         -3    1    3    3    0  502 -0.41244956699E+02  0.92709410991E+02  0.27717975984E+03  0.29516910510E+03  0.00000000000E+00 0.  1.
         13    1    5    5    0    0 -0.16767828032E+03  0.93889562642E+02 -0.92695573988E+02  0.21336289532E+03  0.00000000000E+00 0.  1.
        -13    1    5    5    0    0 -0.64163581455E+01 -0.15131186051E+01  0.14125225623E+02  0.15587853561E+02  0.00000000000E+00 0. -1.
          2    1    6    6  503    0  0.61821063193E+02 -0.99492205641E+02  0.13797274347E+01  0.11714284650E+03  0.00000000000E+00 0. -1.
         -2    1    6    6    0  503  0.57202815895E+03 -0.56166831651E+03  0.16097173288E+03  0.81767928382E+03  0.00000000000E+00 0.  1.
<mgrwt>
<rscale>  0 0.26285392E+04</rscale>
<asrwt>0</asrwt>
<pdfrwt beam="1">  1        2 0.44289117E+00 0.26285392E+04</pdfrwt>
<pdfrwt beam="2">  1       -1 0.92309245E-01 0.26285392E+04</pdfrwt>
<totfact> 0.23714683E+00</totfact>
</mgrwt>
</event>
<event>
12    7  0.1637954E-007  0.1648983E+04  0.7818608E-02  0.8791009E-01
          2   -1    0    0  501    0  0.00000000000E+00  0.00000000000E+00  0.88588527726E+03  0.88588527726E+03  0.00000000000E+00 0. -1.
         -1   -1    0    0    0  501 -0.00000000000E+00 -0.00000000000E+00 -0.76735210320E+03  0.76735210320E+03  0.00000000000E+00 0.  1.
         24    2    1    2    0    0 -0.31047011257E+03 -0.18667516708E+03  0.47180168741E+03  0.60021484965E+03  0.80135664273E+02 0.  0.
        254    2    1    2    0    0  0.31047011257E+03  0.18667516708E+03 -0.35326851336E+03  0.10530225308E+04  0.92348172644E+03 0.  0.
         23    2    4    4    0    0 -0.10112925424E+03 -0.26257253317E+03  0.71124673170E+02  0.30499363321E+03  0.93759991094E+02 0.  0.
         23    2    4    4    0    0  0.41159936680E+03  0.44924770025E+03 -0.42439318653E+03  0.74802889760E+03  0.90554513663E+02 0.  0.
          2    1    3    3  502    0 -0.21467488015E+03 -0.11306247211E+03  0.36880034909E+03  0.44145455514E+03  0.00000000000E+00 0. -1.
         -1    1    3    3    0  502 -0.95795232424E+02 -0.73612694970E+02  0.10300133832E+03  0.15876029451E+03  0.00000000000E+00 0.  1.
         13    1    5    5    0    0 -0.19282200307E+02 -0.82527481872E+02  0.65545941414E+02  0.10713943694E+03  0.00000000000E+00 0.  1.
        -13    1    5    5    0    0 -0.81847053929E+02 -0.18004505129E+03  0.55787317560E+01  0.19785419627E+03  0.00000000000E+00 0. -1.
          2    1    6    6  503    0  0.34731699386E+03  0.39877617923E+03 -0.33075035262E+03  0.62373658792E+03  0.00000000000E+00 0. -1.
         -2    1    6    6    0  503  0.64282372946E+02  0.50471521015E+02 -0.93642833902E+02  0.12429230968E+03  0.00000000000E+00 0.  1.
<mgrwt>
<rscale>  0 0.16489826E+04</rscale>
<asrwt>0</asrwt>
<pdfrwt beam="1">  1        2 0.13629004E+00 0.16489826E+04</pdfrwt>
<pdfrwt beam="2">  1       -1 0.11805417E+00 0.16489826E+04</pdfrwt>
<totfact> 0.21064416E+01</totfact>
</mgrwt>
</event>
<event>
12    7  0.1637954E-007  0.1304328E+04  0.7818608E-02  0.9026140E-01
         -1   -1    0    0    0  501 -0.00000000000E+00  0.00000000000E+00  0.25399048106E+03  0.25399048106E+03  0.00000000000E+00 0.  1.
          2   -1    0    0  501    0  0.00000000000E+00 -0.00000000000E+00 -0.16745425032E+04  0.16745425032E+04  0.00000000000E+00 0. -1.
         24    2    1    2    0    0 -0.16425748038E+03  0.11022424531E+03 -0.50125451665E+02  0.21960624775E+03  0.81144556394E+02 0.  0.
        254    2    1    2    0    0  0.16425748038E+03 -0.11022424531E+03 -0.13704265704E+04  0.17089267365E+04  0.10016145474E+04 0.  0.
         23    2    4    4    0    0 -0.24272338330E+03 -0.39119158419E+03 -0.92604884574E+03  0.10378385089E+04  0.87159678607E+02 0.  0.
         23    2    4    4    0    0  0.40698086368E+03  0.28096733888E+03 -0.44437772469E+03  0.67108822754E+03  0.91168953149E+02 0.  0.
          4    1    3    3  502    0 -0.29560135356E+02  0.44532213978E+02 -0.44646290600E+02  0.69643455891E+02  0.00000000000E+00 0. -1.
         -3    1    3    3    0  502 -0.13469734503E+03  0.65692031334E+02 -0.54791610653E+01  0.14996279186E+03  0.00000000000E+00 0.  1.
         13    1    5    5    0    0 -0.19584281032E+03 -0.33605559234E+03 -0.70413489311E+03  0.80442135426E+03  0.00000000000E+00 0. -1.
        -13    1    5    5    0    0 -0.46880572983E+02 -0.55135991849E+02 -0.22191395264E+03  0.23341715467E+03  0.00000000000E+00 0.  1.
          3    1    6    6  503    0  0.32157932439E+03  0.20008370504E+03 -0.29006942616E+03  0.47706081676E+03  0.00000000000E+00 0. -1.
         -3    1    6    6    0  503  0.85401539289E+02  0.80883633841E+02 -0.15430829853E+03  0.19402741077E+03  0.00000000000E+00 0.  1.
<mgrwt>
<rscale>  0 0.13043280E+04</rscale>
<asrwt>0</asrwt>
<pdfrwt beam="1">  1        2 0.25762192E+00 0.13043280E+04</pdfrwt>
<pdfrwt beam="2">  1       -1 0.39075459E-01 0.13043280E+04</pdfrwt>
<totfact> 0.71899848E+01</totfact>
</mgrwt>
</event>
<event>
12    7  0.1637954E-007  0.2328830E+04  0.7818608E-02  0.8466640E-01
         -1   -1    0    0    0  501 -0.00000000000E+00  0.00000000000E+00  0.13879464942E+04  0.13879464942E+04  0.00000000000E+00 0.  1.
          2   -1    0    0  501    0  0.00000000000E+00 -0.00000000000E+00 -0.97688380021E+03  0.97688380021E+03  0.00000000000E+00 0. -1.
         24    2    1    2    0    0 -0.78170804484E+03  0.54179954799E+03 -0.11071847035E+03  0.96103602628E+03  0.81960030244E+02 0.  0.
        254    2    1    2    0    0  0.78170804484E+03 -0.54179954799E+03  0.52178116434E+03  0.14037942681E+04  0.89093689240E+03 0.  0.
         23    2    4    4    0    0  0.88521398640E+03 -0.16997150425E+03  0.33899554042E+03  0.96714784307E+03  0.89234858393E+02 0.  0.
         23    2    4    4    0    0 -0.10350594156E+03 -0.37182804374E+03  0.18278562392E+03  0.43664642508E+03  0.90994187600E+02 0.  0.
          4    1    3    3  502    0 -0.78373668273E+03  0.54049134239E+03 -0.11138848365E+03  0.95853089326E+03  0.00000000000E+00 0. -1.
         -3    1    3    3    0  502  0.20286378909E+01  0.13082056024E+01  0.67001329913E+00  0.25051330127E+01  0.00000000000E+00 0.  1.
         13    1    5    5    0    0  0.79252231729E+03 -0.13329076670E+03  0.32324868876E+03  0.86622616370E+03  0.00000000000E+00 0.  1.
        -13    1    5    5    0    0  0.92691669106E+02 -0.36680737553E+02  0.15746851659E+02  0.10092167937E+03  0.00000000000E+00 0. -1.
          4    1    6    6  503    0 -0.46936987139E+01  0.67500200570E+00  0.16053682309E+02  0.16739389206E+02  0.00000000000E+00 0. -1.
         -4    1    6    6    0  503 -0.98812242843E+02 -0.37250304574E+03  0.16673194161E+03  0.41990703587E+03  0.00000000000E+00 0.  1.
<mgrwt>
<rscale>  0 0.23288301E+04</rscale>
<asrwt>0</asrwt>
<pdfrwt beam="1">  1        2 0.15028982E+00 0.23288301E+04</pdfrwt>
<pdfrwt beam="2">  1       -1 0.21353023E+00 0.23288301E+04</pdfrwt>
<totfact> 0.32714771E+00</totfact>
</mgrwt>
</event>
<event>
12    7  0.1637954E-007  0.1833404E+04  0.7818608E-02  0.8688734E-01
         -3   -1    0    0    0  501 -0.00000000000E+00  0.00000000000E+00  0.67707186835E+03  0.67707186835E+03  0.00000000000E+00 0.  1.
          4   -1    0    0  501    0  0.00000000000E+00 -0.00000000000E+00 -0.12411427470E+04  0.12411427470E+04  0.00000000000E+00 0. -1.
         24    2    1    2    0    0 -0.43222628384E+03 -0.27437440695E+03 -0.69646594055E+03  0.86849113879E+03  0.84327790014E+02 0.  0.
        254    2    1    2    0    0  0.43222628384E+03  0.27437440695E+03  0.13239506191E+03  0.10497234766E+04  0.90680210035E+03 0.  0.
         23    2    4    4    0    0  0.21833107190E+03 -0.32303274244E+03  0.63092741835E+02  0.40541423773E+03  0.91440693528E+02 0.  0.
         23    2    4    4    0    0  0.21389521194E+03  0.59740714940E+03  0.69302320076E+02  0.64430923884E+03  0.87664815278E+02 0.  0.
          4    1    3    3  502    0 -0.40211528307E+03 -0.23241348729E+03 -0.59670994610E+03  0.75615837609E+03  0.00000000000E+00 0. -1.
         -3    1    3    3    0  502 -0.30111000768E+02 -0.41960919662E+02 -0.99755994451E+02  0.11233276270E+03  0.00000000000E+00 0.  1.
         13    1    5    5    0    0  0.13872796311E+03 -0.12424688499E+03  0.24614151609E+02  0.18785258220E+03  0.00000000000E+00 0. -1.
        -13    1    5    5    0    0  0.79603108790E+02 -0.19878585745E+03  0.38478590225E+02  0.21756165553E+03  0.00000000000E+00 0.  1.
          4    1    6    6  503    0  0.83698731982E+02  0.13566167258E+03  0.35910055713E+02  0.16339859009E+03  0.00000000000E+00 0. -1.
         -4    1    6    6    0  503  0.13019647996E+03  0.46174547682E+03  0.33392264363E+02  0.48091064875E+03  0.00000000000E+00 0.  1.
<mgrwt>
<rscale>  0 0.18334043E+04</rscale>
<asrwt>0</asrwt>
<pdfrwt beam="1">  1        4 0.19094504E+00 0.18334043E+04</pdfrwt>
<pdfrwt beam="2">  1       -3 0.10416490E+00 0.18334043E+04</pdfrwt>
<totfact> 0.25825278E-01</totfact>
</mgrwt>
</event>
<event>
12    7  0.1637954E-007  0.1429804E+04  0.7818608E-02  0.8932523E-01
         -1   -1    0    0    0  501 -0.00000000000E+00  0.00000000000E+00  0.92721871992E+03  0.92721871992E+03  0.00000000000E+00 0.  1.
          2   -1    0    0  501    0  0.00000000000E+00 -0.00000000000E+00 -0.55120224937E+03  0.55120224937E+03  0.00000000000E+00 0. -1.
         24    2    1    2    0    0  0.30588559829E+03 -0.11625804575E+03 -0.17206711883E+03  0.37847214844E+03  0.80945298305E+02 0.  0.
        254    2    1    2    0    0 -0.30588559829E+03  0.11625804575E+03  0.54808358938E+03  0.10999488208E+04  0.89577332797E+03 0.  0.
         23    2    4    4    0    0 -0.48931210250E+03  0.27356579841E+03  0.92494946079E+02  0.57562338484E+03  0.92316772127E+02 0.  0.
         23    2    4    4    0    0  0.18342650420E+03 -0.15730775266E+03  0.45558864330E+03  0.52432543601E+03  0.94684420324E+02 0.  0.
          2    1    3    3  502    0  0.17874898146E+03 -0.70558222905E+02 -0.14487411821E+03  0.24066194406E+03  0.00000000000E+00 0. -1.
         -1    1    3    3    0  502  0.12713661684E+03 -0.45699822846E+02 -0.27193000619E+02  0.13781020438E+03  0.00000000000E+00 0.  1.
         13    1    5    5    0    0 -0.39588291238E+03  0.25030667847E+03  0.10040686707E+03  0.47901800860E+03  0.00000000000E+00 0.  1.
        -13    1    5    5    0    0 -0.93429190114E+02  0.23259119939E+02 -0.79119209916E+01  0.96605376245E+02  0.00000000000E+00 0. -1.
          1    1    6    6  503    0  0.50501641648E+02  0.36167897560E+01  0.96774224702E+02  0.10921880582E+03  0.00000000000E+00 0. -1.
         -1    1    6    6    0  503  0.13292486256E+03 -0.16092454241E+03  0.35881441860E+03  0.41510663019E+03  0.00000000000E+00 0.  1.
<mgrwt>
<rscale>  0 0.14298042E+04</rscale>
<asrwt>0</asrwt>
<pdfrwt beam="1">  1        2 0.84800346E-01 0.14298042E+04</pdfrwt>
<pdfrwt beam="2">  1       -1 0.14264903E+00 0.14298042E+04</pdfrwt>
<totfact> 0.24325009E+01</totfact>
</mgrwt>
</event>
<event>
12    7  0.1637954E-007  0.2118244E+04  0.7818608E-02  0.8553249E-01
          2   -1    0    0  501    0  0.00000000000E+00  0.00000000000E+00  0.17588239185E+04  0.17588239185E+04  0.00000000000E+00 0. -1.
         -1   -1    0    0    0  501 -0.00000000000E+00 -0.00000000000E+00 -0.63777804155E+03  0.63777804155E+03  0.00000000000E+00 0.  1.
         24    2    1    2    0    0 -0.59243041679E+03 -0.85492869704E+02  0.11650129163E+04  0.13122378155E+04  0.80188275918E+02 0.  0.
        254    2    1    2    0    0  0.59243041679E+03  0.85492869704E+02 -0.43967039373E+02  0.10843641446E+04  0.90312217782E+03 0.  0.
         23    2    4    4    0    0  0.19232507055E+03  0.23894753519E+03  0.36485948625E+03  0.48524513991E+03  0.90860022901E+02 0.  0.
         23    2    4    4    0    0  0.40010534623E+03 -0.15345466549E+03 -0.40882652562E+03  0.59911900470E+03  0.90398181932E+02 0.  0.
          4    1    3    3  502    0 -0.52615650060E+03 -0.89163497444E+02  0.10773747517E+04  0.12023007727E+04  0.00000000000E+00 0. -1.
         -3    1    3    3    0  502 -0.66273916183E+02  0.36706277401E+01  0.87638164680E+02  0.10993704281E+03  0.00000000000E+00 0.  1.
         13    1    5    5    0    0  0.87929341372E+02  0.13467000487E+03  0.12526644213E+03  0.20386088592E+03  0.00000000000E+00 0.  1.
        -13    1    5    5    0    0  0.10439572918E+03  0.10427753033E+03  0.23959304412E+03  0.28138425399E+03  0.00000000000E+00 0. -1.
          2    1    6    6  503    0  0.38939795618E+03 -0.16378408403E+03 -0.40027472366E+03  0.58195863157E+03  0.00000000000E+00 0. -1.
         -2    1    6    6    0  503  0.10707390055E+02  0.10329418543E+02 -0.85518019672E+01  0.17160373134E+02  0.00000000000E+00 0.  1.
<mgrwt>
<rscale>  0 0.21182439E+04</rscale>
<asrwt>0</asrwt>
<pdfrwt beam="1">  1        2 0.27058829E+00 0.21182439E+04</pdfrwt>
<pdfrwt beam="2">  1       -1 0.98119699E-01 0.21182439E+04</pdfrwt>
<totfact> 0.94853620E+00</totfact>
</mgrwt>
</event>
<event>
12    7  0.1637954E-007  0.2537626E+04  0.7818608E-02  0.8389702E-01
          2   -1    0    0  501    0  0.00000000000E+00  0.00000000000E+00  0.15602947779E+04  0.15602947779E+04  0.00000000000E+00 0. -1.
         -1   -1    0    0    0  501 -0.00000000000E+00 -0.00000000000E+00 -0.10317834017E+04  0.10317834017E+04  0.00000000000E+00 0.  1.
         24    2    1    2    0    0  0.18030206970E+03  0.90434597650E+03 -0.39931809924E+03  0.10084825926E+04  0.85039482586E+02 0.  0.
        254    2    1    2    0    0 -0.18030206970E+03 -0.90434597650E+03  0.92782947552E+03  0.15835955870E+04  0.89250040115E+03 0.  0.
         23    2    4    4    0    0 -0.13201837714E+03 -0.80688367431E+03  0.20630422834E+03  0.84797952186E+03  0.89541717124E+02 0.  0.
         23    2    4    4    0    0 -0.48283692563E+02 -0.97462302193E+02  0.72152524718E+03  0.73561606516E+03  0.93285034655E+02 0.  0.
          2    1    3    3  502    0  0.80692841733E+02  0.22512503954E+03 -0.11657644385E+03  0.26605015579E+03  0.00000000000E+00 0. -1.
         -1    1    3    3    0  502  0.99609227967E+02  0.67922093696E+03 -0.28274165540E+03  0.74243243679E+03  0.00000000000E+00 0.  1.
         13    1    5    5    0    0 -0.87784407600E+02 -0.27519095883E+03  0.65608144177E+02  0.29621038911E+03  0.00000000000E+00 0. -1.
        -13    1    5    5    0    0 -0.44233969538E+02 -0.53169271548E+03  0.14069608416E+03  0.55176913275E+03  0.00000000000E+00 0.  1.
          2    1    6    6  503    0 -0.66987607996E+02 -0.49212174531E+02  0.31389055092E+03  0.32470980229E+03  0.00000000000E+00 0.  1.
         -2    1    6    6    0  503  0.18703915433E+02 -0.48250127662E+02  0.40763469626E+03  0.41090626287E+03  0.00000000000E+00 0. -1.
<mgrwt>
<rscale>  0 0.25376259E+04</rscale>
<asrwt>0</asrwt>
<pdfrwt beam="1">  1        2 0.24004535E+00 0.25376259E+04</pdfrwt>
<pdfrwt beam="2">  1       -1 0.15873591E+00 0.25376259E+04</pdfrwt>
<totfact> 0.35513946E+00</totfact>
</mgrwt>
</event>
<event>
12    7  0.1637954E-007  0.4108897E+04  0.7818608E-02  0.7982932E-01
          2   -1    0    0  501    0  0.00000000000E+00  0.00000000000E+00  0.35152655261E+04  0.35152655261E+04  0.00000000000E+00 0. -1.
         -1   -1    0    0    0  501 -0.00000000000E+00 -0.00000000000E+00 -0.12006943999E+04  0.12006943999E+04  0.00000000000E+00 0.  1.
         24    2    1    2    0    0  0.12218023177E+04  0.13122519433E+04  0.20259856811E+04  0.27066856707E+04  0.81995570384E+02 0.  0.
        254    2    1    2    0    0 -0.12218023177E+04 -0.13122519433E+04  0.28858544504E+03  0.20092742553E+04  0.85970658226E+03 0.  0.
         23    2    4    4    0    0 -0.17603272516E+03 -0.70821495104E+02  0.31968753567E+03  0.38308839428E+03  0.92484554795E+02 0.  0.
         23    2    4    4    0    0 -0.10457695925E+04 -0.12414304482E+04 -0.31102090622E+02  0.16261858610E+04  0.93431879275E+02 0.  0.
          4    1    3    3  502    0  0.90379611064E+03  0.10170556297E+04  0.15589932217E+04  0.20692291871E+04  0.00000000000E+00 0. -1.
         -3    1    3    3    0  502  0.31800620705E+03  0.29519631363E+03  0.46699245947E+03  0.63745648362E+03  0.00000000000E+00 0.  1.
         13    1    5    5    0    0 -0.39408118780E+00  0.66916169023E+01  0.58771896176E+02  0.59152927374E+02  0.00000000000E+00 0. -1.
        -13    1    5    5    0    0 -0.17563864397E+03 -0.77513112006E+02  0.26091563949E+03  0.32393546690E+03  0.00000000000E+00 0.  1.
          3    1    6    6  503    0 -0.88943936504E+03 -0.10205621088E+04  0.47651802181E+00  0.13537539027E+04  0.00000000000E+00 0. -1.
         -3    1    6    6    0  503 -0.15633022749E+03 -0.22086833935E+03 -0.31578608643E+02  0.27243195825E+03  0.00000000000E+00 0.  1.
<mgrwt>
<rscale>  0 0.41088975E+04</rscale>
<asrwt>0</asrwt>
<pdfrwt beam="1">  1        2 0.54081008E+00 0.41088975E+04</pdfrwt>
<pdfrwt beam="2">  1       -1 0.18472222E+00 0.41088975E+04</pdfrwt>
<totfact> 0.13527802E-01</totfact>
</mgrwt>
</event>
<event>
12    7  0.1637954E-007  0.4434557E+04  0.7818608E-02  0.7922195E-01
         -1   -1    0    0    0  501 -0.00000000000E+00  0.00000000000E+00  0.30719330065E+04  0.30719330065E+04  0.00000000000E+00 0.  1.
          2   -1    0    0  501    0  0.00000000000E+00 -0.00000000000E+00 -0.16004007539E+04  0.16004007539E+04  0.00000000000E+00 0. -1.
         24    2    1    2    0    0 -0.49913215336E+03  0.11091092672E+04  0.25396493190E+04  0.28169661610E+04  0.78888627163E+02 0.  0.
        254    2    1    2    0    0  0.49913215336E+03 -0.11091092672E+04 -0.10681170663E+04  0.18553675994E+04  0.90678475311E+03 0.  0.
         23    2    4    4    0    0  0.23776902527E+03 -0.10677400517E+04 -0.11216732455E+04  0.15695463875E+04  0.93391999626E+02 0.  0.
         23    2    4    4    0    0  0.26136312809E+03 -0.41369215422E+02  0.53556179119E+02  0.28582121186E+03  0.93826457451E+02 0.  0.
          2    1    3    3  502    0 -0.10442805843E+03  0.26903886737E+03  0.53537504687E+03  0.60820520580E+03  0.00000000000E+00 0. -1.
         -1    1    3    3    0  502 -0.39470409493E+03  0.84007039978E+03  0.20042742722E+04  0.22087609552E+04  0.00000000000E+00 0.  1.
         13    1    5    5    0    0  0.61781744935E+02 -0.13397319301E+03 -0.14247687854E+03  0.20509866253E+03  0.00000000000E+00 0. -1.
        -13    1    5    5    0    0  0.17598728034E+03 -0.93376685872E+03 -0.97919636692E+03  0.13644477250E+04  0.00000000000E+00 0.  1.
          1    1    6    6  503    0  0.37112610164E+02 -0.81786906279E+01 -0.25469280432E+02  0.45748454173E+02  0.00000000000E+00 0. -1.
         -1    1    6    6    0  503  0.22425051792E+03 -0.33190524794E+02  0.79025459551E+02  0.24007275768E+03  0.00000000000E+00 0.  1.
<mgrwt>
<rscale>  0 0.44345570E+04</rscale>
<asrwt>0</asrwt>
<pdfrwt beam="1">  1        2 0.24621550E+00 0.44345570E+04</pdfrwt>
<pdfrwt beam="2">  1       -1 0.47260508E+00 0.44345570E+04</pdfrwt>
<totfact> 0.21952803E-02</totfact>
</mgrwt>
</event>
<event>
12    7  0.1637954E-007  0.2431239E+04  0.7818608E-02  0.8427900E-01
          2   -1    0    0  501    0  0.00000000000E+00  0.00000000000E+00  0.14800707530E+04  0.14800707530E+04  0.00000000000E+00 0. -1.
         -1   -1    0    0    0  501 -0.00000000000E+00 -0.00000000000E+00 -0.99841877682E+03  0.99841877682E+03  0.00000000000E+00 0.  1.
         24    2    1    2    0    0  0.36137034903E+03  0.73608096930E+02 -0.79918653708E+03  0.88381934949E+03  0.80192520743E+02 0.  0.
        254    2    1    2    0    0 -0.36137034903E+03 -0.73608096930E+02  0.12808385132E+04  0.15946701803E+04  0.87545360008E+03 0.  0.
         23    2    4    4    0    0  0.25375814875E+03  0.12283848055E+03  0.42968215082E+03  0.52213668723E+03  0.92290189359E+02 0.  0.
         23    2    4    4    0    0 -0.61512849778E+03 -0.19644657748E+03  0.85115636242E+03  0.10725334931E+04  0.94268838579E+02 0.  0.
          2    1    3    3  502    0 -0.79548036483E+00 -0.60284943535E+01 -0.19839952546E+02  0.20750885528E+02  0.00000000000E+00 0. -1.
         -1    1    3    3    0  502  0.36216582940E+03  0.79636591284E+02 -0.77934658454E+03  0.86306846396E+03  0.00000000000E+00 0.  1.
         13    1    5    5    0    0  0.97950633767E+02  0.69744989963E+02  0.25606649062E+03  0.28289350982E+03  0.00000000000E+00 0. -1.
        -13    1    5    5    0    0  0.15580751498E+03  0.53093490587E+02  0.17361566020E+03  0.23924317740E+03  0.00000000000E+00 0.  1.
          2    1    6    6  503    0 -0.90246473972E+02 -0.65785830303E+02  0.14507596764E+03  0.18308259862E+03  0.00000000000E+00 0. -1.
         -2    1    6    6    0  503 -0.52488202381E+03 -0.13066074718E+03  0.70608039478E+03  0.88945089446E+03  0.00000000000E+00 0.  1.
<mgrwt>
<rscale>  0 0.24312387E+04</rscale>
<asrwt>0</asrwt>
<pdfrwt beam="1">  1        2 0.22770319E+00 0.24312387E+04</pdfrwt>
<pdfrwt beam="2">  1       -1 0.15360289E+00 0.24312387E+04</pdfrwt>
<totfact> 0.43544091E+00</totfact>
</mgrwt>
</event>
<event>
12    7  0.1637954E-007  0.1363796E+04  0.7818608E-02  0.8980450E-01
         -1   -1    0    0    0  501 -0.00000000000E+00  0.00000000000E+00  0.43877261613E+03  0.43877261613E+03  0.00000000000E+00 0.  1.
          2   -1    0    0  501    0  0.00000000000E+00 -0.00000000000E+00 -0.10597393318E+04  0.10597393318E+04  0.00000000000E+00 0. -1.
         24    2    1    2    0    0  0.92092472240E+02 -0.24228231048E+03 -0.48451055664E+03  0.55515101187E+03  0.79122847920E+02 0.  0.
        254    2    1    2    0    0 -0.92092472240E+02  0.24228231048E+03 -0.13645615904E+03  0.94336093607E+03  0.89673174972E+03 0.  0.
         23    2    4    4    0    0 -0.34609993628E+03  0.23045480089E+03  0.23467412899E+03  0.48525701317E+03  0.86647797852E+02 0.  0.
         23    2    4    4    0    0  0.25400746404E+03  0.11827509595E+02 -0.37113028802E+03  0.45810392290E+03  0.86381894609E+02 0.  0.
          4    1    3    3  502    0  0.15737373572E+02 -0.87720331827E+02 -0.23970440436E+03  0.25573565065E+03  0.00000000000E+00 0. -1.
         -3    1    3    3    0  502  0.76355098668E+02 -0.15456197866E+03 -0.24480615228E+03  0.29941536122E+03  0.00000000000E+00 0.  1.
         13    1    5    5    0    0 -0.27609129453E+03  0.16536190879E+03  0.21671525030E+03  0.38799028790E+03  0.00000000000E+00 0. -1.
        -13    1    5    5    0    0 -0.70008641753E+02  0.65092892095E+02  0.17958878687E+02  0.97266725272E+02  0.00000000000E+00 0.  1.
          2    1    6    6  503    0  0.11611439085E+03  0.45964992861E+02 -0.14872033483E+03  0.19419853326E+03  0.00000000000E+00 0. -1.
         -2    1    6    6    0  503  0.13789307319E+03 -0.34137483266E+02 -0.22240995319E+03  0.26390538964E+03  0.00000000000E+00 0.  1.
<mgrwt>
<rscale>  0 0.13637956E+04</rscale>
<asrwt>0</asrwt>
<pdfrwt beam="1">  1        2 0.16303682E+00 0.13637956E+04</pdfrwt>
<pdfrwt beam="2">  1       -1 0.67503480E-01 0.13637956E+04</pdfrwt>
<totfact> 0.57104489E+01</totfact>
</mgrwt>
</event>
<event>
12    7  0.1637954E-007  0.1014715E+04  0.7818608E-02  0.9292551E-01
         -1   -1    0    0    0  501 -0.00000000000E+00  0.00000000000E+00  0.50236621995E+03  0.50236621995E+03  0.00000000000E+00 0.  1.
          2   -1    0    0  501    0  0.00000000000E+00 -0.00000000000E+00 -0.51239835130E+03  0.51239835130E+03  0.00000000000E+00 0. -1.
         24    2    1    2    0    0 -0.59523308510E+02 -0.17304446234E+02  0.12477826930E+03  0.16086649141E+03  0.80411090363E+02 0.  0.
        254    2    1    2    0    0  0.59523308510E+02  0.17304446234E+02 -0.13481040064E+03  0.85389807984E+03  0.84090761593E+03 0.  0.
         23    2    4    4    0    0  0.29995568445E+03  0.11152536319E+03 -0.36692995031E+03  0.49534879465E+03  0.91222369310E+02 0.  0.
         23    2    4    4    0    0 -0.24043237594E+03 -0.94220916955E+02  0.23211954967E+03  0.35854928519E+03  0.89402438323E+02 0.  0.
          4    1    3    3  502    0  0.15536733744E+02  0.67002950411E+01  0.52831293222E+01  0.17725560767E+02  0.00000000000E+00 0. -1.
         -3    1    3    3    0  502 -0.75060042254E+02 -0.24004741275E+02  0.11949513997E+03  0.14314093064E+03  0.00000000000E+00 0.  1.
         13    1    5    5    0    0  0.96704355538E+02  0.13820860832E+02 -0.16944041649E+03  0.19558323883E+03  0.00000000000E+00 0. -1.
        -13    1    5    5    0    0  0.20325132892E+03  0.97704502358E+02 -0.19748953382E+03  0.29976555582E+03  0.00000000000E+00 0.  1.
          1    1    6    6  503    0 -0.11791869082E+02  0.84688768769E+00  0.49451193176E+02  0.50844723441E+02  0.00000000000E+00 0. -1.
         -1    1    6    6    0  503 -0.22864050686E+03 -0.95067804643E+02  0.18266835649E+03  0.30770456175E+03  0.00000000000E+00 0.  1.
<mgrwt>
<rscale>  0 0.10147150E+04</rscale>
<asrwt>0</asrwt>
<pdfrwt beam="1">  1        2 0.78830516E-01 0.10147150E+04</pdfrwt>
<pdfrwt beam="2">  1       -1 0.77287111E-01 0.10147150E+04</pdfrwt>
<totfact> 0.11464097E+02</totfact>
</mgrwt>
</event>
<event>
12    7  0.1637954E-007  0.2072650E+04  0.7818608E-02  0.8573388E-01
         -1   -1    0    0    0  501 -0.00000000000E+00  0.00000000000E+00  0.45426695030E+03  0.45426695030E+03  0.00000000000E+00 0.  1.
          2   -1    0    0  501    0  0.00000000000E+00 -0.00000000000E+00 -0.23641824732E+04  0.23641824732E+04  0.00000000000E+00 0. -1.
         24    2    1    2    0    0 -0.34855367211E+03  0.76272099472E+03 -0.90313961581E+03  0.12349327136E+04  0.78515370258E+02 0.  0.
        254    2    1    2    0    0  0.34855367211E+03 -0.76272099472E+03 -0.10067759071E+04  0.15835167099E+04  0.88921002313E+03 0.  0.
         23    2    4    4    0    0  0.63998873925E+03 -0.47002045441E+03 -0.69283101529E+03  0.10575193859E+04  0.88473847977E+02 0.  0.
         23    2    4    4    0    0 -0.29143506714E+03 -0.29270054031E+03 -0.31394489179E+03  0.52599732401E+03  0.86624391119E+02 0.  0.
          2    1    3    3  502    0 -0.20779552656E+03  0.44709859249E+03 -0.58675842826E+03  0.76639518879E+03  0.00000000000E+00 0. -1.
         -1    1    3    3    0  502 -0.14075814555E+03  0.31562240223E+03 -0.31638118755E+03  0.46853752482E+03  0.00000000000E+00 0.  1.
         13    1    5    5    0    0  0.58547923946E+03 -0.40437928203E+03 -0.64091239376E+03  0.95764149871E+03  0.00000000000E+00 0. -1.
        -13    1    5    5    0    0  0.54509499792E+02 -0.65641172385E+02 -0.51918621537E+02  0.99877887152E+02  0.00000000000E+00 0.  1.
          1    1    6    6  503    0 -0.20912393908E+03 -0.19661725540E+03 -0.16697742474E+03  0.33207322595E+03  0.00000000000E+00 0. -1.
         -1    1    6    6    0  503 -0.82311128059E+02 -0.96083284904E+02 -0.14696746705E+03  0.19392409807E+03  0.00000000000E+00 0.  1.
<mgrwt>
<rscale>  0 0.20726504E+04</rscale>
<asrwt>0</asrwt>
<pdfrwt beam="1">  1        2 0.36372039E+00 0.20726504E+04</pdfrwt>
<pdfrwt beam="2">  1       -1 0.69887222E-01 0.20726504E+04</pdfrwt>
<totfact> 0.90712455E+00</totfact>
</mgrwt>
</event>
<event>
12    7  0.1637954E-007  0.1569479E+04  0.7818608E-02  0.8839521E-01
         -1   -1    0    0    0  501 -0.00000000000E+00  0.00000000000E+00  0.93855476316E+03  0.93855476316E+03  0.00000000000E+00 0.  1.
          2   -1    0    0  501    0  0.00000000000E+00 -0.00000000000E+00 -0.65613206138E+03  0.65613206138E+03  0.00000000000E+00 0. -1.
         24    2    1    2    0    0 -0.25629074489E+03  0.43822034361E+03 -0.85023293692E+01  0.51410839469E+03  0.80704004979E+02 0.  0.
        254    2    1    2    0    0  0.25629074489E+03 -0.43822034361E+03  0.29092503114E+03  0.10805784298E+04  0.90845492670E+03 0.  0.
         23    2    4    4    0    0  0.13912661194E+03 -0.36014030143E+03 -0.27968323822E+03  0.48548000137E+03  0.91710779734E+02 0.  0.
         23    2    4    4    0    0  0.11716413294E+03 -0.78080042173E+02  0.57060826936E+03  0.59509842848E+03  0.93404579538E+02 0.  0.
          4    1    3    3  502    0 -0.14456207329E+02  0.81848087640E+02  0.44483050739E+01  0.83233880113E+02  0.00000000000E+00 0. -1.
         -3    1    3    3    0  502 -0.24183453756E+03  0.35637225597E+03 -0.12950634443E+02  0.43087451458E+03  0.00000000000E+00 0.  1.
         13    1    5    5    0    0  0.34649487064E+02 -0.20291095559E+03 -0.17131428529E+03  0.26780968466E+03  0.00000000000E+00 0. -1.
        -13    1    5    5    0    0  0.10447712488E+03 -0.15722934584E+03 -0.10836895293E+03  0.21767031671E+03  0.00000000000E+00 0.  1.
          2    1    6    6  503    0  0.10139263959E+03 -0.28740227519E+02  0.47298813979E+03  0.48458667792E+03  0.00000000000E+00 0.  1.
         -2    1    6    6    0  503  0.15771493357E+02 -0.49339814655E+02  0.97620129579E+02  0.11051175056E+03  0.00000000000E+00 0. -1.
<mgrwt>
<rscale>  0 0.15694787E+04</rscale>
<asrwt>0</asrwt>
<pdfrwt beam="1">  1        2 0.10094339E+00 0.15694787E+04</pdfrwt>
<pdfrwt beam="2">  1       -1 0.14439304E+00 0.15694787E+04</pdfrwt>
<totfact> 0.18854486E+01</totfact>
</mgrwt>
</event>
<event>
12    7  0.1637954E-007  0.1799788E+04  0.7818608E-02  0.8706412E-01
          2   -1    0    0  501    0  0.00000000000E+00  0.00000000000E+00  0.15731063189E+04  0.15731063189E+04  0.00000000000E+00 0. -1.
         -1   -1    0    0    0  501 -0.00000000000E+00 -0.00000000000E+00 -0.51478376591E+03  0.51478376591E+03  0.00000000000E+00 0.  1.
         24    2    1    2    0    0  0.31101150707E+02  0.55318599488E+03 -0.43702638847E+02  0.56171392643E+03  0.81428422502E+02 0.  0.
        254    2    1    2    0    0 -0.31101150707E+02 -0.55318599488E+03  0.11020251918E+04  0.15261761584E+04  0.89876143467E+03 0.  0.
         23    2    4    4    0    0 -0.22139549792E+03 -0.22300179581E+03  0.10851311086E+04  0.11334095603E+04  0.91443650592E+02 0.  0.
         23    2    4    4    0    0  0.19029434721E+03 -0.33018419907E+03  0.16894083272E+02  0.39276659805E+03  0.93523508234E+02 0.  0.
          4    1    3    3  502    0  0.18342628731E+02  0.21889784719E+02 -0.26276169805E+01  0.28679593351E+02  0.00000000000E+00 0. -1.
         -3    1    3    3    0  502  0.12758521976E+02  0.53129621016E+03 -0.41075021867E+02  0.53303433308E+03  0.00000000000E+00 0.  1.
         13    1    5    5    0    0 -0.39956130256E+02 -0.44789224264E+02  0.10626084479E+03  0.12204070670E+03  0.00000000000E+00 0. -1.
        -13    1    5    5    0    0 -0.18143936766E+03 -0.17821257155E+03  0.97887026378E+03  0.10113688536E+04  0.00000000000E+00 0.  1.
          3    1    6    6  503    0 -0.78247121737E+01 -0.17718972545E+02  0.11937313080E+02  0.22752748235E+02  0.00000000000E+00 0. -1.
         -3    1    6    6    0  503  0.19811905939E+03 -0.31246522653E+03  0.49567701918E+01  0.37001384981E+03  0.00000000000E+00 0.  1.
<mgrwt>
<rscale>  0 0.17997884E+04</rscale>
<asrwt>0</asrwt>
<pdfrwt beam="1">  1        2 0.24201635E+00 0.17997884E+04</pdfrwt>
<pdfrwt beam="2">  1       -1 0.79197503E-01 0.17997884E+04</pdfrwt>
<totfact> 0.19792128E+01</totfact>
</mgrwt>
</event>
<event>
12    7  0.1637954E-007  0.3127612E+04  0.7818608E-02  0.8208201E-01
          2   -1    0    0  501    0  0.00000000000E+00  0.00000000000E+00  0.17359562925E+04  0.17359562925E+04  0.00000000000E+00 0. -1.
         -1   -1    0    0    0  501 -0.00000000000E+00 -0.00000000000E+00 -0.14087275763E+04  0.14087275763E+04  0.00000000000E+00 0.  1.
         24    2    1    2    0    0  0.19353197662E+02  0.97799051567E+03  0.11955726900E+04  0.15468101650E+04  0.79922677815E+02 0.  0.
        254    2    1    2    0    0 -0.19353197662E+02 -0.97799051567E+03 -0.86834397379E+03  0.15978737038E+04  0.91779034720E+03 0.  0.
         23    2    4    4    0    0 -0.43618079772E+03 -0.29618715890E+03 -0.38889269499E+03  0.66142786037E+03  0.90932749090E+02 0.  0.
         23    2    4    4    0    0  0.41682760006E+03 -0.68180335677E+03 -0.47945127880E+03  0.93644584341E+03  0.91957726273E+02 0.  0.
          2    1    3    3  502    0  0.21173993158E+02  0.95493921411E+03  0.11442929654E+04  0.14905581610E+04  0.00000000000E+00 0. -1.
         -1    1    3    3    0  502 -0.18207954954E+01  0.23051301565E+02  0.51279724520E+02  0.56252003937E+02  0.00000000000E+00 0.  1.
         13    1    5    5    0    0 -0.18274035002E+03 -0.17191121551E+03 -0.15558552267E+03  0.29521916673E+03  0.00000000000E+00 0.  1.
        -13    1    5    5    0    0 -0.25344044770E+03 -0.12427594339E+03 -0.23330717232E+03  0.36620869363E+03  0.00000000000E+00 0. -1.
          4    1    6    6  503    0  0.21333330190E+03 -0.40080639688E+03 -0.22881838616E+03  0.50844342785E+03  0.00000000000E+00 0. -1.
         -4    1    6    6    0  503  0.20349429816E+03 -0.28099695989E+03 -0.25063289264E+03  0.42800241556E+03  0.00000000000E+00 0.  1.
<mgrwt>
<rscale>  0 0.31276122E+04</rscale>
<asrwt>0</asrwt>
<pdfrwt beam="1">  1        2 0.26707020E+00 0.31276122E+04</pdfrwt>
<pdfrwt beam="2">  1       -1 0.21672732E+00 0.31276122E+04</pdfrwt>
<totfact> 0.10452626E+00</totfact>
</mgrwt>
</event>
<event>
12    7  0.1637954E-007  0.2560055E+04  0.7818608E-02  0.8381898E-01
          2   -1    0    0  501    0  0.00000000000E+00  0.00000000000E+00  0.22480512301E+04  0.22480512301E+04  0.00000000000E+00 0. -1.
         -1   -1    0    0    0  501 -0.00000000000E+00 -0.00000000000E+00 -0.72884020632E+03  0.72884020632E+03  0.00000000000E+00 0.  1.
         24    2    1    2    0    0 -0.36437473035E+03 -0.74379752607E+03  0.15697759459E+04  0.17767219055E+04  0.80873390088E+02 0.  0.
        254    2    1    2    0    0  0.36437473035E+03  0.74379752607E+03 -0.50564922213E+02  0.12001695308E+04  0.86709076081E+03 0.  0.
         23    2    4    4    0    0 -0.59106121863E+02  0.73991814160E+03  0.68466736992E+02  0.75079940510E+03  0.89664166271E+02 0.  0.
         23    2    4    4    0    0  0.42348085222E+03  0.38793844758E+01 -0.11903165921E+03  0.44937012575E+03  0.91727270760E+02 0.  0.
          4    1    3    3  502    0 -0.35314041514E+03 -0.67426355002E+03  0.14168351246E+04  0.16083411510E+04  0.00000000000E+00 0. -1.
         -3    1    3    3    0  502 -0.11234315209E+02 -0.69533976056E+02  0.15294082139E+03  0.16838075458E+03  0.00000000000E+00 0.  1.
         13    1    5    5    0    0  0.23112328858E+02  0.23011968530E+03  0.19592867466E+02  0.23210585896E+03  0.00000000000E+00 0. -1.
        -13    1    5    5    0    0 -0.82218450722E+02  0.50979845630E+03  0.48873869526E+02  0.51869354614E+03  0.00000000000E+00 0.  1.
          4    1    6    6  503    0  0.11609605140E+03  0.39386465664E+02 -0.49589969885E+02  0.13224504505E+03  0.00000000000E+00 0. -1.
         -4    1    6    6    0  503  0.30738480082E+03 -0.35507081188E+02 -0.69441689320E+02  0.31712508069E+03  0.00000000000E+00 0.  1.
<mgrwt>
<rscale>  0 0.25600548E+04</rscale>
<asrwt>0</asrwt>
<pdfrwt beam="1">  1        2 0.34585403E+00 0.25600548E+04</pdfrwt>
<pdfrwt beam="2">  1       -1 0.11212926E+00 0.25600548E+04</pdfrwt>
<totfact> 0.35706444E+00</totfact>
</mgrwt>
</event>
<event>
12    7  0.1637954E-007  0.1267533E+04  0.7818608E-02  0.9055716E-01
          2   -1    0    0  501    0  0.00000000000E+00  0.00000000000E+00  0.13856306513E+04  0.13856306513E+04  0.00000000000E+00 0. -1.
         -1   -1    0    0    0  501 -0.00000000000E+00 -0.00000000000E+00 -0.28987512347E+03  0.28987512347E+03  0.00000000000E+00 0.  1.
         24    2    1    2    0    0 -0.77367860445E+02  0.80210942004E+01 -0.12708281815E+03  0.17108550029E+03  0.84083779419E+02 0.  0.
        254    2    1    2    0    0  0.77367860445E+02 -0.80210942004E+01  0.12228383460E+04  0.15044202745E+04  0.87286689598E+03 0.  0.
         23    2    4    4    0    0  0.17098852954E+03 -0.30241562328E+03  0.11043825831E+04  0.11614797563E+04  0.93177508228E+02 0.  0.
         23    2    4    4    0    0 -0.93620669098E+02  0.29439452908E+03  0.11845576290E+03  0.34294051818E+03  0.90241137037E+02 0.  0.
          2    1    3    3  502    0 -0.11693267653E+02 -0.11225181902E+02 -0.93423765716E+02  0.94819498088E+02  0.00000000000E+00 0. -1.
         -1    1    3    3    0  502 -0.65674592791E+02  0.19246276103E+02 -0.33659052429E+02  0.76266002207E+02  0.00000000000E+00 0.  1.
         13    1    5    5    0    0  0.12432927034E+03 -0.16336847343E+03  0.75835769734E+03  0.78565477323E+03  0.00000000000E+00 0. -1.
        -13    1    5    5    0    0  0.46659259200E+02 -0.13904714985E+03  0.34602488573E+03  0.37582498306E+03  0.00000000000E+00 0.  1.
          2    1    6    6  503    0 -0.52922460668E+02  0.21526473736E+03  0.41989828406E+02  0.22561657670E+03  0.00000000000E+00 0. -1.
         -2    1    6    6    0  503 -0.40698208430E+02  0.79129791723E+02  0.76465934489E+02  0.11732394148E+03  0.00000000000E+00 0.  1.
<mgrwt>
<rscale>  0 0.12675328E+04</rscale>
<asrwt>0</asrwt>
<pdfrwt beam="1">  1        2 0.21317394E+00 0.12675328E+04</pdfrwt>
<pdfrwt beam="2">  1       -1 0.44596174E-01 0.12675328E+04</pdfrwt>
<totfact> 0.82202840E+01</totfact>
</mgrwt>
</event>
<event>
12    7  0.1637954E-007  0.1344612E+04  0.7818608E-02  0.8994917E-01
         -1   -1    0    0    0  501 -0.00000000000E+00  0.00000000000E+00  0.48809636468E+03  0.48809636468E+03  0.00000000000E+00 0.  1.
          2   -1    0    0  501    0  0.00000000000E+00 -0.00000000000E+00 -0.92603738777E+03  0.92603738777E+03  0.00000000000E+00 0. -1.
         24    2    1    2    0    0  0.14141854674E+03  0.31656926062E+03 -0.13958411088E+02  0.35501498813E+03  0.75003349457E+02 0.  0.
        254    2    1    2    0    0 -0.14141854674E+03 -0.31656926062E+03 -0.42398261200E+03  0.10591187643E+04  0.90650758383E+03 0.  0.
         23    2    4    4    0    0  0.24432663372E+03 -0.45099311891E+03 -0.36408216034E+03  0.63570515020E+03  0.92059335568E+02 0.  0.
         23    2    4    4    0    0 -0.38574518045E+03  0.13442385830E+03 -0.59900451664E+02  0.42341361413E+03  0.93925005174E+02 0.  0.
          2    1    3    3  502    0  0.52382397281E+02  0.10784127043E+03 -0.40493907141E+02  0.12654410958E+03  0.00000000000E+00 0. -1.
         -1    1    3    3    0  502  0.89036149456E+02  0.20872799018E+03  0.26535496054E+02  0.22847087855E+03  0.00000000000E+00 0.  1.
         13    1    5    5    0    0  0.17208260480E+03 -0.22242906927E+03 -0.18809129118E+03  0.33832742654E+03  0.00000000000E+00 0.  1.
        -13    1    5    5    0    0  0.72244028918E+02 -0.22856404965E+03 -0.17599086915E+03  0.29737772366E+03  0.00000000000E+00 0. -1.
          1    1    6    6  503    0 -0.11048156813E+02  0.26055783321E+02 -0.10757297768E+02  0.30276807439E+02  0.00000000000E+00 0. -1.
         -1    1    6    6    0  503 -0.37469702364E+03  0.10836807497E+03 -0.49143153896E+02  0.39313680669E+03  0.00000000000E+00 0.  1.
<mgrwt>
<rscale>  0 0.13446122E+04</rscale>
<asrwt>0</asrwt>
<pdfrwt beam="1">  1        2 0.14246729E+00 0.13446122E+04</pdfrwt>
<pdfrwt beam="2">  1       -1 0.75091749E-01 0.13446122E+04</pdfrwt>
<totfact> 0.56017463E+01</totfact>
</mgrwt>
</event>
<event>
12    7  0.1637954E-007  0.1383640E+04  0.7818608E-02  0.8965747E-01
          2   -1    0    0  501    0  0.00000000000E+00  0.00000000000E+00  0.11304957230E+04  0.11304957230E+04  0.00000000000E+00 0. -1.
         -1   -1    0    0    0  501 -0.00000000000E+00 -0.00000000000E+00 -0.42336698868E+03  0.42336698868E+03  0.00000000000E+00 0.  1.
         24    2    1    2    0    0 -0.22269659043E+03  0.32604549692E+03  0.14085321841E+03  0.42651733765E+03  0.78600080963E+02 0.  0.
        254    2    1    2    0    0  0.22269659043E+03 -0.32604549692E+03  0.56627551595E+03  0.11273453741E+04  0.89125764793E+03 0.  0.
         23    2    4    4    0    0  0.24178817079E+03 -0.56422483402E+03  0.14899427775E+03  0.63794573791E+03  0.89242853268E+02 0.  0.
         23    2    4    4    0    0 -0.19091580369E+02  0.23817933709E+03  0.41728123820E+03  0.48939963615E+03  0.91074074527E+02 0.  0.
          2    1    3    3  502    0 -0.26426057866E+02  0.62609764619E+01  0.13103280556E+02  0.30153479433E+02  0.00000000000E+00 0. -1.
         -1    1    3    3    0  502 -0.19627053256E+03  0.31978452046E+03  0.12774993785E+03  0.39636385822E+03  0.00000000000E+00 0.  1.
         13    1    5    5    0    0  0.21006124596E+03 -0.41797339110E+03  0.86266205104E+02  0.47567776999E+03  0.00000000000E+00 0. -1.
        -13    1    5    5    0    0  0.31726924838E+02 -0.14625144291E+03  0.62728072649E+02  0.16226796792E+03  0.00000000000E+00 0.  1.
          2    1    6    6  503    0  0.23757732471E+02  0.29711697138E+02  0.34132825544E+02  0.51110317731E+02  0.00000000000E+00 0.  1.
         -2    1    6    6    0  503 -0.42849312840E+02  0.20846763996E+03  0.38314841265E+03  0.43828931842E+03  0.00000000000E+00 0. -1.
<mgrwt>
<rscale>  0 0.13836395E+04</rscale>
<asrwt>0</asrwt>
<pdfrwt beam="1">  1        2 0.17392242E+00 0.13836395E+04</pdfrwt>
<pdfrwt beam="2">  1       -1 0.65133383E-01 0.13836395E+04</pdfrwt>
<totfact> 0.55416445E+01</totfact>
</mgrwt>
</event>
<event>
12    7  0.1637954E-007  0.1660560E+04  0.7818608E-02  0.8784184E-01
          2   -1    0    0  501    0  0.00000000000E+00  0.00000000000E+00  0.44717366514E+04  0.44717366514E+04  0.00000000000E+00 0. -1.
         -1   -1    0    0    0  501 -0.00000000000E+00 -0.00000000000E+00 -0.15416043619E+03  0.15416043619E+03  0.00000000000E+00 0.  1.
         24    2    1    2    0    0 -0.19007738144E+03 -0.50724829684E+03  0.93617596579E+03  0.10845266314E+04  0.79638745119E+02 0.  0.
        254    2    1    2    0    0  0.19007738144E+03  0.50724829684E+03  0.33814002494E+04  0.35413704562E+04  0.90222326261E+03 0.  0.
         23    2    4    4    0    0  0.40198960394E+03  0.36827841650E+03  0.31110457090E+04  0.31599142713E+04  0.96063335111E+02 0.  0.
         23    2    4    4    0    0 -0.21191222250E+03  0.13896988034E+03  0.27035454037E+03  0.38145618489E+03  0.90541845637E+02 0.  0.
          2    1    3    3  502    0 -0.42401008600E+02 -0.18225956542E+03  0.26625912586E+03  0.32543865293E+03  0.00000000000E+00 0. -1.
         -1    1    3    3    0  502 -0.14767637284E+03 -0.32498873142E+03  0.66991683993E+03  0.75908797848E+03  0.00000000000E+00 0.  1.
         13    1    5    5    0    0  0.92311880592E+02  0.76697272046E+02  0.48405559626E+03  0.49871211646E+03  0.00000000000E+00 0. -1.
        -13    1    5    5    0    0  0.30967772335E+03  0.29158114446E+03  0.26269901128E+04  0.26612021548E+04  0.00000000000E+00 0.  1.
          4    1    6    6  503    0 -0.14035790104E+03  0.13661270802E+03  0.17853972076E+03  0.26502793111E+03  0.00000000000E+00 0.  1.
         -4    1    6    6    0  503 -0.71554321464E+02  0.23571723169E+01  0.91814819601E+02  0.11642825379E+03  0.00000000000E+00 0. -1.
<mgrwt>
<rscale>  0 0.16605600E+04</rscale>
<asrwt>0</asrwt>
<pdfrwt beam="1">  1        2 0.68795939E+00 0.16605600E+04</pdfrwt>
<pdfrwt beam="2">  1       -1 0.23716994E-01 0.16605600E+04</pdfrwt>
<totfact> 0.22452652E+00</totfact>
</mgrwt>
</event>
<event>
12    7  0.1637954E-007  0.1959890E+04  0.7818608E-02  0.8625606E-01
          2   -1    0    0  501    0  0.00000000000E+00  0.00000000000E+00  0.13145792408E+04  0.13145792408E+04  0.00000000000E+00 0. -1.
         -1   -1    0    0    0  501 -0.00000000000E+00 -0.00000000000E+00 -0.73049422780E+03  0.73049422780E+03  0.00000000000E+00 0.  1.
         24    2    1    2    0    0  0.39018014963E+03 -0.28720059020E+03 -0.39523581045E+03  0.63054220927E+03  0.81531611250E+02 0.  0.
        254    2    1    2    0    0 -0.39018014963E+03  0.28720059020E+03  0.97932082341E+03  0.14145312593E+04  0.89839004902E+03 0.  0.
         23    2    4    4    0    0 -0.46227794288E+03  0.46947094720E+03  0.99527002728E+03  0.11970413589E+04  0.90783924917E+02 0.  0.
         23    2    4    4    0    0  0.72097793249E+02 -0.18227035700E+03 -0.15949203867E+02  0.21748990038E+03  0.92881132790E+02 0.  0.
          4    1    3    3  502    0  0.78991151720E+02 -0.23609912725E+02 -0.82304477578E+02  0.11649487997E+03  0.00000000000E+00 0. -1.
         -3    1    3    3    0  502  0.31118899792E+03 -0.26359067747E+03 -0.31293133287E+03  0.51404732931E+03  0.00000000000E+00 0.  1.
         13    1    5    5    0    0 -0.34434189972E+03  0.37734831726E+03  0.70705410925E+03  0.87228929252E+03  0.00000000000E+00 0. -1.
        -13    1    5    5    0    0 -0.11793604317E+03  0.92122629940E+02  0.28821591803E+03  0.32475206640E+03  0.00000000000E+00 0.  1.
          2    1    6    6  503    0  0.24070006095E+02 -0.14590695373E+03  0.16956004539E+02  0.14884794399E+03  0.00000000000E+00 0. -1.
         -2    1    6    6    0  503  0.48027787154E+02 -0.36363403277E+02 -0.32905208406E+02  0.68641956390E+02  0.00000000000E+00 0.  1.
<mgrwt>
<rscale>  0 0.19598904E+04</rscale>
<asrwt>0</asrwt>
<pdfrwt beam="1">  1        2 0.20224296E+00 0.19598904E+04</pdfrwt>
<pdfrwt beam="2">  1       -1 0.11238373E+00 0.19598904E+04</pdfrwt>
<totfact> 0.12492429E+01</totfact>
</mgrwt>
</event>
<event>
12    7  0.1637954E-007  0.1375193E+04  0.7818608E-02  0.8971974E-01
          2   -1    0    0  501    0  0.00000000000E+00  0.00000000000E+00  0.15002792924E+04  0.15002792924E+04  0.00000000000E+00 0. -1.
         -1   -1    0    0    0  501 -0.00000000000E+00 -0.00000000000E+00 -0.31513377027E+03  0.31513377027E+03  0.00000000000E+00 0.  1.
         24    2    1    2    0    0  0.24100753546E+03 -0.29508756333E+03  0.30841757508E+03  0.49660423976E+03  0.79580576417E+02 0.  0.
        254    2    1    2    0    0 -0.24100753546E+03  0.29508756333E+03  0.87672794701E+03  0.13188088229E+04  0.90853922098E+03 0.  0.
         23    2    4    4    0    0 -0.27184739719E+03 -0.12706671182E+03 -0.29275324974E+02  0.31507382946E+03  0.91474131561E+02 0.  0.
         23    2    4    4    0    0  0.30839861735E+02  0.42215427516E+03  0.90600327198E+03  0.10037349934E+04  0.86467792077E+02 0.  0.
          2    1    3    3  502    0  0.24586929176E+03 -0.29430658151E+03  0.30759395221E+03  0.49161174923E+03  0.00000000000E+00 0. -1.
         -1    1    3    3    0  502 -0.48617563055E+01 -0.78098182832E+00  0.82362287562E+00  0.49924905239E+01  0.00000000000E+00 0.  1.
         13    1    5    5    0    0 -0.13375528619E+03 -0.39023133312E+02  0.26960860415E+02  0.14191606502E+03  0.00000000000E+00 0. -1.
        -13    1    5    5    0    0 -0.13809211101E+03 -0.88043578513E+02 -0.56236185389E+02  0.17315776444E+03  0.00000000000E+00 0.  1.
          4    1    6    6  503    0  0.30351417324E+02  0.41977917640E+02  0.11331792136E+03  0.12459657060E+03  0.00000000000E+00 0. -1.
         -4    1    6    6    0  503  0.48844441124E+00  0.38017635752E+03  0.79268535062E+03  0.87913842282E+03  0.00000000000E+00 0.  1.
<mgrwt>
<rscale>  0 0.13751926E+04</rscale>
<asrwt>0</asrwt>
<pdfrwt beam="1">  1        2 0.23081219E+00 0.13751926E+04</pdfrwt>
<pdfrwt beam="2">  1       -1 0.48482119E-01 0.13751926E+04</pdfrwt>
<totfact> 0.59994734E+01</totfact>
</mgrwt>
</event>
<event>
12    7  0.1637954E-007  0.1170440E+04  0.7818608E-02  0.9139131E-01
         -1   -1    0    0    0  501 -0.00000000000E+00  0.00000000000E+00  0.65911220271E+03  0.65911220271E+03  0.00000000000E+00 0.  1.
          2   -1    0    0  501    0  0.00000000000E+00 -0.00000000000E+00 -0.51961156965E+03  0.51961156965E+03  0.00000000000E+00 0. -1.
         24    2    1    2    0    0  0.17406705293E+03 -0.72623072793E+01 -0.13131644325E+03  0.23264436038E+03  0.80791770170E+02 0.  0.
        254    2    1    2    0    0 -0.17406705293E+03  0.72623072793E+01  0.27081707631E+03  0.94607941198E+03  0.88959107736E+03 0.  0.
         23    2    4    4    0    0 -0.82919473810E+02 -0.13336453062E+03  0.56591919057E+03  0.59434179065E+03  0.91191538510E+02 0.  0.
         23    2    4    4    0    0 -0.91147579116E+02  0.14062683790E+03 -0.29510211426E+03  0.35173762133E+03  0.92467873890E+02 0.  0.
          2    1    3    3  502    0  0.16677611565E+03  0.15784275906E+02 -0.10993403970E+03  0.20037192718E+03  0.00000000000E+00 0. -1.
         -1    1    3    3    0  502  0.72909372719E+01 -0.23046583185E+02 -0.21382403547E+02  0.32272433194E+02  0.00000000000E+00 0.  1.
         13    1    5    5    0    0 -0.88768629670E+02 -0.14266050583E+03  0.49904611802E+03  0.52657280356E+03  0.00000000000E+00 0. -1.
        -13    1    5    5    0    0  0.58491558601E+01  0.92959752090E+01  0.66873072553E+02  0.67768987096E+02  0.00000000000E+00 0.  1.
          3    1    6    6  503    0 -0.83623208211E+02  0.11299800167E+03 -0.29051312553E+03  0.32273714605E+03  0.00000000000E+00 0. -1.
         -3    1    6    6    0  503 -0.75243709046E+01  0.27628836229E+02 -0.45889887253E+01  0.29000475279E+02  0.00000000000E+00 0.  1.
<mgrwt>
<rscale>  0 0.11704398E+04</rscale>
<asrwt>0</asrwt>
<pdfrwt beam="1">  1        2 0.79940241E-01 0.11704398E+04</pdfrwt>
<pdfrwt beam="2">  1       -1 0.10140188E+00 0.11704398E+04</pdfrwt>
<totfact> 0.61464630E+01</totfact>
</mgrwt>
</event>
<event>
12    7  0.1637954E-007  0.1319058E+04  0.7818608E-02  0.9014587E-01
          2   -1    0    0  501    0  0.00000000000E+00  0.00000000000E+00  0.11131968958E+04  0.11131968958E+04  0.00000000000E+00 0. -1.
         -1   -1    0    0    0  501 -0.00000000000E+00 -0.00000000000E+00 -0.39074692096E+03  0.39074692096E+03  0.00000000000E+00 0.  1.
         24    2    1    2    0    0 -0.22194142507E+03  0.20356619033E+03  0.39949737094E+03  0.50514522571E+03  0.69830936281E+02 0.  0.
        254    2    1    2    0    0  0.22194142507E+03 -0.20356619033E+03  0.32295260390E+03  0.99879859105E+03  0.89588115903E+03 0.  0.
         23    2    4    4    0    0 -0.26216798147E+03  0.17021348608E+03  0.12188754460E+03  0.34844554374E+03  0.94090605645E+02 0.  0.
         23    2    4    4    0    0  0.48410940654E+03 -0.37377967641E+03  0.20106505930E+03  0.65035304731E+03  0.91971539534E+02 0.  0.
          2    1    3    3  502    0 -0.21032173994E+03  0.17019510389E+03  0.37385322123E+03  0.46148438620E+03  0.00000000000E+00 0. -1.
         -1    1    3    3    0  502 -0.11619685133E+02  0.33371086438E+02  0.25644149708E+02  0.43660839512E+02  0.00000000000E+00 0.  1.
         13    1    5    5    0    0 -0.17302626478E+03  0.58795891804E+02  0.81921102450E+02  0.20026510486E+03  0.00000000000E+00 0.  1.
        -13    1    5    5    0    0 -0.89141716687E+02  0.11141759428E+03  0.39966442154E+02  0.14818043888E+03  0.00000000000E+00 0. -1.
          2    1    6    6  503    0  0.79956435475E+02 -0.61454187548E+02  0.70849770218E+02  0.12324503512E+03  0.00000000000E+00 0. -1.
         -2    1    6    6    0  503  0.40415297106E+03 -0.31232548887E+03  0.13021528908E+03  0.52710801220E+03  0.00000000000E+00 0.  1.
<mgrwt>
<rscale>  0 0.13190576E+04</rscale>
<asrwt>0</asrwt>
<pdfrwt beam="1">  1        2 0.17126106E+00 0.13190576E+04</pdfrwt>
<pdfrwt beam="2">  1       -1 0.60114911E-01 0.13190576E+04</pdfrwt>
<totfact> 0.66973277E+01</totfact>
</mgrwt>
</event>
<event>
12    7  0.1637954E-007  0.1635141E+04  0.7818608E-02  0.8799246E-01
          2   -1    0    0  501    0  0.00000000000E+00  0.00000000000E+00  0.98451648266E+03  0.98451648266E+03  0.00000000000E+00 0. -1.
         -1   -1    0    0    0  501 -0.00000000000E+00 -0.00000000000E+00 -0.67893391631E+03  0.67893391631E+03  0.00000000000E+00 0.  1.
         24    2    1    2    0    0  0.13222410232E+02 -0.39815392500E+03 -0.30052555820E+03  0.50541383519E+03  0.80163292981E+02 0.  0.
        254    2    1    2    0    0 -0.13222410232E+02  0.39815392500E+03  0.60610812455E+03  0.11580365638E+04  0.90276256251E+03 0.  0.
         23    2    4    4    0    0 -0.40657131247E+03  0.38710166657E+03  0.25635221951E+03  0.62392757179E+03  0.91767216406E+02 0.  0.
         23    2    4    4    0    0  0.39334890224E+03  0.11052258431E+02  0.34975590505E+03  0.53410899199E+03  0.89987281906E+02 0.  0.
          2    1    3    3  502    0 -0.31895334265E+02 -0.17683889647E+03 -0.11748021871E+03  0.21468793501E+03  0.00000000000E+00 0. -1.
         -1    1    3    3    0  502  0.45117744498E+02 -0.22131502853E+03 -0.18304533950E+03  0.29072590018E+03  0.00000000000E+00 0.  1.
         13    1    5    5    0    0 -0.35023789964E+03  0.29928835361E+03  0.23602306210E+03  0.51763596358E+03  0.00000000000E+00 0. -1.
        -13    1    5    5    0    0 -0.56333412826E+02  0.87813312959E+02  0.20329157407E+02  0.10629160820E+03  0.00000000000E+00 0.  1.
          3    1    6    6  503    0  0.39725726306E+03  0.15081393146E+02  0.34765840216E+03  0.52811660272E+03  0.00000000000E+00 0. -1.
         -3    1    6    6    0  503 -0.39083608228E+01 -0.40291347151E+01  0.20975028877E+01  0.59923892762E+01  0.00000000000E+00 0.  1.
<mgrwt>
<rscale>  0 0.16351411E+04</rscale>
<asrwt>0</asrwt>
<pdfrwt beam="1">  1        2 0.15146407E+00 0.16351411E+04</pdfrwt>
<pdfrwt beam="2">  1       -1 0.10445137E+00 0.16351411E+04</pdfrwt>
<totfact> 0.24244193E+01</totfact>
</mgrwt>
</event>
<event>
12    7  0.1637954E-007  0.1588195E+04  0.7818608E-02  0.8827833E-01
         -1   -1    0    0    0  501 -0.00000000000E+00  0.00000000000E+00  0.25646314647E+03  0.25646314647E+03  0.00000000000E+00 0.  1.
          2   -1    0    0  501    0  0.00000000000E+00 -0.00000000000E+00 -0.24587964192E+04  0.24587964192E+04  0.00000000000E+00 0. -1.
         24    2    1    2    0    0  0.89896150724E+02  0.48409625405E+03 -0.10871618588E+04  0.11974314226E+04  0.97419728609E+02 0.  0.
        254    2    1    2    0    0 -0.89896150724E+02 -0.48409625405E+03 -0.11151714139E+04  0.15178281430E+04  0.90430331653E+03 0.  0.
         23    2    4    4    0    0 -0.25120129186E+03  0.14937607206E+03 -0.62368930620E+03  0.69475189217E+03  0.90975497054E+02 0.  0.
         23    2    4    4    0    0  0.16130514113E+03 -0.63347232611E+03 -0.49148210773E+03  0.82307625088E+03  0.92700140502E+02 0.  0.
          4    1    3    3  502    0  0.10216772205E+03  0.45236243688E+03 -0.96551301570E+03  0.10711140935E+04  0.00000000000E+00 0. -1.
         -3    1    3    3    0  502 -0.12271571327E+02  0.31733817171E+02 -0.12164884311E+03  0.12631732915E+03  0.00000000000E+00 0.  1.
         13    1    5    5    0    0 -0.58225021635E+02 -0.15407330469E+01 -0.16094881781E+03  0.17116380738E+03  0.00000000000E+00 0.  1.
        -13    1    5    5    0    0 -0.19297627022E+03  0.15091680511E+03 -0.46274048839E+03  0.52358808478E+03  0.00000000000E+00 0. -1.
          1    1    6    6  503    0  0.13538931469E+03 -0.60656870445E+03 -0.47508821700E+03  0.78228170993E+03  0.00000000000E+00 0. -1.
         -1    1    6    6    0  503  0.25915826446E+02 -0.26903621659E+02 -0.16393890722E+02  0.40794540955E+02  0.00000000000E+00 0.  1.
<mgrwt>
<rscale>  0 0.15881948E+04</rscale>
<asrwt>0</asrwt>
<pdfrwt beam="1">  1        2 0.37827637E+00 0.15881948E+04</pdfrwt>
<pdfrwt beam="2">  1       -1 0.39455869E-01 0.15881948E+04</pdfrwt>
<totfact> 0.25155575E+01</totfact>
</mgrwt>
</event>
<event>
12    7  0.1637954E-007  0.4946194E+04  0.7818608E-02  0.7836861E-01
          2   -1    0    0  501    0  0.00000000000E+00  0.00000000000E+00  0.30933223057E+04  0.30933223057E+04  0.00000000000E+00 0. -1.
         -1   -1    0    0    0  501 -0.00000000000E+00 -0.00000000000E+00 -0.19772298484E+04  0.19772298484E+04  0.00000000000E+00 0.  1.
         24    2    1    2    0    0  0.15088293547E+04 -0.17316446793E+04 -0.14779777194E+03  0.23029358972E+04  0.80686107911E+02 0.  0.
        254    2    1    2    0    0 -0.15088293547E+04  0.17316446793E+04  0.12638902292E+04  0.27676162570E+04  0.88719891648E+03 0.  0.
         23    2    4    4    0    0 -0.10838499347E+04  0.12556645630E+04  0.13183742391E+04  0.21205931572E+04  0.85910000380E+02 0.  0.
         23    2    4    4    0    0 -0.42497942005E+03  0.47598011626E+03 -0.54484009885E+02  0.64702309981E+03  0.92226925630E+02 0.  0.
          4    1    3    3  502    0  0.18040228328E+03 -0.22924196797E+03  0.38028975246E+01  0.29173845430E+03  0.00000000000E+00 0. -1.
         -3    1    3    3    0  502  0.13284270715E+04 -0.15024027113E+04 -0.15160066946E+03  0.20111974429E+04  0.00000000000E+00 0.  1.
         13    1    5    5    0    0  0.95268127779E+00  0.20899890988E+01 -0.28385346709E+00  0.23143527909E+01  0.00000000000E+00 0. -1.
        -13    1    5    5    0    0 -0.10848026159E+04  0.12535745739E+04  0.13186580926E+04  0.21182788044E+04  0.00000000000E+00 0.  1.
          2    1    6    6  503    0 -0.29739245429E+03  0.37336632677E+03 -0.70504408975E+02  0.48250964500E+03  0.00000000000E+00 0.  1.
         -2    1    6    6    0  503 -0.12758696576E+03  0.10261378949E+03  0.16020399090E+02  0.16451345481E+03  0.00000000000E+00 0. -1.
<mgrwt>
<rscale>  0 0.49461942E+04</rscale>
<asrwt>0</asrwt>
<pdfrwt beam="1">  1        2 0.47589574E+00 0.49461942E+04</pdfrwt>
<pdfrwt beam="2">  1       -1 0.30418921E+00 0.49461942E+04</pdfrwt>
<totfact> 0.39143286E-02</totfact>
</mgrwt>
</event>
<event>
12    7  0.1637954E-007  0.1824686E+04  0.7818608E-02  0.8693281E-01
          2   -1    0    0  501    0  0.00000000000E+00  0.00000000000E+00  0.19144999452E+04  0.19144999452E+04  0.00000000000E+00 0. -1.
         -1   -1    0    0    0  501 -0.00000000000E+00 -0.00000000000E+00 -0.43477117876E+03  0.43477117876E+03  0.00000000000E+00 0.  1.
         24    2    1    2    0    0  0.34444563267E+03 -0.58265512774E+03  0.42026087562E+03  0.80084332883E+03  0.81246796846E+02 0.  0.
        254    2    1    2    0    0 -0.34444563267E+03  0.58265512774E+03  0.10594678908E+04  0.15484277951E+04  0.90389525573E+03 0.  0.
         23    2    4    4    0    0  0.96851817734E+02  0.49347117380E+03  0.94604613100E+03  0.10753289484E+04  0.91842208305E+02 0.  0.
         23    2    4    4    0    0 -0.44129745041E+03  0.89183953948E+02  0.11342175982E+03  0.47309884678E+03  0.90888975413E+02 0.  0.
          2    1    3    3  502    0  0.15907378231E+03 -0.23830846207E+03  0.22151813261E+03  0.36216801955E+03  0.00000000000E+00 0. -1.
         -1    1    3    3    0  502  0.18537185036E+03 -0.34434666567E+03  0.19874274301E+03  0.43867530928E+03  0.00000000000E+00 0.  1.
         13    1    5    5    0    0  0.83856211599E+02  0.49082105457E+03  0.92241861697E+03  0.10482334076E+04  0.00000000000E+00 0. -1.
        -13    1    5    5    0    0  0.12995606135E+02  0.26501192262E+01  0.23627514031E+02  0.27095540777E+02  0.00000000000E+00 0.  1.
          3    1    6    6  503    0 -0.43405111371E+03  0.74868091936E+02  0.11875747208E+03  0.45618958524E+03  0.00000000000E+00 0. -1.
         -3    1    6    6    0  503 -0.72463366930E+01  0.14315862012E+02 -0.53357122642E+01  0.16909261545E+02  0.00000000000E+00 0.  1.
<mgrwt>
<rscale>  0 0.18246856E+04</rscale>
<asrwt>0</asrwt>
<pdfrwt beam="1">  1        2 0.29453845E+00 0.18246856E+04</pdfrwt>
<pdfrwt beam="2">  1       -1 0.66887875E-01 0.18246856E+04</pdfrwt>
<totfact> 0.18110751E+01</totfact>
</mgrwt>
</event>
<event>
12    7  0.1637954E-007  0.1751883E+04  0.7818608E-02  0.8732314E-01
          2   -1    0    0  501    0  0.00000000000E+00  0.00000000000E+00  0.81259601537E+03  0.81259601537E+03  0.00000000000E+00 0. -1.
         -1   -1    0    0    0  501 -0.00000000000E+00 -0.00000000000E+00 -0.94422530525E+03  0.94422530525E+03  0.00000000000E+00 0.  1.
         24    2    1    2    0    0 -0.54368424552E+03 -0.31372027641E+03  0.10158466679E+03  0.64086921174E+03  0.79880732181E+02 0.  0.
        254    2    1    2    0    0  0.54368424552E+03  0.31372027641E+03 -0.23321395667E+03  0.11159521089E+04  0.89271909864E+03 0.  0.
         23    2    4    4    0    0  0.27030991503E+02 -0.26181198140E+03 -0.19091512069E+03  0.33583682071E+03  0.84033319160E+02 0.  0.
         23    2    4    4    0    0  0.51665325401E+03  0.57553225781E+03 -0.42298835984E+02  0.78011528818E+03  0.92858530337E+02 0.  0.
          2    1    3    3  502    0 -0.41307119297E+03 -0.21288293065E+03  0.47024852260E+02  0.46707417971E+03  0.00000000000E+00 0. -1.
         -1    1    3    3    0  502 -0.13061305255E+03 -0.10083734576E+03  0.54559814530E+02  0.17379503202E+03  0.00000000000E+00 0.  1.
         13    1    5    5    0    0  0.13798396573E+02 -0.92745567406E+02 -0.11933313612E+03  0.15176473042E+03  0.00000000000E+00 0.  1.
        -13    1    5    5    0    0  0.13232594929E+02 -0.16906641400E+03 -0.71581984563E+02  0.18407209029E+03  0.00000000000E+00 0. -1.
          2    1    6    6  503    0  0.38187768151E+03  0.47852416935E+03 -0.46690276777E+02  0.61399993993E+03  0.00000000000E+00 0. -1.
         -2    1    6    6    0  503  0.13477557250E+03  0.97008088455E+02  0.43914407924E+01  0.16611534824E+03  0.00000000000E+00 0.  1.
<mgrwt>
<rscale>  0 0.17518832E+04</rscale>
<asrwt>0</asrwt>
<pdfrwt beam="1">  1        2 0.12501477E+00 0.17518832E+04</pdfrwt>
<pdfrwt beam="2">  1       -1 0.14526543E+00 0.17518832E+04</pdfrwt>
<totfact> 0.13876654E+01</totfact>
</mgrwt>
</event>
<event>
12    7  0.1637954E-007  0.2023671E+04  0.7818608E-02  0.8595633E-01
          2   -1    0    0  501    0  0.00000000000E+00  0.00000000000E+00  0.18400182071E+04  0.18400182071E+04  0.00000000000E+00 0. -1.
         -1   -1    0    0    0  501 -0.00000000000E+00 -0.00000000000E+00 -0.55641348960E+03  0.55641348960E+03  0.00000000000E+00 0.  1.
         24    2    1    2    0    0  0.53250593134E+03 -0.60187700993E+03  0.63805669060E+03  0.10292335195E+04  0.79917427156E+02 0.  0.
        254    2    1    2    0    0 -0.53250593134E+03  0.60187700993E+03  0.64554802693E+03  0.13671981773E+04  0.89815371673E+03 0.  0.
         23    2    4    4    0    0 -0.77523796215E+03  0.44338447452E+03  0.52724707700E+03  0.10410697108E+04  0.90845871614E+02 0.  0.
         23    2    4    4    0    0  0.24273203081E+03  0.15849253541E+03  0.11830094993E+03  0.32612846645E+03  0.91246585207E+02 0.  0.
          2    1    3    3  502    0  0.53037397344E+03 -0.59319574320E+03  0.61883536111E+03  0.10080351907E+04  0.00000000000E+00 0. -1.
         -1    1    3    3    0  502  0.21319579025E+01 -0.86812667361E+01  0.19221329487E+02  0.21198328800E+02  0.00000000000E+00 0.  1.
         13    1    5    5    0    0 -0.55895422010E+03  0.32492406309E+03  0.33361210411E+03  0.72753178828E+03  0.00000000000E+00 0.  1.
        -13    1    5    5    0    0 -0.21628374205E+03  0.11846041144E+03  0.19363497289E+03  0.31353792255E+03  0.00000000000E+00 0. -1.
          2    1    6    6  503    0  0.61953605031E+02  0.63713393040E+02 -0.25733553535E+01  0.88905949108E+02  0.00000000000E+00 0. -1.
         -2    1    6    6    0  503  0.18077842578E+03  0.94779142368E+02  0.12087430528E+03  0.23722251734E+03  0.00000000000E+00 0.  1.
<mgrwt>
<rscale>  0 0.20236709E+04</rscale>
<asrwt>0</asrwt>
<pdfrwt beam="1">  1        2 0.28307972E+00 0.20236709E+04</pdfrwt>
<pdfrwt beam="2">  1       -1 0.85602076E-01 0.20236709E+04</pdfrwt>
<totfact> 0.11670840E+01</totfact>
</mgrwt>
</event>
<event>
12    7  0.1637954E-007  0.3202108E+04  0.7818608E-02  0.8188261E-01
          2   -1    0    0  501    0  0.00000000000E+00  0.00000000000E+00  0.12755806983E+04  0.12755806983E+04  0.00000000000E+00 0. -1.
         -1   -1    0    0    0  501 -0.00000000000E+00 -0.00000000000E+00 -0.20095738219E+04  0.20095738219E+04  0.00000000000E+00 0.  1.
         24    2    1    2    0    0 -0.78135832599E+03  0.95484946571E+03 -0.11630645187E+04  0.16973272825E+04  0.77087570639E+02 0.  0.
        254    2    1    2    0    0  0.78135832599E+03 -0.95484946571E+03  0.42907139501E+03  0.15878272377E+04  0.90268196999E+03 0.  0.
         23    2    4    4    0    0  0.61340798878E+03 -0.45183836686E+03  0.65030251758E+03  0.10059056084E+04  0.92333407246E+02 0.  0.
         23    2    4    4    0    0  0.16795033722E+03 -0.50301109885E+03 -0.22123112257E+03  0.58192162933E+03  0.91989628461E+02 0.  0.
          2    1    3    3  502    0 -0.18469847427E+03  0.19566469810E+03 -0.21924501165E+03  0.34708295206E+03  0.00000000000E+00 0. -1.
         -1    1    3    3    0  502 -0.59665985173E+03  0.75918476761E+03 -0.94381950701E+03  0.13502443304E+04  0.00000000000E+00 0.  1.
         13    1    5    5    0    0  0.41119448571E+03 -0.34473097007E+03  0.42177224614E+03  0.68250434022E+03  0.00000000000E+00 0. -1.
        -13    1    5    5    0    0  0.20221350307E+03 -0.10710739679E+03  0.22853027144E+03  0.32340126814E+03  0.00000000000E+00 0.  1.
          3    1    6    6  503    0  0.16202163315E+03 -0.49473385582E+03 -0.19874197199E+03  0.55723511118E+03  0.00000000000E+00 0. -1.
         -3    1    6    6    0  503  0.59287040644E+01 -0.82772430321E+01 -0.22489150586E+02  0.24686518146E+02  0.00000000000E+00 0.  1.
<mgrwt>
<rscale>  0 0.32021078E+04</rscale>
<asrwt>0</asrwt>
<pdfrwt beam="1">  1        2 0.19624318E+00 0.32021078E+04</pdfrwt>
<pdfrwt beam="2">  1       -1 0.30916520E+00 0.32021078E+04</pdfrwt>
<totfact> 0.47167002E-01</totfact>
</mgrwt>
</event>
<event>
12    7  0.1637954E-007  0.1427017E+04  0.7818608E-02  0.8934491E-01
         -1   -1    0    0    0  501 -0.00000000000E+00  0.00000000000E+00  0.95102260233E+03  0.95102260233E+03  0.00000000000E+00 0.  1.
          2   -1    0    0  501    0  0.00000000000E+00 -0.00000000000E+00 -0.53531295668E+03  0.53531295668E+03  0.00000000000E+00 0. -1.
         24    2    1    2    0    0  0.73557028497E+02  0.36980328963E+03  0.33565886447E+03  0.51146651112E+03  0.82255755034E+02 0.  0.
        254    2    1    2    0    0 -0.73557028497E+02 -0.36980328963E+03  0.80050781188E+02  0.97486904789E+03  0.89543085914E+03 0.  0.
         23    2    4    4    0    0  0.10036929581E+03 -0.42249442720E+03  0.39923949684E+03  0.59683091651E+03  0.90771308824E+02 0.  0.
         23    2    4    4    0    0 -0.17392632430E+03  0.52691137568E+02 -0.31918871565E+03  0.37803813138E+03  0.89468823150E+02 0.  0.
          2    1    3    3  502    0  0.89439760845E+01  0.35203208796E+02  0.71838758402E+02  0.80498868479E+02  0.00000000000E+00 0. -1.
         -3    1    3    3    0  502  0.64613052412E+02  0.33460008084E+03  0.26382010607E+03  0.43096764264E+03  0.00000000000E+00 0.  1.
         13    1    5    5    0    0  0.46635420758E+02 -0.87514010345E+02  0.54504981389E+02  0.11315634084E+03  0.00000000000E+00 0.  1.
        -13    1    5    5    0    0  0.53733875049E+02 -0.33498041686E+03  0.34473451545E+03  0.48367457567E+03  0.00000000000E+00 0. -1.
          2    1    6    6  503    0 -0.15747514735E+03  0.13407772901E+02 -0.22831561448E+03  0.27768005009E+03  0.00000000000E+00 0. -1.
         -2    1    6    6    0  503 -0.16451176957E+02  0.39283364667E+02 -0.90873101174E+02  0.10035808129E+03  0.00000000000E+00 0.  1.
<mgrwt>
<rscale>  0 0.14270175E+04</rscale>
<asrwt>0</asrwt>
<pdfrwt beam="1">  1        2 0.82355840E-01 0.14270175E+04</pdfrwt>
<pdfrwt beam="2">  1       -1 0.14631117E+00 0.14270175E+04</pdfrwt>
<totfact> 0.23549178E+01</totfact>
</mgrwt>
</event>
<event>
12    7  0.1637954E-007  0.1888009E+04  0.7818608E-02  0.8660848E-01
          2   -1    0    0  501    0  0.00000000000E+00  0.00000000000E+00  0.16778045172E+04  0.16778045172E+04  0.00000000000E+00 0. -1.
         -1   -1    0    0    0  501 -0.00000000000E+00 -0.00000000000E+00 -0.53113727567E+03  0.53113727567E+03  0.00000000000E+00 0.  1.
         24    2    1    2    0    0 -0.27410654827E+03 -0.74758736271E+02 -0.33695568077E+03  0.44803500907E+03  0.80454770479E+02 0.  0.
        254    2    1    2    0    0  0.27410654827E+03  0.74758736271E+02  0.14836229223E+04  0.17609067838E+04  0.90494886996E+03 0.  0.
         23    2    4    4    0    0 -0.66644759814E+02 -0.30261149214E+03  0.10077757978E+04  0.10581110811E+04  0.89284725639E+02 0.  0.
         23    2    4    4    0    0  0.34075130809E+03  0.37737022841E+03  0.47584712454E+03  0.70279570270E+03  0.94718374904E+02 0.  0.
          2    1    3    3  502    0 -0.48837064335E+02  0.17116758538E+02 -0.66384452864E+02  0.84172072909E+02  0.00000000000E+00 0. -1.
         -1    1    3    3    0  502 -0.22526948394E+03 -0.91875494809E+02 -0.27057122790E+03  0.36386293616E+03  0.00000000000E+00 0.  1.
         13    1    5    5    0    0 -0.85626677129E+02 -0.27039813321E+03  0.91927235322E+03  0.96203364685E+03  0.00000000000E+00 0.  1.
        -13    1    5    5    0    0  0.18981917314E+02 -0.32213358933E+02  0.88503444559E+02  0.96077434279E+02  0.00000000000E+00 0. -1.
          2    1    6    6  503    0  0.29045717471E+02  0.85016650386E+02  0.82217751974E+02  0.12178359202E+03  0.00000000000E+00 0. -1.
         -2    1    6    6    0  503  0.31170559062E+03  0.29235357802E+03  0.39362937256E+03  0.58101211067E+03  0.00000000000E+00 0.  1.
<mgrwt>
<rscale>  0 0.18880090E+04</rscale>
<asrwt>0</asrwt>
<pdfrwt beam="1">  1        2 0.25812377E+00 0.18880090E+04</pdfrwt>
<pdfrwt beam="2">  1       -1 0.81713428E-01 0.18880090E+04</pdfrwt>
<totfact> 0.16061585E+01</totfact>
</mgrwt>
</event>
<event>
12    7  0.1637954E-007  0.1703145E+04  0.7818608E-02  0.8759573E-01
          2   -1    0    0  501    0  0.00000000000E+00  0.00000000000E+00  0.17130518005E+04  0.17130518005E+04  0.00000000000E+00 0. -1.
         -1   -1    0    0    0  501 -0.00000000000E+00 -0.00000000000E+00 -0.42332382159E+03  0.42332382159E+03  0.00000000000E+00 0.  1.
         24    2    1    2    0    0 -0.24321818801E+03 -0.54639632492E+03  0.30309048474E+03  0.67489113781E+03  0.76877663059E+02 0.  0.
        254    2    1    2    0    0  0.24321818801E+03  0.54639632492E+03  0.98663749420E+03  0.14614844843E+04  0.89709493483E+03 0.  0.
         23    2    4    4    0    0  0.20652292759E+03  0.47166985610E+03  0.11462515431E+04  0.12599944251E+04  0.92569858127E+02 0.  0.
         23    2    4    4    0    0  0.36695260422E+02  0.74726468820E+02 -0.15961404886E+03  0.20149005918E+03  0.90504210267E+02 0.  0.
          2    1    3    3  502    0 -0.10437884178E+03 -0.26986710522E+03  0.18640363615E+03  0.34419400439E+03  0.00000000000E+00 0. -1.
         -1    1    3    3    0  502 -0.13883934623E+03 -0.27652921971E+03  0.11668684859E+03  0.33069713342E+03  0.00000000000E+00 0.  1.
         13    1    5    5    0    0  0.14256526815E+03  0.30421875423E+03  0.63788191239E+03  0.72094884719E+03  0.00000000000E+00 0.  1.
        -13    1    5    5    0    0  0.63957659437E+02  0.16745110188E+03  0.50836963067E+03  0.53904557795E+03  0.00000000000E+00 0. -1.
          2    1    6    6  503    0  0.12240274585E+02  0.58144581293E+02 -0.16129912094E+03  0.17189538409E+03  0.00000000000E+00 0. -1.
         -2    1    6    6    0  503  0.24454985838E+02  0.16581887526E+02  0.16850720728E+01  0.29594675098E+02  0.00000000000E+00 0.  1.
<mgrwt>
<rscale>  0 0.17031449E+04</rscale>
<asrwt>0</asrwt>
<pdfrwt beam="1">  1        2 0.26354643E+00 0.17031449E+04</pdfrwt>
<pdfrwt beam="2">  1       -1 0.65126743E-01 0.17031449E+04</pdfrwt>
<totfact> 0.24980520E+01</totfact>
</mgrwt>
</event>
<event>
12    7  0.1637954E-007  0.2364590E+04  0.7818608E-02  0.8452881E-01
          2   -1    0    0  501    0  0.00000000000E+00  0.00000000000E+00  0.22873249272E+04  0.22873249272E+04  0.00000000000E+00 0. -1.
         -1   -1    0    0    0  501 -0.00000000000E+00 -0.00000000000E+00 -0.61111608051E+03  0.61111608051E+03  0.00000000000E+00 0.  1.
         24    2    1    2    0    0 -0.42054272987E+03 -0.76810140527E+03  0.10455412155E+03  0.88553639772E+03  0.80044930721E+02 0.  0.
        254    2    1    2    0    0  0.42054272987E+03  0.76810140527E+03  0.15716547251E+04  0.20129046100E+04  0.90269066539E+03 0.  0.
         23    2    4    4    0    0  0.14076455516E+03  0.89629807543E+03  0.97376293673E+03  0.13342740778E+04  0.94383037502E+02 0.  0.
         23    2    4    4    0    0  0.27977817471E+03 -0.12819667016E+03  0.59789178839E+03  0.67863053214E+03  0.91403475066E+02 0.  0.
          4    1    3    3  502    0 -0.11803997387E+03 -0.27002144081E+03  0.62695463437E+02  0.30129011776E+03  0.00000000000E+00 0. -1.
         -3    1    3    3    0  502 -0.30250275599E+03 -0.49807996446E+03  0.41858658110E+02  0.58424627995E+03  0.00000000000E+00 0.  1.
         13    1    5    5    0    0  0.17199170104E+02  0.48391202891E+02  0.87945938890E+02  0.10184305640E+03  0.00000000000E+00 0. -1.
        -13    1    5    5    0    0  0.12356538505E+03  0.84790687254E+03  0.88581699784E+03  0.12324310214E+04  0.00000000000E+00 0.  1.
          4    1    6    6  503    0  0.64096476410E+02 -0.56160406551E+02  0.10079335390E+03  0.13199109721E+03  0.00000000000E+00 0. -1.
         -4    1    6    6    0  503  0.21568169830E+03 -0.72036263608E+02  0.49709843449E+03  0.54663943494E+03  0.00000000000E+00 0.  1.
<mgrwt>
<rscale>  0 0.23645896E+04</rscale>
<asrwt>0</asrwt>
<pdfrwt beam="1">  1        2 0.35189614E+00 0.23645896E+04</pdfrwt>
<pdfrwt beam="2">  1       -1 0.94017860E-01 0.23645896E+04</pdfrwt>
<totfact> 0.51829676E+00</totfact>
</mgrwt>
</event>
<event>
12    7  0.1637954E-007  0.2710101E+04  0.7818608E-02  0.8331735E-01
          2   -1    0    0  501    0  0.00000000000E+00  0.00000000000E+00  0.10761680046E+04  0.10761680046E+04  0.00000000000E+00 0. -1.
         -1   -1    0    0    0  501 -0.00000000000E+00 -0.00000000000E+00 -0.17062041104E+04  0.17062041104E+04  0.00000000000E+00 0.  1.
         24    2    1    2    0    0 -0.23863138519E+02 -0.11995365385E+04 -0.44251031752E+03  0.12812894017E+04  0.80185990621E+02 0.  0.
        254    2    1    2    0    0  0.23863138519E+02  0.11995365385E+04 -0.18752578828E+03  0.15010827133E+04  0.88239788882E+03 0.  0.
         23    2    4    4    0    0  0.41600136783E+03  0.86028961440E+03 -0.92312017524E+02  0.96458353807E+03  0.93512216684E+02 0.  0.
         23    2    4    4    0    0 -0.39213822931E+03  0.33924692411E+03 -0.95213770760E+02  0.53649917519E+03  0.99523044730E+02 0.  0.
          4    1    3    3  502    0  0.27913664149E+01 -0.28990787138E+01 -0.60384795795E+01  0.72566948043E+01  0.00000000000E+00 0. -1.
         -1    1    3    3    0  502 -0.26654504934E+02 -0.11966374598E+04 -0.43647183794E+03  0.12740327069E+04  0.00000000000E+00 0.  1.
         13    1    5    5    0    0  0.83693379667E+02  0.10402622637E+03 -0.24588262422E+02  0.13575942038E+03  0.00000000000E+00 0. -1.
        -13    1    5    5    0    0  0.33230798816E+03  0.75626338803E+03 -0.67723755101E+02  0.82882411770E+03  0.00000000000E+00 0.  1.
          2    1    6    6  503    0 -0.26700317799E+03  0.18434838962E+03 -0.92357026855E+02  0.33734973873E+03  0.00000000000E+00 0. -1.
         -2    1    6    6    0  503 -0.12513505133E+03  0.15489853450E+03 -0.28567439042E+01  0.19914943647E+03  0.00000000000E+00 0.  1.
<mgrwt>
<rscale>  0 0.27101013E+04</rscale>
<asrwt>0</asrwt>
<pdfrwt beam="1">  1        2 0.16556431E+00 0.27101013E+04</pdfrwt>
<pdfrwt beam="2">  1       -1 0.26249294E+00 0.27101013E+04</pdfrwt>
<totfact> 0.13016835E+00</totfact>
</mgrwt>
</event>
<event>
12    7  0.1637954E-007  0.1304719E+04  0.7818608E-02  0.9025831E-01
         -1   -1    0    0    0  501 -0.00000000000E+00  0.00000000000E+00  0.13047756727E+04  0.13047756727E+04  0.00000000000E+00 0.  1.
          2   -1    0    0  501    0  0.00000000000E+00 -0.00000000000E+00 -0.32616574185E+03  0.32616574185E+03  0.00000000000E+00 0. -1.
         24    2    1    2    0    0 -0.72551135238E+02 -0.12949084029E+03  0.64116762598E+03  0.66336206911E+03  0.83197146453E+02 0.  0.
        254    2    1    2    0    0  0.72551135238E+02  0.12949084029E+03  0.33744230484E+03  0.96757934541E+03  0.89460099241E+03 0.  0.
         23    2    4    4    0    0  0.45549577790E+03 -0.10935779059E+02  0.28690586498E+03  0.54616589612E+03  0.91576283973E+02 0.  0.
         23    2    4    4    0    0 -0.38294464266E+03  0.14042661935E+03  0.50536439864E+02  0.42141344929E+03  0.93108156049E+02 0.  0.
          2    1    3    3  502    0 -0.12337526648E+02  0.10323320263E+02  0.37672206820E+02  0.40963162375E+02  0.00000000000E+00 0. -1.
         -3    1    3    3    0  502 -0.60213608590E+02 -0.13981416056E+03  0.60349541916E+03  0.62239890673E+03  0.00000000000E+00 0.  1.
         13    1    5    5    0    0  0.29639390000E+03  0.78634252967E+01  0.23312362711E+03  0.37717078748E+03  0.00000000000E+00 0. -1.
        -13    1    5    5    0    0  0.15910187790E+03 -0.18799204356E+02  0.53782237869E+02  0.16899510864E+03  0.00000000000E+00 0.  1.
          2    1    6    6  503    0 -0.36858026121E+03  0.15221846501E+03  0.54288888698E+02  0.40245391473E+03  0.00000000000E+00 0. -1.
         -2    1    6    6    0  503 -0.14364381447E+02 -0.11791845659E+02 -0.37524488344E+01  0.18959534558E+02  0.00000000000E+00 0.  1.
<mgrwt>
<rscale>  0 0.13047193E+04</rscale>
<asrwt>0</asrwt>
<pdfrwt beam="1">  1        2 0.50179346E-01 0.13047193E+04</pdfrwt>
<pdfrwt beam="2">  1       -1 0.20073472E+00 0.13047193E+04</pdfrwt>
<totfact> 0.16694155E+01</totfact>
</mgrwt>
</event>
<event>
12    7  0.1637954E-007  0.3462306E+04  0.7818608E-02  0.8122781E-01
         -1   -1    0    0    0  501 -0.00000000000E+00  0.00000000000E+00  0.10746049417E+04  0.10746049417E+04  0.00000000000E+00 0.  1.
          2   -1    0    0  501    0  0.00000000000E+00 -0.00000000000E+00 -0.27888307321E+04  0.27888307321E+04  0.00000000000E+00 0. -1.
         24    2    1    2    0    0 -0.99612341935E+03 -0.10090788896E+04  0.72000948172E+01  0.14202223324E+04  0.80483290179E+02 0.  0.
        254    2    1    2    0    0  0.99612341935E+03  0.10090788896E+04 -0.17214258853E+04  0.24432133414E+04  0.99773858357E+03 0.  0.
         23    2    4    4    0    0  0.10045078425E+04  0.89298572733E+03 -0.92708822319E+03  0.16353216476E+04  0.91240357015E+02 0.  0.
         23    2    4    4    0    0 -0.83844231727E+01  0.11609316228E+03 -0.79433766209E+03  0.80789169379E+03  0.90381118543E+02 0.  0.
          2    1    3    3  502    0 -0.53405859325E+03 -0.56864559032E+03 -0.31058088016E+02  0.78073106333E+03  0.00000000000E+00 0. -1.
         -1    1    3    3    0  502 -0.46206482611E+03 -0.44043329929E+03  0.38258182833E+02  0.63949126906E+03  0.00000000000E+00 0.  1.
         13    1    5    5    0    0  0.47117250120E+03  0.36505284494E+03 -0.38508220725E+03  0.70961638357E+03  0.00000000000E+00 0. -1.
        -13    1    5    5    0    0  0.53333534133E+03  0.52793288239E+03 -0.54200601595E+03  0.92570526407E+03  0.00000000000E+00 0.  1.
          1    1    6    6  503    0  0.24596982893E+02  0.10544297517E+03 -0.67479253027E+03  0.68342387395E+03  0.00000000000E+00 0. -1.
         -1    1    6    6    0  503 -0.32981406066E+02  0.10650187113E+02 -0.11954513182E+03  0.12446781983E+03  0.00000000000E+00 0.  1.
<mgrwt>
<rscale>  0 0.34623063E+04</rscale>
<asrwt>0</asrwt>
<pdfrwt beam="1">  1        2 0.42905088E+00 0.34623063E+04</pdfrwt>
<pdfrwt beam="2">  1       -1 0.16532384E+00 0.34623063E+04</pdfrwt>
<totfact> 0.58578631E-01</totfact>
</mgrwt>
</event>
<event>
12    7  0.1637954E-007  0.1768921E+04  0.7818608E-02  0.8723004E-01
          2   -1    0    0  501    0  0.00000000000E+00  0.00000000000E+00  0.28647917952E+04  0.28647917952E+04  0.00000000000E+00 0. -1.
         -1   -1    0    0    0  501 -0.00000000000E+00 -0.00000000000E+00 -0.27306350478E+03  0.27306350478E+03  0.00000000000E+00 0.  1.
         24    2    1    2    0    0  0.15006011968E+03  0.45248831099E+03  0.17547687315E+04  0.18201368399E+04  0.80131791150E+02 0.  0.
        254    2    1    2    0    0 -0.15006011968E+03 -0.45248831099E+03  0.83695955896E+03  0.13177184601E+04  0.89923129706E+03 0.  0.
         23    2    4    4    0    0 -0.14715753102E+03  0.23986399879E+03  0.38676419251E+03  0.48679140648E+03  0.90494507884E+02 0.  0.
         23    2    4    4    0    0 -0.29025886577E+01 -0.69235230978E+03  0.45019536644E+03  0.83092705360E+03  0.91671994405E+02 0.  0.
          2    1    3    3  502    0  0.11589856638E+03  0.38972623656E+03  0.15762944884E+04  0.16278892258E+04  0.00000000000E+00 0. -1.
         -1    1    3    3    0  502  0.34161553294E+02  0.62762074433E+02  0.17847424304E+03  0.19224761413E+03  0.00000000000E+00 0.  1.
         13    1    5    5    0    0 -0.12070161219E+03  0.11248696178E+03  0.20193840850E+03  0.26077062063E+03  0.00000000000E+00 0. -1.
        -13    1    5    5    0    0 -0.26455918829E+02  0.12737703701E+03  0.18482578401E+03  0.22602078585E+03  0.00000000000E+00 0.  1.
          1    1    6    6  503    0  0.40055086415E+02 -0.46485538173E+03  0.28924841481E+03  0.54896227680E+03  0.00000000000E+00 0. -1.
         -1    1    6    6    0  503 -0.42957675072E+02 -0.22749692805E+03  0.16094695163E+03  0.28196477680E+03  0.00000000000E+00 0.  1.
<mgrwt>
<rscale>  0 0.17689207E+04</rscale>
<asrwt>0</asrwt>
<pdfrwt beam="1">  1        2 0.44073718E+00 0.17689207E+04</pdfrwt>
<pdfrwt beam="2">  1       -1 0.42009772E-01 0.17689207E+04</pdfrwt>
<totfact> 0.12703742E+01</totfact>
</mgrwt>
</event>
<event>
12    7  0.1637954E-007  0.1056117E+04  0.7818608E-02  0.9249052E-01
          2   -1    0    0  501    0  0.00000000000E+00  0.00000000000E+00  0.67087089539E+03  0.67087089539E+03  0.00000000000E+00 0. -1.
         -1   -1    0    0    0  501 -0.00000000000E+00 -0.00000000000E+00 -0.41564711455E+03  0.41564711455E+03  0.00000000000E+00 0.  1.
         24    2    1    2    0    0  0.10566106389E+03  0.55224285239E+02  0.41984060094E+02  0.14698252285E+03  0.75014789333E+02 0.  0.
        254    2    1    2    0    0 -0.10566106389E+03 -0.55224285239E+02  0.21323972075E+03  0.93953548709E+03  0.90721649616E+03 0.  0.
         23    2    4    4    0    0 -0.43223684875E+03 -0.26223194117E+03  0.66196492248E+02  0.51778540618E+03  0.90141371654E+02 0.  0.
         23    2    4    4    0    0  0.32657578486E+03  0.20700765593E+03  0.14704322850E+03  0.42175008091E+03  0.82143209269E+02 0.  0.
          2    1    3    3  502    0  0.49861333348E+02  0.54103055917E+02  0.52242990973E+02  0.90236485574E+02  0.00000000000E+00 0. -1.
         -1    1    3    3    0  502  0.55799730543E+02  0.11212293221E+01 -0.10258930879E+02  0.56746037277E+02  0.00000000000E+00 0.  1.
         13    1    5    5    0    0 -0.22305762199E+03 -0.10259641660E+03  0.67563695412E+02  0.25464795379E+03  0.00000000000E+00 0. -1.
        -13    1    5    5    0    0 -0.20917922675E+03 -0.15963552457E+03 -0.13672031643E+01  0.26313745240E+03  0.00000000000E+00 0.  1.
          1    1    6    6  503    0  0.15054277291E+03  0.80340203184E+02  0.23750576207E+02  0.17228396499E+03  0.00000000000E+00 0. -1.
         -1    1    6    6    0  503  0.17603301194E+03  0.12666745275E+03  0.12329265229E+03  0.24946611592E+03  0.00000000000E+00 0.  1.
<mgrwt>
<rscale>  0 0.10561166E+04</rscale>
<asrwt>0</asrwt>
<pdfrwt beam="1">  1        2 0.10321091E+00 0.10561166E+04</pdfrwt>
<pdfrwt beam="2">  1       -1 0.63945710E-01 0.10561166E+04</pdfrwt>
<totfact> 0.12191940E+02</totfact>
</mgrwt>
</event>
<event>
12    7  0.1637954E-007  0.1435656E+04  0.7818608E-02  0.8928406E-01
          2   -1    0    0  501    0  0.00000000000E+00  0.00000000000E+00  0.14034539473E+04  0.14034539473E+04  0.00000000000E+00 0. -1.
         -1   -1    0    0    0  501 -0.00000000000E+00 -0.00000000000E+00 -0.36714903785E+03  0.36714903785E+03  0.00000000000E+00 0.  1.
         24    2    1    2    0    0  0.43999810086E+03 -0.10078274594E+02  0.36396588473E+03  0.57669883379E+03  0.80065468671E+02 0.  0.
        254    2    1    2    0    0 -0.43999810086E+03  0.10078274594E+02  0.67233902474E+03  0.11939041514E+04  0.88298780179E+03 0.  0.
         23    2    4    4    0    0 -0.14201192822E+03 -0.39723411399E+03  0.13757190497E+03  0.45307008563E+03  0.91564973544E+02 0.  0.
         23    2    4    4    0    0 -0.29798617263E+03  0.40731238858E+03  0.53476711977E+03  0.74083406576E+03  0.90333269736E+02 0.  0.
          2    1    3    3  502    0  0.35368540413E+03  0.71327136655E+01  0.32522871710E+03  0.48053923787E+03  0.00000000000E+00 0. -1.
         -3    1    3    3    0  502  0.86312696726E+02 -0.17210988260E+02  0.38737167624E+02  0.96159595925E+02  0.00000000000E+00 0.  1.
         13    1    5    5    0    0 -0.88028752642E+02 -0.24501655739E+03  0.13095044294E+03  0.29142785246E+03  0.00000000000E+00 0.  1.
        -13    1    5    5    0    0 -0.53983175583E+02 -0.15221755660E+03  0.66214620329E+01  0.16164223316E+03  0.00000000000E+00 0. -1.
          3    1    6    6  503    0 -0.72320932836E+01 -0.45379692263E+01  0.81172690914E+01  0.11780763789E+02  0.00000000000E+00 0. -1.
         -3    1    6    6    0  503 -0.29075407935E+03  0.41185035781E+03  0.52664985068E+03  0.72905330197E+03  0.00000000000E+00 0.  1.
<mgrwt>
<rscale>  0 0.14356556E+04</rscale>
<asrwt>0</asrwt>
<pdfrwt beam="1">  1        2 0.21591599E+00 0.14356556E+04</pdfrwt>
<pdfrwt beam="2">  1       -1 0.56484468E-01 0.14356556E+04</pdfrwt>
<totfact> 0.50551147E+01</totfact>
</mgrwt>
</event>
<event>
12    7  0.1637954E-007  0.2290202E+04  0.7818608E-02  0.8481794E-01
         -1   -1    0    0    0  501 -0.00000000000E+00  0.00000000000E+00  0.70071906559E+03  0.70071906559E+03  0.00000000000E+00 0.  1.
          2   -1    0    0  501    0  0.00000000000E+00 -0.00000000000E+00 -0.18713005703E+04  0.18713005703E+04  0.00000000000E+00 0. -1.
         24    2    1    2    0    0 -0.73905071528E+03 -0.55758107906E+03 -0.79364612741E+03  0.12221305820E+04  0.81463884734E+02 0.  0.
        254    2    1    2    0    0  0.73905071528E+03  0.55758107906E+03 -0.37693537725E+03  0.13498890538E+04  0.90720866370E+03 0.  0.
         23    2    4    4    0    0 -0.19827027776E+03  0.57642993434E+02 -0.11262489664E+03  0.25119778349E+03  0.88216446041E+02 0.  0.
         23    2    4    4    0    0  0.93732099304E+03  0.49993808563E+03 -0.26431048061E+03  0.10986912703E+04  0.93561444331E+02 0.  0.
          4    1    3    3  502    0 -0.61962196689E+03 -0.42814130168E+03 -0.63614011907E+03  0.98585526684E+03  0.00000000000E+00 0. -1.
         -3    1    3    3    0  502 -0.11942874839E+03 -0.12943977738E+03 -0.15750600835E+03  0.23627531521E+03  0.00000000000E+00 0.  1.
         13    1    5    5    0    0 -0.30898356816E+02  0.35927950379E+02  0.15818513272E+01  0.47413377078E+02  0.00000000000E+00 0. -1.
        -13    1    5    5    0    0 -0.16737192094E+03  0.21715043055E+02 -0.11420674797E+03  0.20378440641E+03  0.00000000000E+00 0.  1.
          3    1    6    6  503    0  0.86013701371E+02  0.71779829999E+02 -0.45900389548E+02  0.12106835499E+03  0.00000000000E+00 0. -1.
         -3    1    6    6    0  503  0.85130729167E+03  0.42815825563E+03 -0.21841009106E+03  0.97762291534E+03  0.00000000000E+00 0.  1.
<mgrwt>
<rscale>  0 0.22902017E+04</rscale>
<asrwt>0</asrwt>
<pdfrwt beam="1">  1        2 0.28789239E+00 0.22902017E+04</pdfrwt>
<pdfrwt beam="2">  1       -1 0.10780294E+00 0.22902017E+04</pdfrwt>
<totfact> 0.65117661E+00</totfact>
</mgrwt>
</event>
<event>
12    7  0.1637954E-007  0.1784711E+04  0.7818608E-02  0.8714472E-01
         -1   -1    0    0    0  501 -0.00000000000E+00  0.00000000000E+00  0.87297495503E+03  0.87297495503E+03  0.00000000000E+00 0.  1.
          2   -1    0    0  501    0  0.00000000000E+00 -0.00000000000E+00 -0.91216678119E+03  0.91216678119E+03  0.00000000000E+00 0. -1.
         24    2    1    2    0    0  0.40118273435E+03 -0.36733857298E+02  0.50639658607E+03  0.65182529441E+03  0.78369314405E+02 0.  0.
        254    2    1    2    0    0 -0.40118273435E+03  0.36733857298E+02 -0.54558841223E+03  0.11333164418E+04  0.90798814921E+03 0.  0.
         23    2    4    4    0    0 -0.57043552979E+03  0.30892031633E+03 -0.40661182330E+03  0.77222135497E+03  0.10081761124E+03 0.  0.
         23    2    4    4    0    0  0.16925279544E+03 -0.27218645903E+03 -0.13897658892E+03  0.36109508683E+03  0.91341076309E+02 0.  0.
          2    1    3    3  502    0  0.17197910128E+03  0.36304359895E+01  0.16289036140E+03  0.23690348495E+03  0.00000000000E+00 0. -1.
         -1    1    3    3    0  502  0.22920363307E+03 -0.40364293288E+02  0.34350622467E+03  0.41492180947E+03  0.00000000000E+00 0.  1.
         13    1    5    5    0    0 -0.13629294178E+03  0.10966658727E+03 -0.14730117098E+03  0.22869228521E+03  0.00000000000E+00 0. -1.
        -13    1    5    5    0    0 -0.43414258801E+03  0.19925372906E+03 -0.25931065233E+03  0.54352906976E+03  0.00000000000E+00 0.  1.
          1    1    6    6  503    0  0.47305642398E+02 -0.17678759662E+02 -0.13715773127E+02  0.52330533901E+02  0.00000000000E+00 0. -1.
         -1    1    6    6    0  503  0.12194715305E+03 -0.25450769937E+03 -0.12526081579E+03  0.30876455293E+03  0.00000000000E+00 0.  1.
<mgrwt>
<rscale>  0 0.17847115E+04</rscale>
<asrwt>0</asrwt>
<pdfrwt beam="1">  1        2 0.14033335E+00 0.17847115E+04</pdfrwt>
<pdfrwt beam="2">  1       -1 0.13430384E+00 0.17847115E+04</pdfrwt>
<totfact> 0.14488291E+01</totfact>
</mgrwt>
</event>
<event>
12    7  0.1637954E-007  0.2086455E+04  0.7818608E-02  0.8567234E-01
          2   -1    0    0  501    0  0.00000000000E+00  0.00000000000E+00  0.59521632240E+03  0.59521632240E+03  0.00000000000E+00 0. -1.
         -1   -1    0    0    0  501 -0.00000000000E+00 -0.00000000000E+00 -0.18284504362E+04  0.18284504362E+04  0.00000000000E+00 0.  1.
         24    2    1    2    0    0 -0.35765596512E+03  0.68964473919E+03 -0.11235992200E+03  0.78900892933E+03  0.79891694272E+02 0.  0.
        254    2    1    2    0    0  0.35765596512E+03 -0.68964473919E+03 -0.11208741918E+04  0.16346578292E+04  0.90123227261E+03 0.  0.
         23    2    4    4    0    0  0.55274578473E+03 -0.11491932610E+03 -0.61516095432E+03  0.83966578422E+03  0.88776547683E+02 0.  0.
         23    2    4    4    0    0 -0.19508981960E+03 -0.57472541309E+03 -0.50571323744E+03  0.79499204500E+03  0.88865825459E+02 0.  0.
          4    1    3    3  502    0 -0.33829076197E+03  0.63749430850E+03 -0.83991197634E+02  0.72656324865E+03  0.00000000000E+00 0. -1.
         -3    1    3    3    0  502 -0.19365203156E+02  0.52150430684E+02 -0.28368724361E+02  0.62445680680E+02  0.00000000000E+00 0.  1.
         13    1    5    5    0    0  0.79416234940E+02 -0.22702391099E+02 -0.14075428628E+03  0.16319958958E+03  0.00000000000E+00 0. -1.
        -13    1    5    5    0    0  0.47332954979E+03 -0.92216935001E+02 -0.47440666805E+03  0.67646619464E+03  0.00000000000E+00 0.  1.
          1    1    6    6  503    0  0.93773248899E+00 -0.96811096370E+02 -0.76738942234E+02  0.12354000558E+03  0.00000000000E+00 0. -1.
         -1    1    6    6    0  503 -0.19602755209E+03 -0.47791431672E+03 -0.42897429521E+03  0.67145203943E+03  0.00000000000E+00 0.  1.
<mgrwt>
<rscale>  0 0.20864549E+04</rscale>
<asrwt>0</asrwt>
<pdfrwt beam="1">  1        2 0.91571744E-01 0.20864549E+04</pdfrwt>
<pdfrwt beam="2">  1       -1 0.28130006E+00 0.20864549E+04</pdfrwt>
<totfact> 0.23034694E+00</totfact>
</mgrwt>
</event>
<event>
12    7  0.1637954E-007  0.1348511E+04  0.7818608E-02  0.8991956E-01
         -1   -1    0    0    0  501 -0.00000000000E+00  0.00000000000E+00  0.65351684380E+03  0.65351684380E+03  0.00000000000E+00 0.  1.
          2   -1    0    0  501    0  0.00000000000E+00 -0.00000000000E+00 -0.69565221273E+03  0.69565221273E+03  0.00000000000E+00 0. -1.
         24    2    1    2    0    0  0.17130904244E+03 -0.20151021437E+03 -0.25674969004E+03  0.37767924706E+03  0.82268194400E+02 0.  0.
        254    2    1    2    0    0 -0.17130904244E+03  0.20151021437E+03  0.21461432110E+03  0.97148980947E+03  0.90982415255E+03 0.  0.
         23    2    4    4    0    0  0.12440644338E+03 -0.24126679731E+03 -0.14542765082E+03  0.32257069555E+03  0.96000111290E+02 0.  0.
         23    2    4    4    0    0 -0.29571548582E+03  0.44277701168E+03  0.36004197192E+03  0.64891911392E+03  0.89256171970E+02 0.  0.
          2    1    3    3  502    0  0.93438487901E+02 -0.70940387216E+02 -0.15643511671E+03  0.19553832182E+03  0.00000000000E+00 0. -1.
         -1    1    3    3    0  502  0.77870554541E+02 -0.13056982715E+03 -0.10031457333E+03  0.18214092524E+03  0.00000000000E+00 0.  1.
         13    1    5    5    0    0  0.12934320220E+03 -0.21188641951E+03 -0.98684786127E+02  0.26714079760E+03  0.00000000000E+00 0.  1.
        -13    1    5    5    0    0 -0.49367588232E+01 -0.29380377801E+02 -0.46742864696E+02  0.55429897956E+02  0.00000000000E+00 0. -1.
          3    1    6    6  503    0 -0.60098406628E+02  0.16092830342E+03  0.99164829888E+02  0.19835170987E+03  0.00000000000E+00 0. -1.
         -3    1    6    6    0  503 -0.23561707919E+03  0.28184870826E+03  0.26087714204E+03  0.45056740405E+03  0.00000000000E+00 0.  1.
<mgrwt>
<rscale>  0 0.13485109E+04</rscale>
<asrwt>0</asrwt>
<pdfrwt beam="1">  1        2 0.10702342E+00 0.13485109E+04</pdfrwt>
<pdfrwt beam="2">  1       -1 0.10054105E+00 0.13485109E+04</pdfrwt>
<totfact> 0.43401089E+01</totfact>
</mgrwt>
</event>
<event>
12    7  0.1637954E-007  0.2496233E+04  0.7818608E-02  0.8404329E-01
          2   -1    0    0  501    0  0.00000000000E+00  0.00000000000E+00  0.21609551220E+04  0.21609551220E+04  0.00000000000E+00 0. -1.
         -1   -1    0    0    0  501 -0.00000000000E+00 -0.00000000000E+00 -0.72088235371E+03  0.72088235371E+03  0.00000000000E+00 0.  1.
         24    2    1    2    0    0 -0.97008143138E+03 -0.48630551432E+03  0.54573160561E+03  0.12172405599E+04  0.79376058348E+02 0.  0.
        254    2    1    2    0    0  0.97008143138E+03  0.48630551432E+03  0.89434116273E+03  0.16645969158E+04  0.89077816544E+03 0.  0.
         23    2    4    4    0    0  0.64554296359E+03 -0.13351329179E+03  0.61384378950E+03  0.90521985790E+03  0.89818017701E+02 0.  0.
         23    2    4    4    0    0  0.32453846779E+03  0.61981880611E+03  0.28049737323E+03  0.75937705792E+03  0.92055256307E+02 0.  0.
          2    1    3    3  502    0 -0.88839255851E+03 -0.46557504180E+03  0.51540635275E+03  0.11276724551E+04  0.00000000000E+00 0. -1.
         -1    1    3    3    0  502 -0.81688872873E+02 -0.20730472524E+02  0.30325252854E+02  0.89568104831E+02  0.00000000000E+00 0.  1.
         13    1    5    5    0    0  0.26787470312E+03 -0.56506835639E+02  0.31609620985E+03  0.41817065049E+03  0.00000000000E+00 0. -1.
        -13    1    5    5    0    0  0.37766826047E+03 -0.77006456151E+02  0.29774757964E+03  0.48704920741E+03  0.00000000000E+00 0.  1.
          3    1    6    6  503    0  0.23357891744E+03  0.48324851887E+03  0.17607995669E+03  0.56488263631E+03  0.00000000000E+00 0. -1.
         -3    1    6    6    0  503  0.90959550353E+02  0.13657028725E+03  0.10441741654E+03  0.19449442161E+03  0.00000000000E+00 0.  1.
<mgrwt>
<rscale>  0 0.24962327E+04</rscale>
<asrwt>0</asrwt>
<pdfrwt beam="1">  1        2 0.33245463E+00 0.24962327E+04</pdfrwt>
<pdfrwt beam="2">  1       -1 0.11090498E+00 0.24962327E+04</pdfrwt>
<totfact> 0.41257932E+00</totfact>
</mgrwt>
</event>
<event>
12    7  0.1637954E-007  0.1433366E+04  0.7818608E-02  0.8930014E-01
          2   -1    0    0  501    0  0.00000000000E+00  0.00000000000E+00  0.24982721737E+04  0.24982721737E+04  0.00000000000E+00 0. -1.
         -1   -1    0    0    0  501 -0.00000000000E+00 -0.00000000000E+00 -0.20559598649E+03  0.20559598649E+03  0.00000000000E+00 0.  1.
         24    2    1    2    0    0 -0.39001610043E+03 -0.67081152658E+02  0.41632729763E+03  0.58473346505E+03  0.10941831089E+03 0.  0.
        254    2    1    2    0    0  0.39001610043E+03  0.67081152658E+02  0.18763488896E+04  0.21191346952E+04  0.90190590478E+03 0.  0.
         23    2    4    4    0    0 -0.21276031334E+02 -0.30385592709E+03  0.11940170367E+04  0.12356637839E+04  0.91690834431E+02 0.  0.
         23    2    4    4    0    0  0.41129213177E+03  0.37093707975E+03  0.68233185293E+03  0.88347091123E+03  0.90490655182E+02 0.  0.
          2    1    3    3  502    0 -0.22840442709E+03 -0.23380642752E+02  0.16494436336E+03  0.28270458039E+03  0.00000000000E+00 0. -1.
         -1    1    3    3    0  502 -0.16161167335E+03 -0.43700509905E+02  0.25138293427E+03  0.30202888466E+03  0.00000000000E+00 0.  1.
         13    1    5    5    0    0  0.25783083705E+01 -0.62154427923E+02  0.12782735275E+03  0.14216065804E+03  0.00000000000E+00 0.  1.
        -13    1    5    5    0    0 -0.23854339704E+02 -0.24170149917E+03  0.10661896839E+04  0.10935031259E+04  0.00000000000E+00 0. -1.
          2    1    6    6  503    0  0.26019808705E+03  0.29047130182E+03  0.47926668645E+03  0.61787796402E+03  0.00000000000E+00 0. -1.
         -2    1    6    6    0  503  0.15109404472E+03  0.80465777933E+02  0.20306516649E+03  0.26559294721E+03  0.00000000000E+00 0.  1.
<mgrwt>
<rscale>  0 0.14333663E+04</rscale>
<asrwt>0</asrwt>
<pdfrwt beam="1">  1        2 0.38434954E+00 0.14333663E+04</pdfrwt>
<pdfrwt beam="2">  1       -1 0.31630153E-01 0.14333663E+04</pdfrwt>
<totfact> 0.35982047E+01</totfact>
</mgrwt>
</event>
<event>
12    7  0.1637954E-007  0.2388809E+04  0.7818608E-02  0.8443705E-01
         -1   -1    0    0    0  501 -0.00000000000E+00  0.00000000000E+00  0.61011257345E+03  0.61011257345E+03  0.00000000000E+00 0.  1.
          2   -1    0    0  501    0  0.00000000000E+00 -0.00000000000E+00 -0.23382610108E+04  0.23382610108E+04  0.00000000000E+00 0. -1.
         24    2    1    2    0    0 -0.79446394016E+03  0.64316603124E+03 -0.75575959027E+03  0.12738029086E+04  0.81029598137E+02 0.  0.
        254    2    1    2    0    0  0.79446394016E+03 -0.64316603124E+03 -0.97238884711E+03  0.16745706757E+04  0.90211494936E+03 0.  0.
         23    2    4    4    0    0  0.40646012638E+03 -0.56912742260E+03 -0.99461295871E+02  0.71223573391E+03  0.90946873394E+02 0.  0.
         23    2    4    4    0    0  0.38800381377E+03 -0.74038608633E+02 -0.87292755124E+03  0.96233494176E+03  0.89762772584E+02 0.  0.
          4    1    3    3  502    0 -0.24321126624E+03  0.16070012250E+03 -0.24455262164E+03  0.38050260728E+03  0.00000000000E+00 0. -1.
         -3    1    3    3    0  502 -0.55125267392E+03  0.48246590873E+03 -0.51120696863E+03  0.89330030134E+03  0.00000000000E+00 0.  1.
         13    1    5    5    0    0  0.16537804100E+03 -0.19043915522E+03 -0.72840477263E+02  0.26253133796E+03  0.00000000000E+00 0.  1.
        -13    1    5    5    0    0  0.24108208539E+03 -0.37868826739E+03 -0.26620818607E+02  0.44970439595E+03  0.00000000000E+00 0. -1.
          1    1    6    6  503    0  0.33218971164E+03 -0.31215058648E+02 -0.74601070794E+03  0.81722479206E+03  0.00000000000E+00 0. -1.
         -1    1    6    6    0  503  0.55814102137E+02 -0.42823549985E+02 -0.12691684330E+03  0.14511014969E+03  0.00000000000E+00 0.  1.
<mgrwt>
<rscale>  0 0.23888093E+04</rscale>
<asrwt>0</asrwt>
<pdfrwt beam="1">  1        2 0.35973247E+00 0.23888093E+04</pdfrwt>
<pdfrwt beam="2">  1       -1 0.93863471E-01 0.23888093E+04</pdfrwt>
<totfact> 0.48565957E+00</totfact>
</mgrwt>
</event>
<event>
12    7  0.1637954E-007  0.2143520E+04  0.7818608E-02  0.8542311E-01
          2   -1    0    0  501    0  0.00000000000E+00  0.00000000000E+00  0.13664613148E+04  0.13664613148E+04  0.00000000000E+00 0. -1.
         -1   -1    0    0    0  501 -0.00000000000E+00 -0.00000000000E+00 -0.84061645070E+03  0.84061645070E+03  0.00000000000E+00 0.  1.
         24    2    1    2    0    0  0.70856727303E+03  0.51577289591E+03  0.22019755627E+03  0.90731952682E+03  0.81562855480E+02 0.  0.
        254    2    1    2    0    0 -0.70856727303E+03 -0.51577289591E+03  0.30564730786E+03  0.12997582387E+04  0.90986918934E+03 0.  0.
         23    2    4    4    0    0  0.25528323021E+02 -0.12834614444E+02  0.38956747678E+03  0.40119284953E+03  0.91523007764E+02 0.  0.
         23    2    4    4    0    0 -0.73409559606E+03 -0.50293828147E+03 -0.83920168918E+02  0.89856538917E+03  0.92379135939E+02 0.  0.
          2    1    3    3  502    0  0.77626454769E+01  0.20701407774E+02  0.70704757713E+01  0.23212035159E+02  0.00000000000E+00 0. -1.
         -1    1    3    3    0  502  0.70080462756E+03  0.49507148814E+03  0.21312708050E+03  0.88410749166E+03  0.00000000000E+00 0.  1.
         13    1    5    5    0    0  0.37662608194E+02 -0.24022251842E+02  0.37893692595E+03  0.38156091845E+03  0.00000000000E+00 0. -1.
        -13    1    5    5    0    0 -0.12134285173E+02  0.11187637399E+02  0.10630550828E+02  0.19631931085E+02  0.00000000000E+00 0.  1.
          3    1    6    6  503    0 -0.16595755535E+03 -0.86645466992E+02  0.12671782874E+02  0.18764306864E+03  0.00000000000E+00 0.  1.
         -3    1    6    6    0  503 -0.56813804071E+03 -0.41629281448E+03 -0.96591951792E+02  0.71092232053E+03  0.00000000000E+00 0. -1.
<mgrwt>
<rscale>  0 0.21435203E+04</rscale>
<asrwt>0</asrwt>
<pdfrwt beam="1">  1        2 0.21022482E+00 0.21435203E+04</pdfrwt>
<pdfrwt beam="2">  1       -1 0.12932561E+00 0.21435203E+04</pdfrwt>
<totfact> 0.81349851E+00</totfact>
</mgrwt>
</event>
<event>
12    7  0.1637954E-007  0.1941437E+04  0.7818608E-02  0.8634501E-01
         -1   -1    0    0    0  501 -0.00000000000E+00  0.00000000000E+00  0.52543668556E+03  0.52543668556E+03  0.00000000000E+00 0.  1.
          2   -1    0    0  501    0  0.00000000000E+00 -0.00000000000E+00 -0.17933555230E+04  0.17933555230E+04  0.00000000000E+00 0. -1.
         24    2    1    2    0    0 -0.49165452459E+03 -0.55578606295E+03 -0.74812556292E+03  0.10569730426E+04  0.82932717674E+02 0.  0.
        254    2    1    2    0    0  0.49165452459E+03  0.55578606295E+03 -0.51979327450E+03  0.12618191659E+04  0.87828255128E+03 0.  0.
         23    2    4    4    0    0 -0.85922402166E+02  0.20800287097E+03 -0.52821083491E+03  0.58147613399E+03  0.91978012394E+02 0.  0.
         23    2    4    4    0    0  0.57757692676E+03  0.34778319197E+03  0.84175604035E+01  0.68034303190E+03  0.90815917062E+02 0.  0.
          2    1    3    3  502    0 -0.32421062774E+03 -0.37412210331E+03 -0.44264407273E+03  0.66408858931E+03  0.00000000000E+00 0. -1.
         -1    1    3    3    0  502 -0.16744389685E+03 -0.18166395963E+03 -0.30548149019E+03  0.39288445333E+03  0.00000000000E+00 0.  1.
         13    1    5    5    0    0  0.14006970717E+02  0.67781710395E+01 -0.16850552860E+02  0.22936433092E+02  0.00000000000E+00 0.  1.
        -13    1    5    5    0    0 -0.99929372882E+02  0.20122469993E+03 -0.51136028205E+03  0.55853970090E+03  0.00000000000E+00 0. -1.
          1    1    6    6  503    0  0.35573837621E+03  0.23691703131E+03  0.44548771178E+02  0.42972556945E+03  0.00000000000E+00 0. -1.
         -1    1    6    6    0  503  0.22183855055E+03  0.11086616067E+03 -0.36131210775E+02  0.25061746245E+03  0.00000000000E+00 0.  1.
<mgrwt>
<rscale>  0 0.19414374E+04</rscale>
<asrwt>0</asrwt>
<pdfrwt beam="1">  1        2 0.27590085E+00 0.19414374E+04</pdfrwt>
<pdfrwt beam="2">  1       -1 0.80836414E-01 0.19414374E+04</pdfrwt>
<totfact> 0.14113231E+01</totfact>
</mgrwt>
</event>
<event>
12    7  0.1637954E-007  0.1951131E+04  0.7818608E-02  0.8629815E-01
         -1   -1    0    0    0  501 -0.00000000000E+00  0.00000000000E+00  0.10955501374E+04  0.10955501374E+04  0.00000000000E+00 0.  1.
          2   -1    0    0  501    0  0.00000000000E+00 -0.00000000000E+00 -0.86872199501E+03  0.86872199501E+03  0.00000000000E+00 0. -1.
         24    2    1    2    0    0  0.63180838203E+01  0.65133000771E+03  0.49699135505E+03  0.82311957639E+03  0.79086869504E+02 0.  0.
        254    2    1    2    0    0 -0.63180838203E+01 -0.65133000771E+03 -0.27016321269E+03  0.11411525560E+04  0.89720136949E+03 0.  0.
         23    2    4    4    0    0  0.41518859833E+03 -0.32024749444E+03 -0.27170329484E+03  0.59764725697E+03  0.91758015725E+02 0.  0.
         23    2    4    4    0    0 -0.42150668215E+03 -0.33108251326E+03  0.15400821503E+01  0.54350529902E+03  0.90067333255E+02 0.  0.
          2    1    3    3  502    0  0.29568646420E+00  0.90415395180E+01  0.23391182650E+02  0.25079559268E+02  0.00000000000E+00 0. -1.
         -1    1    3    3    0  502  0.60223973561E+01  0.64228846819E+03  0.47360017240E+03  0.79804001712E+03  0.00000000000E+00 0.  1.
         13    1    5    5    0    0  0.35603308819E+03 -0.30941641768E+03 -0.23274906801E+03  0.52599449434E+03  0.00000000000E+00 0. -1.
        -13    1    5    5    0    0  0.59155510147E+02 -0.10831076763E+02 -0.38954226826E+02  0.71652762628E+02  0.00000000000E+00 0.  1.
          3    1    6    6  503    0 -0.41342234733E+03 -0.32240870994E+03  0.16353254253E+02  0.52453106909E+03  0.00000000000E+00 0. -1.
         -3    1    6    6    0  503 -0.80843348251E+01 -0.86738033222E+01 -0.14813172102E+02  0.18974229928E+02  0.00000000000E+00 0.  1.
<mgrwt>
<rscale>  0 0.19511315E+04</rscale>
<asrwt>0</asrwt>
<pdfrwt beam="1">  1        2 0.13364954E+00 0.19511315E+04</pdfrwt>
<pdfrwt beam="2">  1       -1 0.16854618E+00 0.19511315E+04</pdfrwt>
<totfact> 0.82686483E+00</totfact>
</mgrwt>
</event>
<event>
12    7  0.1637954E-007  0.1860951E+04  0.7818608E-02  0.8674541E-01
          2   -1    0    0  501    0  0.00000000000E+00  0.00000000000E+00  0.23276803347E+04  0.23276803347E+04  0.00000000000E+00 0. -1.
         -1   -1    0    0    0  501 -0.00000000000E+00 -0.00000000000E+00 -0.37195184156E+03  0.37195184156E+03  0.00000000000E+00 0.  1.
         24    2    1    2    0    0  0.18089601569E+01  0.63640373653E+03  0.11728294377E+04  0.13366773982E+04  0.78514894350E+02 0.  0.
        254    2    1    2    0    0 -0.18089601569E+01 -0.63640373653E+03  0.78289905546E+03  0.13629547781E+04  0.91635244742E+03 0.  0.
         23    2    4    4    0    0  0.23550840420E+02  0.19217716412E+03 -0.78618088557E+01  0.21364549024E+03  0.89977124682E+02 0.  0.
         23    2    4    4    0    0 -0.25359800577E+02 -0.82858090065E+03  0.79076086431E+03  0.11493092879E+04  0.91758739235E+02 0.  0.
          4    1    3    3  502    0  0.13684927889E+02  0.17593364369E+02  0.42627789383E+02  0.48103348624E+02  0.00000000000E+00 0. -1.
         -3    1    3    3    0  502 -0.11875967732E+02  0.61881037217E+03  0.11302016483E+04  0.12885740495E+04  0.00000000000E+00 0.  1.
         13    1    5    5    0    0  0.29319597368E+02  0.12382718699E+03  0.35978334051E+02  0.13223937216E+03  0.00000000000E+00 0. -1.
        -13    1    5    5    0    0 -0.57687569475E+01  0.68349977126E+02 -0.43840142907E+02  0.81406118074E+02  0.00000000000E+00 0.  1.
          2    1    6    6  503    0 -0.40306540065E+02 -0.32316966549E+03  0.26501739428E+03  0.41987792170E+03  0.00000000000E+00 0. -1.
         -2    1    6    6    0  503  0.14946739488E+02 -0.50541123516E+03  0.52574347004E+03  0.72943136616E+03  0.00000000000E+00 0.  1.
<mgrwt>
<rscale>  0 0.18609514E+04</rscale>
<asrwt>0</asrwt>
<pdfrwt beam="1">  1        2 0.35810466E+00 0.18609514E+04</pdfrwt>
<pdfrwt beam="2">  1       -1 0.57223362E-01 0.18609514E+04</pdfrwt>
<totfact> 0.14469613E+01</totfact>
</mgrwt>
</event>
<event>
12    7  0.1637954E-007  0.1098260E+04  0.7818608E-02  0.9206890E-01
         -1   -1    0    0    0  501 -0.00000000000E+00  0.00000000000E+00  0.22708607525E+03  0.22708607525E+03  0.00000000000E+00 0.  1.
          2   -1    0    0  501    0  0.00000000000E+00 -0.00000000000E+00 -0.13278828998E+04  0.13278828998E+04  0.00000000000E+00 0. -1.
         24    2    1    2    0    0  0.89709963025E+01  0.41025530151E+02 -0.41872930012E+03  0.42823291551E+03  0.79281966685E+02 0.  0.
        254    2    1    2    0    0 -0.89709963025E+01 -0.41025530151E+02 -0.68206752439E+03  0.11267360595E+04  0.89585404338E+03 0.  0.
         23    2    4    4    0    0 -0.39190431214E+02 -0.36913886262E+03 -0.21421289647E+02  0.38281515192E+03  0.91044928997E+02 0.  0.
         23    2    4    4    0    0  0.30219434911E+02  0.32811333247E+03 -0.66064623474E+03  0.74392090758E+03  0.91614933642E+02 0.  0.
          4    1    3    3  502    0  0.41737321894E+02  0.70704629553E+01 -0.21228415904E+03  0.21646376063E+03  0.00000000000E+00 0. -1.
         -3    1    3    3    0  502 -0.32766325592E+02  0.33955067196E+02 -0.20644514108E+03  0.21176915488E+03  0.00000000000E+00 0.  1.
         13    1    5    5    0    0  0.98989238480E+01 -0.90975855035E-01  0.27828942757E-01  0.98993810112E+01  0.00000000000E+00 0.  1.
        -13    1    5    5    0    0 -0.49089355062E+02 -0.36904788676E+03 -0.21449118590E+02  0.37291577091E+03  0.00000000000E+00 0. -1.
          4    1    6    6  503    0  0.48697055894E+02  0.25415521803E+03 -0.43975729042E+03  0.51024773648E+03  0.00000000000E+00 0. -1.
         -4    1    6    6    0  503 -0.18477620983E+02  0.73958114434E+02 -0.22088894432E+03  0.23367317109E+03  0.00000000000E+00 0.  1.
<mgrwt>
<rscale>  0 0.10982599E+04</rscale>
<asrwt>0</asrwt>
<pdfrwt beam="1">  1        2 0.20428968E+00 0.10982599E+04</pdfrwt>
<pdfrwt beam="2">  1       -1 0.34936319E-01 0.10982599E+04</pdfrwt>
<totfact> 0.14016351E+02</totfact>
</mgrwt>
</event>
<event>
12    7  0.1637954E-007  0.2034281E+04  0.7818608E-02  0.8590759E-01
         -1   -1    0    0    0  501 -0.00000000000E+00  0.00000000000E+00  0.35314569102E+03  0.35314569102E+03  0.00000000000E+00 0.  1.
          2   -1    0    0  501    0  0.00000000000E+00 -0.00000000000E+00 -0.29295963450E+04  0.29295963450E+04  0.00000000000E+00 0. -1.
         24    2    1    2    0    0 -0.29243889892E+03  0.12546932249E+03 -0.22713430274E+04  0.22948858531E+04  0.78986518987E+02 0.  0.
        254    2    1    2    0    0  0.29243889892E+03 -0.12546932249E+03 -0.30510762657E+03  0.98785618292E+03  0.88402834448E+03 0.  0.
         23    2    4    4    0    0  0.25699229341E+03 -0.45838381324E+03 -0.34905298178E+03  0.63747380572E+03  0.91510162181E+02 0.  0.
         23    2    4    4    0    0  0.35446605516E+02  0.33291449075E+03  0.43945355206E+02  0.35038237720E+03  0.93531256878E+02 0.  0.
          4    1    3    3  502    0 -0.17997108426E+03  0.11062662578E+03 -0.13190387301E+04  0.13358484245E+04  0.00000000000E+00 0. -1.
         -3    1    3    3    0  502 -0.11246781466E+03  0.14842696708E+02 -0.95230429729E+03  0.95903742868E+03  0.00000000000E+00 0.  1.
         13    1    5    5    0    0  0.26217322002E+03 -0.45854625264E+03 -0.34497010877E+03  0.63087545447E+03  0.00000000000E+00 0. -1.
        -13    1    5    5    0    0 -0.51809266174E+01  0.16243940642E+00 -0.40828730132E+01  0.65983512499E+01  0.00000000000E+00 0.  1.
          1    1    6    6  503    0  0.37460044071E+02  0.33905158300E+03  0.42387018353E+02  0.34373811276E+03  0.00000000000E+00 0. -1.
         -1    1    6    6    0  503 -0.20134385543E+01 -0.61370922553E+01  0.15583368526E+01  0.66442644370E+01  0.00000000000E+00 0.  1.
<mgrwt>
<rscale>  0 0.20342805E+04</rscale>
<asrwt>0</asrwt>
<pdfrwt beam="1">  1        2 0.45070715E+00 0.20342805E+04</pdfrwt>
<pdfrwt beam="2">  1       -1 0.54330104E-01 0.20342805E+04</pdfrwt>
<totfact> 0.69628781E+00</totfact>
</mgrwt>
</event>
<event>
12    7  0.1637954E-007  0.1352027E+04  0.7818608E-02  0.8989295E-01
         -1   -1    0    0    0  501 -0.00000000000E+00  0.00000000000E+00  0.21365137823E+03  0.21365137823E+03  0.00000000000E+00 0.  1.
          2   -1    0    0  501    0  0.00000000000E+00 -0.00000000000E+00 -0.21389729953E+04  0.21389729953E+04  0.00000000000E+00 0. -1.
         24    2    1    2    0    0 -0.25172052097E+02  0.65855906808E+02 -0.11508014358E+04  0.11558693138E+04  0.81971295634E+02 0.  0.
        254    2    1    2    0    0  0.25172052097E+02 -0.65855906808E+02 -0.77452018123E+03  0.11967550597E+04  0.90959910350E+03 0.  0.
         23    2    4    4    0    0 -0.22829568617E+03  0.25512101829E+03 -0.68083425229E+03  0.76748595322E+03  0.91070055433E+02 0.  0.
         23    2    4    4    0    0  0.25346773827E+03 -0.32097692510E+03 -0.93685928944E+02  0.42926910647E+03  0.90679830696E+02 0.  0.
          4    1    3    3  502    0  0.72072357685E+01 -0.92305681004E+01 -0.47420559140E+03  0.47435017714E+03  0.00000000000E+00 0. -1.
         -3    1    3    3    0  502 -0.32379287866E+02  0.75086474909E+02 -0.67659584442E+03  0.68151913669E+03  0.00000000000E+00 0.  1.
         13    1    5    5    0    0 -0.21420711807E+03  0.23293866036E+03 -0.55449984906E+03  0.63844748533E+03  0.00000000000E+00 0.  1.
        -13    1    5    5    0    0 -0.14088568106E+02  0.22182357935E+02 -0.12633440323E+03  0.12903846789E+03  0.00000000000E+00 0. -1.
          4    1    6    6  503    0  0.22101780294E+03 -0.28527427207E+03 -0.11170575900E+03  0.37776772774E+03  0.00000000000E+00 0.  1.
         -4    1    6    6    0  503  0.32449935326E+02 -0.35702653029E+02  0.18019830059E+02  0.51501378732E+02  0.00000000000E+00 0. -1.
<mgrwt>
<rscale>  0 0.13520274E+04</rscale>
<asrwt>0</asrwt>
<pdfrwt beam="1">  1        2 0.32907276E+00 0.13520274E+04</pdfrwt>
<pdfrwt beam="2">  1       -1 0.32869444E-01 0.13520274E+04</pdfrwt>
<totfact> 0.54044732E+01</totfact>
</mgrwt>
</event>
<event>
12    7  0.1718952E-007  0.1660134E+04  0.7818608E-02  0.8784434E-01
          2   -1    0    0  501    0  0.00000000000E+00  0.00000000000E+00  0.21936689180E+04  0.21936689180E+04  0.00000000000E+00 0. -1.
         -1   -1    0    0    0  501 -0.00000000000E+00 -0.00000000000E+00 -0.31409075518E+03  0.31409075518E+03  0.00000000000E+00 0.  1.
         24    2    1    2    0    0 -0.21366977261E+03 -0.17147668950E+01  0.14770284670E+04  0.14946791153E+04  0.82430898329E+02 0.  0.
        254    2    1    2    0    0  0.21366977261E+03  0.17147668950E+01  0.40254969580E+03  0.10130805579E+04  0.90478077298E+03 0.  0.
         23    2    4    4    0    0 -0.14974439200E+03  0.36028713917E+03  0.25088638400E+03  0.47276228329E+03  0.91268796613E+02 0.  0.
         23    2    4    4    0    0  0.36341416461E+03 -0.35857237228E+03  0.15166331180E+03  0.54031827466E+03  0.91093779047E+02 0.  0.
          4    1    3    3  502    0 -0.19788869742E+03 -0.26475120469E+02  0.12825856119E+04  0.12980318642E+04  0.00000000000E+00 0. -1.
         -3    1    3    3    0  502 -0.15781075186E+02  0.24760353574E+02  0.19444285513E+03  0.19664725108E+03  0.00000000000E+00 0.  1.
         13    1    5    5    0    0 -0.14800177912E+03  0.32541879504E+03  0.25272279056E+03  0.43780215584E+03  0.00000000000E+00 0.  1.
        -13    1    5    5    0    0 -0.17426128839E+01  0.34868344139E+02 -0.18364065616E+01  0.34960127456E+02  0.00000000000E+00 0. -1.
          4    1    6    6  503    0  0.26433338380E+00 -0.86801653302E+01 -0.75399474836E+01  0.11500693473E+02  0.00000000000E+00 0. -1.
         -4    1    6    6    0  503  0.36314983122E+03 -0.34989220695E+03  0.15920325928E+03  0.52881758118E+03  0.00000000000E+00 0.  1.
<mgrwt>
<rscale>  0 0.16601339E+04</rscale>
<asrwt>0</asrwt>
<pdfrwt beam="1">  1        2 0.33748752E+00 0.16601339E+04</pdfrwt>
<pdfrwt beam="2">  1       -1 0.48321656E-01 0.16601339E+04</pdfrwt>
<totfact> 0.24254689E+01</totfact>
</mgrwt>
</event>
<event>
12    7  0.1637954E-007  0.1267900E+04  0.7818608E-02  0.9055415E-01
          2   -1    0    0  501    0  0.00000000000E+00  0.00000000000E+00  0.11686289398E+04  0.11686289398E+04  0.00000000000E+00 0. -1.
         -1   -1    0    0    0  501 -0.00000000000E+00 -0.00000000000E+00 -0.34390087415E+03  0.34390087415E+03  0.00000000000E+00 0.  1.
         24    2    1    2    0    0  0.41324583126E+02 -0.22753994992E+03  0.44802852781E+03  0.51066791856E+03  0.81055606457E+02 0.  0.
        254    2    1    2    0    0 -0.41324583126E+02  0.22753994992E+03  0.37669953788E+03  0.10018618954E+04  0.89907873163E+03 0.  0.
         23    2    4    4    0    0 -0.36358076745E+03  0.22404081840E+03  0.48200584148E+03  0.65064421991E+03  0.92860147062E+02 0.  0.
         23    2    4    4    0    0  0.32225618432E+03  0.34991315174E+01 -0.10530630360E+03  0.35121767551E+03  0.91668673818E+02 0.  0.
          2    1    3    3  502    0  0.45421679851E+01 -0.15811158877E+03  0.35666701672E+03  0.39016825423E+03  0.00000000000E+00 0. -1.
         -1    1    3    3    0  502  0.36782415141E+02 -0.69428361151E+02  0.91361511087E+02  0.12049966433E+03  0.00000000000E+00 0.  1.
         13    1    5    5    0    0 -0.20425564304E+03  0.99934226782E+02  0.31545672759E+03  0.38887036963E+03  0.00000000000E+00 0. -1.
        -13    1    5    5    0    0 -0.15932512441E+03  0.12410659162E+03  0.16654911389E+03  0.26177385028E+03  0.00000000000E+00 0.  1.
          3    1    6    6  503    0  0.32514820350E+03 -0.90428314445E-01 -0.93167314513E+02  0.33823292404E+03  0.00000000000E+00 0. -1.
         -3    1    6    6    0  503 -0.28920191747E+01  0.35895598318E+01 -0.12138989083E+02  0.12984751467E+02  0.00000000000E+00 0.  1.
<mgrwt>
<rscale>  0 0.12678999E+04</rscale>
<asrwt>0</asrwt>
<pdfrwt beam="1">  1        2 0.17978907E+00 0.12678999E+04</pdfrwt>
<pdfrwt beam="2">  1       -1 0.52907827E-01 0.12678999E+04</pdfrwt>
<totfact> 0.79780173E+01</totfact>
</mgrwt>
</event>
<event>
12    7  0.1637954E-007  0.2660994E+04  0.7818608E-02  0.8347773E-01
         -1   -1    0    0    0  501 -0.00000000000E+00  0.00000000000E+00  0.10276495270E+04  0.10276495270E+04  0.00000000000E+00 0.  1.
          2   -1    0    0  501    0  0.00000000000E+00 -0.00000000000E+00 -0.17225931586E+04  0.17225931586E+04  0.00000000000E+00 0. -1.
         24    2    1    2    0    0 -0.81556096489E+03 -0.36020535261E+03 -0.11029934817E+04  0.14209743475E+04  0.87669219036E+02 0.  0.
        254    2    1    2    0    0  0.81556096489E+03  0.36020535261E+03  0.40804985008E+03  0.13292683381E+04  0.89753108636E+03 0.  0.
         23    2    4    4    0    0  0.87649089997E+03  0.52063587938E+03  0.46892446408E+03  0.11262673582E+04  0.96384606977E+02 0.  0.
         23    2    4    4    0    0 -0.60929935079E+02 -0.16043052678E+03 -0.60874614000E+02  0.20300097990E+03  0.89740003903E+02 0.  0.
          4    1    3    3  502    0 -0.68567292501E+03 -0.32677696708E+03 -0.97108168687E+03  0.12328544881E+04  0.00000000000E+00 0. -1.
         -3    1    3    3    0  502 -0.12988803987E+03 -0.33428385532E+02 -0.13191179483E+03  0.18811985934E+03  0.00000000000E+00 0.  1.
         13    1    5    5    0    0  0.23978698903E+02  0.33297625484E+02  0.29032384424E+02  0.50265188841E+02  0.00000000000E+00 0.  1.
        -13    1    5    5    0    0  0.85251220106E+03  0.48733825390E+03  0.43989207966E+03  0.10760021693E+04  0.00000000000E+00 0. -1.
          2    1    6    6  503    0 -0.72828235433E+02 -0.11014409914E+03 -0.71625677464E+02  0.15021954641E+03  0.00000000000E+00 0. -1.
         -2    1    6    6    0  503  0.11898300354E+02 -0.50286427631E+02  0.10751063465E+02  0.52781433486E+02  0.00000000000E+00 0.  1.
<mgrwt>
<rscale>  0 0.26609938E+04</rscale>
<asrwt>0</asrwt>
<pdfrwt beam="1">  1        2 0.26501433E+00 0.26609938E+04</pdfrwt>
<pdfrwt beam="2">  1       -1 0.15809993E+00 0.26609938E+04</pdfrwt>
<totfact> 0.28839014E+00</totfact>
</mgrwt>
</event>
<event>
12    7  0.1637954E-007  0.2684748E+04  0.7818608E-02  0.8339971E-01
         -1   -1    0    0    0  501 -0.00000000000E+00  0.00000000000E+00  0.10422019217E+04  0.10422019217E+04  0.00000000000E+00 0.  1.
          2   -1    0    0  501    0  0.00000000000E+00 -0.00000000000E+00 -0.17290011187E+04  0.17290011187E+04  0.00000000000E+00 0. -1.
         24    2    1    2    0    0 -0.72445847351E+03  0.84781019783E+03  0.12828352354E+03  0.11253897086E+04  0.80144384648E+02 0.  0.
        254    2    1    2    0    0  0.72445847351E+03 -0.84781019783E+03 -0.81508272049E+03  0.16458133319E+04  0.89482929697E+03 0.  0.
         23    2    4    4    0    0  0.18681252786E+03 -0.83842547458E+03 -0.63056180975E+03  0.10696370308E+04  0.93053666562E+02 0.  0.
         23    2    4    4    0    0  0.53764594564E+03 -0.93847232530E+01 -0.18452091074E+03  0.57617630102E+03  0.93701267093E+02 0.  0.
          2    1    3    3  502    0 -0.30018673908E+03  0.32475923006E+03  0.86344306373E+02  0.45059513432E+03  0.00000000000E+00 0. -1.
         -1    1    3    3    0  502 -0.42427173443E+03  0.52305096777E+03  0.41939217167E+02  0.67479457427E+03  0.00000000000E+00 0.  1.
         13    1    5    5    0    0  0.16019794030E+03 -0.80144668136E+03 -0.60892010255E+03  0.10191976523E+04  0.00000000000E+00 0. -1.
        -13    1    5    5    0    0  0.26614587565E+02 -0.36978793221E+02 -0.21641707196E+02  0.50439378562E+02  0.00000000000E+00 0.  1.
          3    1    6    6  503    0  0.43803520862E+03  0.12316399034E+02 -0.11586831205E+03  0.45326813633E+03  0.00000000000E+00 0. -1.
         -3    1    6    6    0  503  0.99610737022E+02 -0.21701122287E+02 -0.68652598695E+02  0.12290816468E+03  0.00000000000E+00 0.  1.
<mgrwt>
<rscale>  0 0.26847482E+04</rscale>
<asrwt>0</asrwt>
<pdfrwt beam="1">  1        2 0.26600017E+00 0.26847482E+04</pdfrwt>
<pdfrwt beam="2">  1       -1 0.16033876E+00 0.26847482E+04</pdfrwt>
<totfact> 0.27449255E+00</totfact>
</mgrwt>
</event>
<event>
12    7  0.1637954E-007  0.1590229E+04  0.7818608E-02  0.8826573E-01
         -1   -1    0    0    0  501 -0.00000000000E+00  0.00000000000E+00  0.92343194774E+03  0.92343194774E+03  0.00000000000E+00 0.  1.
          2   -1    0    0  501    0  0.00000000000E+00 -0.00000000000E+00 -0.68462755910E+03  0.68462755910E+03  0.00000000000E+00 0. -1.
         24    2    1    2    0    0  0.21082311874E+03  0.12091774046E+03  0.56607913201E+03  0.62104574442E+03  0.78643153662E+02 0.  0.
        254    2    1    2    0    0 -0.21082311874E+03 -0.12091774046E+03 -0.32727474336E+03  0.98701376243E+03  0.89889928369E+03 0.  0.
         23    2    4    4    0    0  0.21460801310E+02  0.54462736998E+02  0.28402366038E+03  0.30399817566E+03  0.91206882589E+02 0.  0.
         23    2    4    4    0    0 -0.23228392005E+03 -0.17538047745E+03 -0.61129840375E+03  0.68301558677E+03  0.90057881186E+02 0.  0.
          4    1    3    3  502    0  0.92613579852E+02  0.36066465872E+02  0.14719204201E+03  0.17760507415E+03  0.00000000000E+00 0. -1.
         -3    1    3    3    0  502  0.11820953889E+03  0.84851274585E+02  0.41888709000E+03  0.44344067027E+03  0.00000000000E+00 0.  1.
         13    1    5    5    0    0 -0.61686449942E+01 -0.22970379951E+02  0.40460049768E+02  0.46932996532E+02  0.00000000000E+00 0. -1.
        -13    1    5    5    0    0  0.27629446305E+02  0.77433116949E+02  0.24356361061E+03  0.25706517912E+03  0.00000000000E+00 0.  1.
          3    1    6    6  503    0 -0.14293411784E+02 -0.29827758404E+02 -0.13875600066E+03  0.14264369776E+03  0.00000000000E+00 0. -1.
         -3    1    6    6    0  503 -0.21799050827E+03 -0.14555271905E+03 -0.47254240308E+03  0.54037188901E+03  0.00000000000E+00 0.  1.
<mgrwt>
<rscale>  0 0.15902289E+04</rscale>
<asrwt>0</asrwt>
<pdfrwt beam="1">  1        2 0.10532732E+00 0.15902289E+04</pdfrwt>
<pdfrwt beam="2">  1       -1 0.14206645E+00 0.15902289E+04</pdfrwt>
<totfact> 0.18631214E+01</totfact>
</mgrwt>
</event>
<event>
12    7  0.1637954E-007  0.2661145E+04  0.7818608E-02  0.8347723E-01
         -1   -1    0    0    0  501 -0.00000000000E+00  0.00000000000E+00  0.16618886071E+04  0.16618886071E+04  0.00000000000E+00 0.  1.
          2   -1    0    0  501    0  0.00000000000E+00 -0.00000000000E+00 -0.10653079256E+04  0.10653079256E+04  0.00000000000E+00 0. -1.
         24    2    1    2    0    0  0.54198287987E+03  0.73798474327E+03  0.10173917580E+04  0.13703186823E+04  0.65729584620E+02 0.  0.
        254    2    1    2    0    0 -0.54198287987E+03 -0.73798474327E+03 -0.42081107650E+03  0.13568778504E+04  0.90866309231E+03 0.  0.
         23    2    4    4    0    0  0.15779447932E+03  0.49771990570E+02 -0.20295796625E+03  0.27706559451E+03  0.90537610133E+02 0.  0.
         23    2    4    4    0    0 -0.69977735918E+03 -0.78775673384E+03 -0.21785311026E+03  0.10798122559E+04  0.91024755510E+02 0.  0.
          2    1    3    3  502    0  0.52157323846E+02  0.59359889113E+02  0.11529312302E+03  0.13977298409E+03  0.00000000000E+00 0. -1.
         -1    1    3    3    0  502  0.48982555602E+03  0.67862485415E+03  0.90209863501E+03  0.12305456982E+04  0.00000000000E+00 0.  1.
         13    1    5    5    0    0  0.58460497117E+02 -0.21714172680E+02 -0.43401537989E+02  0.75979132123E+02  0.00000000000E+00 0. -1.
        -13    1    5    5    0    0  0.99333982200E+02  0.71486163250E+02 -0.15955642826E+03  0.20108646238E+03  0.00000000000E+00 0.  1.
          3    1    6    6  503    0 -0.15716457424E+03 -0.14158415668E+03 -0.72428215970E+02  0.22359030231E+03  0.00000000000E+00 0. -1.
         -3    1    6    6    0  503 -0.54261278494E+03 -0.64617257716E+03 -0.14542489429E+03  0.85622195354E+03  0.00000000000E+00 0.  1.
<mgrwt>
<rscale>  0 0.26611449E+04</rscale>
<asrwt>0</asrwt>
<pdfrwt beam="1">  1        2 0.16389353E+00 0.26611449E+04</pdfrwt>
<pdfrwt beam="2">  1       -1 0.25567517E+00 0.26611449E+04</pdfrwt>
<totfact> 0.14703248E+00</totfact>
</mgrwt>
</event>
<event>
12    7  0.1637954E-007  0.1478121E+04  0.7818608E-02  0.8899134E-01
         -1   -1    0    0    0  501 -0.00000000000E+00  0.00000000000E+00  0.24987065320E+04  0.24987065320E+04  0.00000000000E+00 0.  1.
          2   -1    0    0  501    0  0.00000000000E+00 -0.00000000000E+00 -0.21859737875E+03  0.21859737875E+03  0.00000000000E+00 0. -1.
         24    2    1    2    0    0  0.10279660080E+03  0.27012231110E+03  0.66116427253E+02  0.30697071471E+03  0.79538881371E+02 0.  0.
        254    2    1    2    0    0 -0.10279660080E+03 -0.27012231110E+03  0.22139927260E+04  0.24103331960E+04  0.90796977984E+03 0.  0.
         23    2    4    4    0    0 -0.34909181640E+03  0.63689687843E+02  0.17221629407E+04  0.17607290011E+04  0.91651232506E+02 0.  0.
         23    2    4    4    0    0  0.24629521560E+03 -0.33381199894E+03  0.49182978530E+03  0.64960419494E+03  0.89427560117E+02 0.  0.
          4    1    3    3  502    0  0.66343911842E+02  0.21798124716E+03  0.80660698293E+02  0.24170950954E+03  0.00000000000E+00 0. -1.
         -3    1    3    3    0  502  0.36452688956E+02  0.52141063934E+02 -0.14544271040E+02  0.65261205171E+02  0.00000000000E+00 0.  1.
         13    1    5    5    0    0 -0.19809555999E+03  0.29692656331E+02  0.74841664238E+03  0.77475865617E+03  0.00000000000E+00 0. -1.
        -13    1    5    5    0    0 -0.15099625641E+03  0.33997031512E+02  0.97374629831E+03  0.98597034493E+03  0.00000000000E+00 0.  1.
          1    1    6    6  503    0  0.21329998432E+03 -0.32274471655E+03  0.46907589019E+03  0.60802403417E+03  0.00000000000E+00 0. -1.
         -1    1    6    6    0  503  0.32995231279E+02 -0.11067282387E+02  0.22753895112E+02  0.41580160766E+02  0.00000000000E+00 0.  1.
<mgrwt>
<rscale>  0 0.14781214E+04</rscale>
<asrwt>0</asrwt>
<pdfrwt beam="1">  1        2 0.33630368E-01 0.14781214E+04</pdfrwt>
<pdfrwt beam="2">  1       -1 0.38441637E+00 0.14781214E+04</pdfrwt>
<totfact> 0.15963892E+00</totfact>
</mgrwt>
</event>
<event>
12    7  0.1637954E-007  0.2681393E+04  0.7818608E-02  0.8341068E-01
          2   -1    0    0  501    0  0.00000000000E+00  0.00000000000E+00  0.96459492477E+03  0.96459492477E+03  0.00000000000E+00 0. -1.
         -1   -1    0    0    0  501 -0.00000000000E+00 -0.00000000000E+00 -0.18634427022E+04  0.18634427022E+04  0.00000000000E+00 0.  1.
         24    2    1    2    0    0  0.10515361166E+04  0.53924282555E+03 -0.26598481972E+03  0.12138533406E+04  0.78619200319E+02 0.  0.
        254    2    1    2    0    0 -0.10515361166E+04 -0.53924282555E+03 -0.63286295774E+03  0.16141842864E+04  0.89920206735E+03 0.  0.
         23    2    4    4    0    0 -0.43938014797E+03 -0.44066173909E+03 -0.74745373934E+03  0.97695602266E+03  0.92294610046E+02 0.  0.
         23    2    4    4    0    0 -0.61215596862E+03 -0.98581086459E+02  0.11459078160E+03  0.63722826378E+03  0.92063306521E+02 0.  0.
          2    1    3    3  502    0  0.10726232556E+03  0.77324393974E+02 -0.14753319905E+02  0.13304859577E+03  0.00000000000E+00 0. -1.
         -1    1    3    3    0  502  0.94427379103E+03  0.46191843157E+03 -0.25123149981E+03  0.10808047448E+04  0.00000000000E+00 0.  1.
         13    1    5    5    0    0 -0.12921443057E+03 -0.14971069487E+03 -0.17681686799E+03  0.26528073060E+03  0.00000000000E+00 0.  1.
        -13    1    5    5    0    0 -0.31016571740E+03 -0.29095104422E+03 -0.57063687135E+03  0.71167529206E+03  0.00000000000E+00 0. -1.
          3    1    6    6  503    0 -0.51997544823E+03 -0.68507608565E+02  0.12657964612E+03  0.53952772496E+03  0.00000000000E+00 0. -1.
         -3    1    6    6    0  503 -0.92180520390E+02 -0.30073477894E+02 -0.11988864525E+02  0.97700538815E+02  0.00000000000E+00 0.  1.
<mgrwt>
<rscale>  0 0.26813932E+04</rscale>
<asrwt>0</asrwt>
<pdfrwt beam="1">  1        2 0.14839922E+00 0.26813932E+04</pdfrwt>
<pdfrwt beam="2">  1       -1 0.28668349E+00 0.26813932E+04</pdfrwt>
<totfact> 0.10715561E+00</totfact>
</mgrwt>
</event>
<event>
12    7  0.1637954E-007  0.2076070E+04  0.7818608E-02  0.8571858E-01
          2   -1    0    0  501    0  0.00000000000E+00  0.00000000000E+00  0.59838891587E+03  0.59838891587E+03  0.00000000000E+00 0. -1.
         -3   -1    0    0    0  501 -0.00000000000E+00 -0.00000000000E+00 -0.18006968096E+04  0.18006968096E+04  0.00000000000E+00 0.  1.
         24    2    1    2    0    0  0.15687352292E+03  0.76366775003E+03 -0.82166349013E+03  0.11354133932E+04  0.78961686527E+02 0.  0.
        254    2    1    2    0    0 -0.15687352292E+03 -0.76366775003E+03 -0.38064440355E+03  0.12636723322E+04  0.91879261345E+03 0.  0.
         23    2    4    4    0    0  0.17425321607E+03  0.98165323004E+02  0.71956369122E+02  0.23144061602E+03  0.91577430273E+02 0.  0.
         23    2    4    4    0    0 -0.33112673898E+03 -0.86183307303E+03 -0.45260077267E+03  0.10322317162E+04  0.90849839718E+02 0.  0.
          4    1    3    3  502    0  0.12494790853E+03  0.51794079710E+03 -0.60599917331E+03  0.80691365535E+03  0.00000000000E+00 0. -1.
         -3    1    3    3    0  502  0.31925614384E+02  0.24572695292E+03 -0.21566431682E+03  0.32849973790E+03  0.00000000000E+00 0.  1.
         13    1    5    5    0    0  0.17346865149E+03  0.11066303558E+03  0.74176162761E+02  0.21872307518E+03  0.00000000000E+00 0.  1.
        -13    1    5    5    0    0  0.78456457402E+00 -0.12497712574E+02 -0.22197936391E+01  0.12717540838E+02  0.00000000000E+00 0. -1.
          2    1    6    6  503    0 -0.22625458132E+02 -0.18567637866E+02 -0.84545230548E+01  0.30465513153E+02  0.00000000000E+00 0. -1.
         -2    1    6    6    0  503 -0.30850128085E+03 -0.84326543517E+03 -0.44414624962E+03  0.10017662030E+04  0.00000000000E+00 0.  1.
<mgrwt>
<rscale>  0 0.20760703E+04</rscale>
<asrwt>0</asrwt>
<pdfrwt beam="1">  1        2 0.92059832E-01 0.20760703E+04</pdfrwt>
<pdfrwt beam="2">  1       -3 0.27703028E+00 0.20760703E+04</pdfrwt>
<totfact> 0.14692440E+00</totfact>
</mgrwt>
</event>
<event>
12    7  0.1637954E-007  0.2209981E+04  0.7818608E-02  0.8514285E-01
          2   -1    0    0  501    0  0.00000000000E+00  0.00000000000E+00  0.21260525716E+04  0.21260525716E+04  0.00000000000E+00 0. -1.
         -1   -1    0    0    0  501 -0.00000000000E+00 -0.00000000000E+00 -0.57430568223E+03  0.57430568223E+03  0.00000000000E+00 0.  1.
         24    2    1    2    0    0  0.60562384266E+03 -0.69718953559E+03  0.65652451547E+03  0.11359065854E+04  0.80036517286E+02 0.  0.
        254    2    1    2    0    0 -0.60562384266E+03  0.69718953559E+03  0.89522237395E+03  0.15644516684E+04  0.89063597317E+03 0.  0.
         23    2    4    4    0    0 -0.46826305753E+03  0.73381566140E+03  0.10270622962E+04  0.13494579205E+04  0.91782367875E+02 0.  0.
         23    2    4    4    0    0 -0.13736078513E+03 -0.36626125809E+02 -0.13183992225E+03  0.21499374790E+03  0.92903649838E+02 0.  0.
          2    1    3    3  502    0  0.39032342654E+03 -0.43557714868E+03  0.46105894391E+03  0.74475175697E+03  0.00000000000E+00 0. -1.
         -1    1    3    3    0  502  0.21530041613E+03 -0.26161238692E+03  0.19546557156E+03  0.39115482847E+03  0.00000000000E+00 0.  1.
         13    1    5    5    0    0 -0.42450966176E+03  0.65656639381E+03  0.96056069125E+03  0.12385332955E+04  0.00000000000E+00 0. -1.
        -13    1    5    5    0    0 -0.43753395776E+02  0.77249267591E+02  0.66501604940E+02  0.11092462506E+03  0.00000000000E+00 0.  1.
          3    1    6    6  503    0 -0.10079077339E+03 -0.60867062243E+02 -0.12293378589E+03  0.17022424910E+03  0.00000000000E+00 0. -1.
         -3    1    6    6    0  503 -0.36570011745E+02  0.24240936434E+02 -0.89061363536E+01  0.44769498802E+02  0.00000000000E+00 0.  1.
<mgrwt>
<rscale>  0 0.22099811E+04</rscale>
<asrwt>0</asrwt>
<pdfrwt beam="1">  1        2 0.32708501E+00 0.22099811E+04</pdfrwt>
<pdfrwt beam="2">  1       -1 0.88354722E-01 0.22099811E+04</pdfrwt>
<totfact> 0.74293623E+00</totfact>
</mgrwt>
</event>
<event>
12    7  0.1637954E-007  0.1495946E+04  0.7818608E-02  0.8887153E-01
         -1   -1    0    0    0  501 -0.00000000000E+00  0.00000000000E+00  0.19000649862E+03  0.19000649862E+03  0.00000000000E+00 0.  1.
          2   -1    0    0  501    0  0.00000000000E+00 -0.00000000000E+00 -0.29444439298E+04  0.29444439298E+04  0.00000000000E+00 0. -1.
         24    2    1    2    0    0 -0.37659815111E+03 -0.27754173721E+03 -0.10122855874E+04  0.11179734488E+04  0.79290216338E+02 0.  0.
        254    2    1    2    0    0  0.37659815111E+03  0.27754173721E+03 -0.17421518438E+04  0.20164769797E+04  0.90123846974E+03 0.  0.
         23    2    4    4    0    0 -0.12269833129E+03 -0.15608963931E+03 -0.91752104160E+02  0.23617291643E+03  0.89108595759E+02 0.  0.
         23    2    4    4    0    0  0.49929648240E+03  0.43363137652E+03 -0.16503997397E+04  0.17803040632E+04  0.91269430307E+02 0.  0.
          2    1    3    3  502    0 -0.55909312277E+02 -0.80711460545E+02 -0.20429684038E+03  0.22666581139E+03  0.00000000000E+00 0. -1.
         -1    1    3    3    0  502 -0.32068883884E+03 -0.19683027666E+03 -0.80798874700E+03  0.89130763737E+03  0.00000000000E+00 0.  1.
         13    1    5    5    0    0 -0.12990970914E+03 -0.14734157343E+03 -0.64655887054E+02  0.20680052108E+03  0.00000000000E+00 0.  1.
        -13    1    5    5    0    0  0.72113778528E+01 -0.87480658826E+01 -0.27096217106E+02  0.29372395352E+02  0.00000000000E+00 0. -1.
          2    1    6    6  503    0  0.12072050450E+02  0.18661045730E+02 -0.25026117416E+02  0.33470518112E+02  0.00000000000E+00 0. -1.
         -2    1    6    6    0  503  0.48722443195E+03  0.41497033079E+03 -0.16253736222E+04  0.17468335451E+04  0.00000000000E+00 0.  1.
<mgrwt>
<rscale>  0 0.14959458E+04</rscale>
<asrwt>0</asrwt>
<pdfrwt beam="1">  1        2 0.45299132E+00 0.14959458E+04</pdfrwt>
<pdfrwt beam="2">  1       -1 0.29231772E-01 0.14959458E+04</pdfrwt>
<totfact> 0.22316460E+01</totfact>
</mgrwt>
</event>
<event>
12    7  0.1637954E-007  0.2053796E+04  0.7818608E-02  0.8581874E-01
         -1   -1    0    0    0  501 -0.00000000000E+00  0.00000000000E+00  0.13608519451E+04  0.13608519451E+04  0.00000000000E+00 0.  1.
          2   -1    0    0  501    0  0.00000000000E+00 -0.00000000000E+00 -0.77489633977E+03  0.77489633977E+03  0.00000000000E+00 0. -1.
         24    2    1    2    0    0  0.21254044063E+03  0.41701751840E+03 -0.47379996133E+03  0.67035494858E+03  0.76238469161E+02 0.  0.
        254    2    1    2    0    0 -0.21254044063E+03 -0.41701751840E+03  0.10597555667E+04  0.14653933363E+04  0.89733980157E+03 0.  0.
         23    2    4    4    0    0 -0.48507663656E+03 -0.51123171322E+03  0.75311340345E+03  0.10355172045E+04  0.91972138892E+02 0.  0.
         23    2    4    4    0    0  0.27253619594E+03  0.94214194824E+02  0.30664216325E+03  0.42987613188E+03  0.87245514927E+02 0.  0.
          4    1    3    3  502    0  0.19408187957E+03  0.40001702859E+03 -0.46599400510E+03  0.64407438385E+03  0.00000000000E+00 0. -1.
         -3    1    3    3    0  502  0.18458561057E+02  0.17000489807E+02 -0.78059562250E+01  0.26280564731E+02  0.00000000000E+00 0.  1.
         13    1    5    5    0    0 -0.33135642938E+03 -0.31234679420E+03  0.53647231328E+03  0.70367616561E+03  0.00000000000E+00 0.  1.
        -13    1    5    5    0    0 -0.15372020718E+03 -0.19888491903E+03  0.21664109017E+03  0.33184103884E+03  0.00000000000E+00 0. -1.
          4    1    6    6  503    0  0.38028377937E+01 -0.10603016954E+02  0.21528978188E+02  0.24297786846E+02  0.00000000000E+00 0. -1.
         -4    1    6    6    0  503  0.26873335814E+03  0.10481721178E+03  0.28511318507E+03  0.40557834504E+03  0.00000000000E+00 0.  1.
<mgrwt>
<rscale>  0 0.20537957E+04</rscale>
<asrwt>0</asrwt>
<pdfrwt beam="1">  1        2 0.11921482E+00 0.20537957E+04</pdfrwt>
<pdfrwt beam="2">  1       -1 0.20936184E+00 0.20537957E+04</pdfrwt>
<totfact> 0.49250285E+00</totfact>
</mgrwt>
</event>
<event>
12    7  0.1637954E-007  0.2485041E+04  0.7818608E-02  0.8408334E-01
         -1   -1    0    0    0  501 -0.00000000000E+00  0.00000000000E+00  0.74358752030E+03  0.74358752030E+03  0.00000000000E+00 0.  1.
          2   -1    0    0  501    0  0.00000000000E+00 -0.00000000000E+00 -0.20762282917E+04  0.20762282917E+04  0.00000000000E+00 0. -1.
         24    2    1    2    0    0 -0.17812990009E+03 -0.98257977144E+03 -0.10314800917E+04  0.14378611431E+04  0.79373917478E+02 0.  0.
        254    2    1    2    0    0  0.17812990009E+03  0.98257977144E+03 -0.30116067972E+03  0.13819546689E+04  0.90659124379E+03 0.  0.
         23    2    4    4    0    0  0.48828418850E+03  0.27036208944E+03 -0.14045128470E+03  0.58349912013E+03  0.96060146107E+02 0.  0.
         23    2    4    4    0    0 -0.31015428841E+03  0.71221768200E+03 -0.16070939502E+03  0.79845554877E+03  0.90851772348E+02 0.  0.
          2    1    3    3  502    0 -0.73212003751E+02 -0.42720315113E+03 -0.50426317505E+03  0.66493900437E+03  0.00000000000E+00 0. -1.
         -1    1    3    3    0  502 -0.10491789634E+03 -0.55537662032E+03 -0.52721691663E+03  0.77292213874E+03  0.00000000000E+00 0.  1.
         13    1    5    5    0    0  0.82916798001E+01 -0.72874714003E+01 -0.72737730149E+01  0.13219945809E+02  0.00000000000E+00 0. -1.
        -13    1    5    5    0    0  0.47999250870E+03  0.27764956084E+03 -0.13317751169E+03  0.57027917432E+03  0.00000000000E+00 0.  1.
          4    1    6    6  503    0 -0.26313212112E+01  0.49810056749E+02  0.31812145398E+01  0.49980853641E+02  0.00000000000E+00 0. -1.
         -4    1    6    6    0  503 -0.30752296720E+03  0.66240762526E+03 -0.16389060956E+03  0.74847469513E+03  0.00000000000E+00 0.  1.
<mgrwt>
<rscale>  0 0.24850412E+04</rscale>
<asrwt>0</asrwt>
<pdfrwt beam="1">  1        2 0.31941973E+00 0.24850412E+04</pdfrwt>
<pdfrwt beam="2">  1       -1 0.11439808E+00 0.24850412E+04</pdfrwt>
<totfact> 0.42782762E+00</totfact>
</mgrwt>
</event>
<event>
12    7  0.1637954E-007  0.1332034E+04  0.7818608E-02  0.9004540E-01
          2   -1    0    0  501    0  0.00000000000E+00  0.00000000000E+00  0.26222586036E+04  0.26222586036E+04  0.00000000000E+00 0. -1.
         -1   -1    0    0    0  501 -0.00000000000E+00 -0.00000000000E+00 -0.16915910011E+03  0.16915910011E+03  0.00000000000E+00 0.  1.
         24    2    1    2    0    0  0.21012693590E+03  0.51656479665E+02  0.12091985559E+04  0.12311025627E+04  0.81428811266E+02 0.  0.
        254    2    1    2    0    0 -0.21012693590E+03 -0.51656479665E+02  0.12439009476E+04  0.15603151410E+04  0.91677262757E+03 0.  0.
         23    2    4    4    0    0 -0.40906737735E+03  0.30701502245E+03  0.64006216316E+03  0.82444958794E+03  0.91886925783E+02 0.  0.
         23    2    4    4    0    0  0.19894044145E+03 -0.35867150211E+03  0.60383878443E+03  0.73586555303E+03  0.93028430530E+02 0.  0.
          2    1    3    3  502    0  0.21584062769E+03  0.45716750121E+02  0.11888356831E+04  0.12091350128E+04  0.00000000000E+00 0. -1.
         -1    1    3    3    0  502 -0.57136917851E+01  0.59397295445E+01  0.20362872776E+02  0.21967549899E+02  0.00000000000E+00 0.  1.
         13    1    5    5    0    0 -0.32648522658E+03  0.19437911504E+03  0.46506871349E+03  0.60055370435E+03  0.00000000000E+00 0. -1.
        -13    1    5    5    0    0 -0.82582150768E+02  0.11263590741E+03  0.17499344966E+03  0.22389588359E+03  0.00000000000E+00 0.  1.
          1    1    6    6  503    0  0.86645169725E+02 -0.11362919132E+03  0.14412350239E+03  0.20295458236E+03  0.00000000000E+00 0. -1.
         -1    1    6    6    0  503  0.11229527172E+03 -0.24504231079E+03  0.45971528204E+03  0.53291097068E+03  0.00000000000E+00 0.  1.
<mgrwt>
<rscale>  0 0.13320344E+04</rscale>
<asrwt>0</asrwt>
<pdfrwt beam="1">  1        2 0.40342437E+00 0.13320344E+04</pdfrwt>
<pdfrwt beam="2">  1       -1 0.26024479E-01 0.13320344E+04</pdfrwt>
<totfact> 0.43236373E+01</totfact>
</mgrwt>
</event>
<event>
12    7  0.1637954E-007  0.1388244E+04  0.7818608E-02  0.8962372E-01
         -1   -1    0    0    0  501 -0.00000000000E+00  0.00000000000E+00  0.19922229243E+03  0.19922229243E+03  0.00000000000E+00 0.  1.
          2   -1    0    0  501    0  0.00000000000E+00 -0.00000000000E+00 -0.24184303246E+04  0.24184303246E+04  0.00000000000E+00 0. -1.
         24    2    1    2    0    0  0.25385300270E+03 -0.50260907700E+02 -0.96366097645E+02  0.29067983910E+03  0.90779062900E+02 0.  0.
        254    2    1    2    0    0 -0.25385300270E+03  0.50260907700E+02 -0.21228419345E+04  0.23269727780E+04  0.91726600529E+03 0.  0.
         23    2    4    4    0    0 -0.54818356653E+03 -0.34239160738E+02 -0.86232080811E+03  0.10265991533E+04  0.92903728294E+02 0.  0.
         23    2    4    4    0    0  0.29433056384E+03  0.84500068438E+02 -0.12605211264E+04  0.13003736246E+04  0.91034669839E+02 0.  0.
          2    1    3    3  502    0  0.75027122085E+02 -0.49434370557E+02 -0.60421123450E+02  0.10827528896E+03  0.00000000000E+00 0. -1.
         -1    1    3    3    0  502  0.17882588061E+03 -0.82653714278E+00 -0.35944974195E+02  0.18240455014E+03  0.00000000000E+00 0.  1.
         13    1    5    5    0    0 -0.18473471491E+03  0.28628402684E+02 -0.32339716769E+03  0.37354012958E+03  0.00000000000E+00 0.  1.
        -13    1    5    5    0    0 -0.36344885163E+03 -0.62867563422E+02 -0.53892364042E+03  0.65305902374E+03  0.00000000000E+00 0. -1.
          4    1    6    6  503    0  0.21718210347E+03  0.89295615210E+02 -0.81329436794E+03  0.84651609664E+03  0.00000000000E+00 0. -1.
         -4    1    6    6    0  503  0.77148460369E+02 -0.47955467725E+01 -0.44722675850E+03  0.45385752801E+03  0.00000000000E+00 0.  1.
<mgrwt>
<rscale>  0 0.13882438E+04</rscale>
<asrwt>0</asrwt>
<pdfrwt beam="1">  1        2 0.37206622E+00 0.13882438E+04</pdfrwt>
<pdfrwt beam="2">  1       -1 0.30649583E-01 0.13882438E+04</pdfrwt>
<totfact> 0.42429278E+01</totfact>
</mgrwt>
</event>
<event>
12    7  0.1637954E-007  0.1818004E+04  0.7818608E-02  0.8696783E-01
         -1   -1    0    0    0  501 -0.00000000000E+00  0.00000000000E+00  0.61399795788E+03  0.61399795788E+03  0.00000000000E+00 0.  1.
          2   -1    0    0  501    0  0.00000000000E+00 -0.00000000000E+00 -0.13457447518E+04  0.13457447518E+04  0.00000000000E+00 0. -1.
         24    2    1    2    0    0  0.52133502424E+03  0.10540519478E+03 -0.73353305247E+03  0.90953463689E+03  0.79259409766E+02 0.  0.
        254    2    1    2    0    0 -0.52133502424E+03 -0.10540519478E+03  0.17862586011E+01  0.10502080728E+04  0.90555692409E+03 0.  0.
         23    2    4    4    0    0 -0.48403058556E+03 -0.26438783804E+03  0.34728526016E+03  0.65819595831E+03  0.91805941778E+02 0.  0.
         23    2    4    4    0    0 -0.37304438685E+02  0.15898264327E+03 -0.34549900156E+03  0.39201211445E+03  0.87388991256E+02 0.  0.
          4    1    3    3  502    0  0.42371972390E+03  0.91229232305E+02 -0.64431395949E+03  0.77653181239E+03  0.00000000000E+00 0. -1.
         -3    1    3    3    0  502  0.97615300341E+02  0.14175962472E+02 -0.89219092979E+02  0.13300282450E+03  0.00000000000E+00 0.  1.
         13    1    5    5    0    0 -0.44163309243E+03 -0.26607168491E+03  0.33128332603E+03  0.61284791910E+03  0.00000000000E+00 0. -1.
        -13    1    5    5    0    0 -0.42397493131E+02  0.16838468681E+01  0.16001934130E+02  0.45348039208E+02  0.00000000000E+00 0.  1.
          1    1    6    6  503    0 -0.28130304074E+02  0.16332273528E+03 -0.27720297560E+03  0.32296612756E+03  0.00000000000E+00 0. -1.
         -1    1    6    6    0  503 -0.91741346108E+01 -0.43400920157E+01 -0.68296025955E+02  0.69045986892E+02  0.00000000000E+00 0.  1.
<mgrwt>
<rscale>  0 0.18180039E+04</rscale>
<asrwt>0</asrwt>
<pdfrwt beam="1">  1        2 0.20703766E+00 0.18180039E+04</pdfrwt>
<pdfrwt beam="2">  1       -1 0.94461224E-01 0.18180039E+04</pdfrwt>
<totfact> 0.18122347E+01</totfact>
</mgrwt>
</event>
<event>
12    7  0.1637954E-007  0.2807055E+04  0.7818608E-02  0.8301081E-01
         -1   -1    0    0    0  501 -0.00000000000E+00  0.00000000000E+00  0.11600610031E+04  0.11600610031E+04  0.00000000000E+00 0.  1.
          2   -1    0    0  501    0  0.00000000000E+00 -0.00000000000E+00 -0.16980916416E+04  0.16980916416E+04  0.00000000000E+00 0. -1.
         24    2    1    2    0    0 -0.16830330288E+03  0.11765984226E+04 -0.65550887764E+03  0.13597422813E+04  0.80606037444E+02 0.  0.
        254    2    1    2    0    0  0.16830330288E+03 -0.11765984226E+04  0.11747823912E+03  0.14984103633E+04  0.90483292959E+03 0.  0.
         23    2    4    4    0    0  0.30334587012E+03 -0.12600918659E+04  0.16386297375E+03  0.13094003982E+04  0.88476557514E+02 0.  0.
         23    2    4    4    0    0 -0.13504256725E+03  0.83493443334E+02 -0.46384734634E+02  0.18900996510E+03  0.91463507763E+02 0.  0.
          2    1    3    3  502    0 -0.17446315483E+03  0.10518608027E+04 -0.57937113188E+03  0.12134741238E+04  0.00000000000E+00 0. -1.
         -1    1    3    3    0  502  0.61598519511E+01  0.12473761987E+03 -0.76137745761E+02  0.14626815756E+03  0.00000000000E+00 0.  1.
         13    1    5    5    0    0  0.22365964257E+03 -0.10612838710E+04  0.14773354163E+03  0.10946105654E+04  0.00000000000E+00 0.  1.
        -13    1    5    5    0    0  0.79686227557E+02 -0.19880799494E+03  0.16129432119E+02  0.21478983285E+03  0.00000000000E+00 0. -1.
          4    1    6    6  503    0 -0.13316461410E+03  0.39087177290E+02 -0.34819282681E+02  0.14308390659E+03  0.00000000000E+00 0. -1.
         -4    1    6    6    0  503 -0.18779531458E+01  0.44406266044E+02 -0.11565451953E+02  0.45926058516E+02  0.00000000000E+00 0.  1.
<mgrwt>
<rscale>  0 0.28070553E+04</rscale>
<asrwt>0</asrwt>
<pdfrwt beam="1">  1        2 0.26124487E+00 0.28070553E+04</pdfrwt>
<pdfrwt beam="2">  1       -1 0.17847093E+00 0.28070553E+04</pdfrwt>
<totfact> 0.20774454E+00</totfact>
</mgrwt>
</event>
<event>
12    7  0.1637954E-007  0.2699879E+04  0.7818608E-02  0.8335044E-01
          2   -1    0    0  501    0  0.00000000000E+00  0.00000000000E+00  0.21699142228E+04  0.21699142228E+04  0.00000000000E+00 0. -1.
         -1   -1    0    0    0  501 -0.00000000000E+00 -0.00000000000E+00 -0.83981992548E+03  0.83981992548E+03  0.00000000000E+00 0.  1.
         24    2    1    2    0    0 -0.28314170174E+03  0.10367956573E+04 -0.82100175739E+01  0.10776763896E+04  0.78768890323E+02 0.  0.
        254    2    1    2    0    0  0.28314170174E+03 -0.10367956573E+04  0.13383043148E+04  0.19320577586E+04  0.88694660789E+03 0.  0.
         23    2    4    4    0    0  0.96047359374E+02 -0.98643956076E+03  0.13907731266E+04  0.17102217509E+04  0.91216475995E+02 0.  0.
         23    2    4    4    0    0  0.18709434237E+03 -0.50356096545E+02 -0.52468811728E+02  0.22183600769E+03  0.94436267920E+02 0.  0.
          2    1    3    3  502    0 -0.97442927224E+00  0.86453416873E+01 -0.75350178777E+01  0.11509471739E+02  0.00000000000E+00 0. -1.
         -1    1    3    3    0  502 -0.28216727247E+03  0.10281503156E+04 -0.67499969623E+00  0.10661669179E+04  0.00000000000E+00 0.  1.
         13    1    5    5    0    0  0.39644118818E+02 -0.51852085297E+03  0.65324987108E+03  0.83496761924E+03  0.00000000000E+00 0.  1.
        -13    1    5    5    0    0  0.56403240556E+02 -0.46791870779E+03  0.73752325549E+03  0.87525413168E+03  0.00000000000E+00 0. -1.
          4    1    6    6  503    0  0.17922049232E+03 -0.65586982953E+02 -0.29403994622E+02  0.19309643213E+03  0.00000000000E+00 0. -1.
         -4    1    6    6    0  503  0.78738500454E+01  0.15230886409E+02 -0.23064817106E+02  0.28739575562E+02  0.00000000000E+00 0.  1.
<mgrwt>
<rscale>  0 0.26998794E+04</rscale>
<asrwt>0</asrwt>
<pdfrwt beam="1">  1        2 0.33383296E+00 0.26998794E+04</pdfrwt>
<pdfrwt beam="2">  1       -1 0.12920307E+00 0.26998794E+04</pdfrwt>
<totfact> 0.27592074E+00</totfact>
</mgrwt>
</event>
<event>
12    7  0.1637954E-007  0.1268254E+04  0.7818608E-02  0.9055125E-01
         -1   -1    0    0    0  501 -0.00000000000E+00  0.00000000000E+00  0.42349092192E+03  0.42349092192E+03  0.00000000000E+00 0.  1.
          2   -1    0    0  501    0  0.00000000000E+00 -0.00000000000E+00 -0.94953006718E+03  0.94953006718E+03  0.00000000000E+00 0. -1.
         24    2    1    2    0    0 -0.64008029768E+01 -0.12580740710E+03  0.16093840309E+03  0.21884907296E+03  0.78264124528E+02 0.  0.
        254    2    1    2    0    0  0.64008029768E+01  0.12580740710E+03 -0.68697754835E+03  0.11541719161E+04  0.91886135305E+03 0.  0.
         23    2    4    4    0    0  0.10876944243E+03  0.81263609164E+02 -0.89000244104E+03  0.90497234532E+03  0.91847890330E+02 0.  0.
         23    2    4    4    0    0 -0.10236863945E+03  0.44543797933E+02  0.20302489269E+03  0.24919957082E+03  0.91748737155E+02 0.  0.
          2    1    3    3  502    0 -0.15531749653E+02 -0.87045727486E+01  0.64379734416E+02  0.66796369943E+02  0.00000000000E+00 0. -1.
         -1    1    3    3    0  502  0.91309466758E+01 -0.11710283435E+03  0.96558668674E+02  0.15205270302E+03  0.00000000000E+00 0.  1.
         13    1    5    5    0    0 -0.91776333879E+00  0.33655689639E+01  0.11874630714E+01  0.36850254467E+01  0.00000000000E+00 0.  1.
        -13    1    5    5    0    0  0.10968720577E+03  0.77898040200E+02 -0.89118990411E+03  0.90128731988E+03  0.00000000000E+00 0. -1.
          4    1    6    6  503    0 -0.90885445971E+02  0.58205273315E+02  0.20456204159E+03  0.23128693649E+03  0.00000000000E+00 0. -1.
         -4    1    6    6    0  503 -0.11483193480E+02 -0.13661475382E+02 -0.15371488985E+01  0.17912634335E+02  0.00000000000E+00 0.  1.
<mgrwt>
<rscale>  0 0.12682545E+04</rscale>
<asrwt>0</asrwt>
<pdfrwt beam="1">  1        2 0.14608155E+00 0.12682545E+04</pdfrwt>
<pdfrwt beam="2">  1       -1 0.65152450E-01 0.12682545E+04</pdfrwt>
<totfact> 0.72737513E+01</totfact>
</mgrwt>
</event>
<event>
12    7  0.1637954E-007  0.3366398E+04  0.7818608E-02  0.8146203E-01
         -1   -1    0    0    0  501 -0.00000000000E+00  0.00000000000E+00  0.12380969023E+04  0.12380969023E+04  0.00000000000E+00 0.  1.
          2   -1    0    0  501    0  0.00000000000E+00 -0.00000000000E+00 -0.22883171142E+04  0.22883171142E+04  0.00000000000E+00 0. -1.
         24    2    1    2    0    0  0.38056450066E+03  0.15146831858E+04 -0.56646806813E+03  0.16635820618E+04  0.86745095574E+02 0.  0.
        254    2    1    2    0    0 -0.38056450066E+03 -0.15146831858E+04 -0.48375214378E+03  0.18628319547E+04  0.89276663377E+03 0.  0.
         23    2    4    4    0    0 -0.87962614622E+02 -0.53153378461E+03 -0.61726194992E+03  0.82439864632E+03  0.91406933400E+02 0.  0.
         23    2    4    4    0    0 -0.29260188604E+03 -0.98314940120E+03  0.13350980614E+03  0.10384333084E+04  0.91215453056E+02 0.  0.
          4    1    3    3  502    0  0.83719706502E+02  0.35411179441E+03 -0.17107925190E+03  0.40208489480E+03  0.00000000000E+00 0. -1.
         -3    1    3    3    0  502  0.29684479416E+03  0.11605713914E+04 -0.39538881623E+03  0.12614971670E+04  0.00000000000E+00 0.  1.
         13    1    5    5    0    0 -0.30135620882E+02 -0.41653792053E+03 -0.47905778189E+03  0.63553784567E+03  0.00000000000E+00 0.  1.
        -13    1    5    5    0    0 -0.57826993740E+02 -0.11499586408E+03 -0.13820416803E+03  0.18886080064E+03  0.00000000000E+00 0. -1.
          3    1    6    6  503    0 -0.22340552171E+03 -0.85033474590E+03  0.12900245440E+03  0.88860612223E+03  0.00000000000E+00 0. -1.
         -3    1    6    6    0  503 -0.69196364325E+02 -0.13281465530E+03  0.45073517352E+01  0.14982718618E+03  0.00000000000E+00 0.  1.
<mgrwt>
<rscale>  0 0.33663977E+04</rscale>
<asrwt>0</asrwt>
<pdfrwt beam="1">  1        2 0.35204879E+00 0.33663977E+04</pdfrwt>
<pdfrwt beam="2">  1       -1 0.19047645E+00 0.33663977E+04</pdfrwt>
<totfact> 0.76222538E-01</totfact>
</mgrwt>
</event>
<event>
12    7  0.1637954E-007  0.1762387E+04  0.7818608E-02  0.8726561E-01
          2   -1    0    0  501    0  0.00000000000E+00  0.00000000000E+00  0.22658269766E+04  0.22658269766E+04  0.00000000000E+00 0. -1.
         -3   -1    0    0    0  501 -0.00000000000E+00 -0.00000000000E+00 -0.34270146266E+03  0.34270146266E+03  0.00000000000E+00 0.  1.
         24    2    1    2    0    0  0.18972911163E+03 -0.49107412019E+03  0.15293560569E+03  0.55306554283E+03  0.73083978108E+02 0.  0.
        254    2    1    2    0    0 -0.18972911163E+03  0.49107412019E+03  0.17701899082E+04  0.20554628964E+04  0.90233279890E+03 0.  0.
         23    2    4    4    0    0  0.74570101544E+02  0.40364798953E+03  0.21737677302E+03  0.47487005672E+03  0.98775046567E+02 0.  0.
         23    2    4    4    0    0 -0.26429921317E+03  0.87426130664E+02  0.15528131352E+04  0.15805928397E+04  0.97712279618E+02 0.  0.
          4    1    3    3  502    0  0.71050621215E+02 -0.14283279823E+03  0.78111519932E+02  0.17762547276E+03  0.00000000000E+00 0. -1.
         -3    1    3    3    0  502  0.11867849041E+03 -0.34824132196E+03  0.74824085757E+02  0.37544007007E+03  0.00000000000E+00 0.  1.
         13    1    5    5    0    0  0.84016530711E+01 -0.34802866651E+01  0.88314404976E+01  0.12676533866E+02  0.00000000000E+00 0.  1.
        -13    1    5    5    0    0  0.66168448473E+02  0.40712827619E+03  0.20854533253E+03  0.46219352285E+03  0.00000000000E+00 0. -1.
          1    1    6    6  503    0 -0.17833302146E+03  0.10526735750E+03  0.10669746257E+04  0.10868848766E+04  0.00000000000E+00 0. -1.
         -1    1    6    6    0  503 -0.85966191707E+02 -0.17841226836E+02  0.48583850950E+03  0.49370796308E+03  0.00000000000E+00 0.  1.
<mgrwt>
<rscale>  0 0.17623873E+04</rscale>
<asrwt>0</asrwt>
<pdfrwt beam="1">  1        2 0.34858876E+00 0.17623873E+04</pdfrwt>
<pdfrwt beam="2">  1       -3 0.52723303E-01 0.17623873E+04</pdfrwt>
<totfact> 0.10273537E+01</totfact>
</mgrwt>
</event>
<event>
12    7  0.1637954E-007  0.1279341E+04  0.7818608E-02  0.9046111E-01
         -1   -1    0    0    0  501 -0.00000000000E+00  0.00000000000E+00  0.13330507797E+04  0.13330507797E+04  0.00000000000E+00 0.  1.
          2   -1    0    0  501    0  0.00000000000E+00 -0.00000000000E+00 -0.30694857141E+03  0.30694857141E+03  0.00000000000E+00 0. -1.
         24    2    1    2    0    0 -0.14947311287E+03 -0.14138366239E+03 -0.48864010522E+02  0.22562428842E+03  0.78657971881E+02 0.  0.
        254    2    1    2    0    0  0.14947311287E+03  0.14138366239E+03  0.10749662188E+04  0.14143750626E+04  0.89586432838E+03 0.  0.
         23    2    4    4    0    0 -0.25593539345E+03  0.49417485779E+01  0.19769355269E+02  0.27199257049E+03  0.89787440613E+02 0.  0.
         23    2    4    4    0    0  0.40540850632E+03  0.13644191381E+03  0.10551968635E+04  0.11423824922E+04  0.92870257877E+02 0.  0.
          2    1    3    3  502    0 -0.10250309957E+03 -0.13332759202E+03 -0.18671691169E+02  0.16920923222E+03  0.00000000000E+00 0. -1.
         -1    1    3    3    0  502 -0.46970013292E+02 -0.80560703677E+01 -0.30192319353E+02  0.56415056203E+02  0.00000000000E+00 0.  1.
         13    1    5    5    0    0 -0.18323475993E+03 -0.24162249972E+02  0.44063335627E+02  0.19000097136E+03  0.00000000000E+00 0. -1.
        -13    1    5    5    0    0 -0.72700633521E+02  0.29103998550E+02 -0.24293980358E+02  0.81991599128E+02  0.00000000000E+00 0.  1.
          2    1    6    6  503    0  0.30036868003E+03  0.11295029935E+03  0.88088940866E+03  0.93752080743E+03  0.00000000000E+00 0.  1.
         -2    1    6    6    0  503  0.10503982629E+03  0.23491614459E+02  0.17430745484E+03  0.20486168473E+03  0.00000000000E+00 0. -1.
<mgrwt>
<rscale>  0 0.12793405E+04</rscale>
<asrwt>0</asrwt>
<pdfrwt beam="1">  1        2 0.47222858E-01 0.12793405E+04</pdfrwt>
<pdfrwt beam="2">  1       -1 0.20508473E+00 0.12793405E+04</pdfrwt>
<totfact> 0.16713373E+01</totfact>
</mgrwt>
</event>
<event>
12    7  0.1637954E-007  0.2173634E+04  0.7818608E-02  0.8529483E-01
         -1   -1    0    0    0  501 -0.00000000000E+00  0.00000000000E+00  0.72376583297E+03  0.72376583297E+03  0.00000000000E+00 0.  1.
          2   -1    0    0  501    0  0.00000000000E+00 -0.00000000000E+00 -0.16319805060E+04  0.16319805060E+04  0.00000000000E+00 0. -1.
         24    2    1    2    0    0 -0.33057890784E+03 -0.44519281150E+03  0.37515109975E+03  0.67441411501E+03  0.81344927077E+02 0.  0.
        254    2    1    2    0    0  0.33057890784E+03  0.44519281150E+03 -0.12833657728E+04  0.16813322239E+04  0.93400818351E+03 0.  0.
         23    2    4    4    0    0 -0.17436806937E+03  0.36547524764E+03 -0.10171705685E+04  0.10977417188E+04  0.80153200491E+02 0.  0.
         23    2    4    4    0    0  0.50494697720E+03  0.79717563859E+02 -0.26619520430E+03  0.58359050517E+03  0.91605955904E+02 0.  0.
          2    1    3    3  502    0 -0.92451304851E+02 -0.94029483862E+02  0.12597021117E+03  0.18236579095E+03  0.00000000000E+00 0. -1.
         -3    1    3    3    0  502 -0.23812760298E+03 -0.35116332764E+03  0.24918088858E+03  0.49204832406E+03  0.00000000000E+00 0.  1.
         13    1    5    5    0    0 -0.14859283102E+03  0.34281277262E+03 -0.87398033480E+03  0.95049568758E+03  0.00000000000E+00 0. -1.
        -13    1    5    5    0    0 -0.25775238344E+02  0.22662475019E+02 -0.14319023366E+03  0.14724603119E+03  0.00000000000E+00 0.  1.
          1    1    6    6  503    0  0.14820173340E+03 -0.16895128843E+02 -0.89217858557E+02  0.17380743784E+03  0.00000000000E+00 0. -1.
         -1    1    6    6    0  503  0.35674524380E+03  0.96612692702E+02 -0.17697734574E+03  0.40978306733E+03  0.00000000000E+00 0.  1.
<mgrwt>
<rscale>  0 0.21736345E+04</rscale>
<asrwt>0</asrwt>
<pdfrwt beam="1">  1        2 0.25107392E+00 0.21736345E+04</pdfrwt>
<pdfrwt beam="2">  1       -1 0.11134859E+00 0.21736345E+04</pdfrwt>
<totfact> 0.82781713E+00</totfact>
</mgrwt>
</event>
<event>
12    7  0.1637954E-007  0.1362929E+04  0.7818608E-02  0.8981098E-01
         -1   -1    0    0    0  501 -0.00000000000E+00  0.00000000000E+00  0.12979693387E+04  0.12979693387E+04  0.00000000000E+00 0.  1.
          2   -1    0    0  501    0  0.00000000000E+00 -0.00000000000E+00 -0.35778506662E+03  0.35778506662E+03  0.00000000000E+00 0. -1.
         24    2    1    2    0    0  0.38530434899E+03 -0.11045077809E+03  0.12409283746E+03  0.42754647672E+03  0.82086184695E+02 0.  0.
        254    2    1    2    0    0 -0.38530434899E+03  0.11045077809E+03  0.81609143465E+03  0.12282079286E+04  0.82573038608E+03 0.  0.
         23    2    4    4    0    0 -0.43672001555E+03  0.11236671893E+03  0.58420071202E+02  0.46356560389E+03  0.90163811405E+02 0.  0.
         23    2    4    4    0    0  0.51415666561E+02 -0.19159408346E+01  0.75767136345E+03  0.76464232474E+03  0.89245437916E+02 0.  0.
          4    1    3    3  502    0  0.16901160286E+02  0.11591440851E+02  0.11266554842E+02  0.23386876192E+02  0.00000000000E+00 0. -1.
         -3    1    3    3    0  502  0.36840318870E+03 -0.12204221895E+03  0.11282628261E+03  0.40415960053E+03  0.00000000000E+00 0.  1.
         13    1    5    5    0    0 -0.17859861280E+02 -0.13621071508E+02  0.21711175763E+01  0.22565947476E+02  0.00000000000E+00 0.  1.
        -13    1    5    5    0    0 -0.41886015427E+03  0.12598779044E+03  0.56248953626E+02  0.44099965642E+03  0.00000000000E+00 0. -1.
          4    1    6    6  503    0  0.52230273917E+02 -0.37998757777E+02  0.55900029587E+03  0.56271950196E+03  0.00000000000E+00 0. -1.
         -4    1    6    6    0  503 -0.81460735612E+00  0.36082816942E+02  0.19867106759E+03  0.20192282278E+03  0.00000000000E+00 0.  1.
<mgrwt>
<rscale>  0 0.13629293E+04</rscale>
<asrwt>0</asrwt>
<pdfrwt beam="1">  1        2 0.55043857E-01 0.13629293E+04</pdfrwt>
<pdfrwt beam="2">  1       -1 0.19968759E+00 0.13629293E+04</pdfrwt>
<totfact> 0.15233463E+01</totfact>
</mgrwt>
</event>
<event>
12    7  0.1637954E-007  0.2051753E+04  0.7818608E-02  0.8582800E-01
          2   -1    0    0  501    0  0.00000000000E+00  0.00000000000E+00  0.14870794419E+04  0.14870794419E+04  0.00000000000E+00 0. -1.
         -1   -1    0    0    0  501 -0.00000000000E+00 -0.00000000000E+00 -0.70771089234E+03  0.70771089234E+03  0.00000000000E+00 0.  1.
         24    2    1    2    0    0  0.27376816213E+03  0.30017613246E+03 -0.45324665576E+03  0.61298233656E+03  0.72526525329E+02 0.  0.
        254    2    1    2    0    0 -0.27376816213E+03 -0.30017613246E+03  0.12326152053E+04  0.15818079977E+04  0.90427959174E+03 0.  0.
         23    2    4    4    0    0 -0.23734722154E+03  0.13365466709E+03  0.15798752450E+02  0.28646016080E+03  0.87249925713E+02 0.  0.
         23    2    4    4    0    0 -0.36420940588E+02 -0.43383079955E+03  0.12168164529E+04  0.12953478369E+04  0.88023241109E+02 0.  0.
          2    1    3    3  502    0  0.42672064169E+02  0.73500822749E+02 -0.62105057876E+02  0.10526307149E+03  0.00000000000E+00 0. -1.
         -1    1    3    3    0  502  0.23109609796E+03  0.22667530971E+03 -0.39114159789E+03  0.50771926507E+03  0.00000000000E+00 0.  1.
         13    1    5    5    0    0 -0.34241043572E+02  0.58637778684E+02  0.16759941731E+02  0.69940930796E+02  0.00000000000E+00 0.  1.
        -13    1    5    5    0    0 -0.20310617797E+03  0.75016888408E+02 -0.96118928079E+00  0.21651923000E+03  0.00000000000E+00 0. -1.
          3    1    6    6  503    0  0.16555556482E+02 -0.12692307783E+03  0.44557476281E+03  0.46359510717E+03  0.00000000000E+00 0. -1.
         -3    1    6    6    0  503 -0.52976497070E+02 -0.30690772172E+03  0.77124169008E+03  0.83175272973E+03  0.00000000000E+00 0.  1.
<mgrwt>
<rscale>  0 0.20517527E+04</rscale>
<asrwt>0</asrwt>
<pdfrwt beam="1">  1        2 0.22878145E+00 0.20517527E+04</pdfrwt>
<pdfrwt beam="2">  1       -1 0.10887860E+00 0.20517527E+04</pdfrwt>
<totfact> 0.10640143E+01</totfact>
</mgrwt>
</event>
<event>
12    7  0.1637954E-007  0.2276459E+04  0.7818608E-02  0.8487261E-01
          2   -1    0    0  501    0  0.00000000000E+00  0.00000000000E+00  0.28781499899E+04  0.28781499899E+04  0.00000000000E+00 0. -1.
         -1   -1    0    0    0  501 -0.00000000000E+00 -0.00000000000E+00 -0.45013857930E+03  0.45013857930E+03  0.00000000000E+00 0.  1.
         24    2    1    2    0    0  0.82388567375E+03  0.19052832254E+03  0.17012436988E+04  0.19016160236E+04  0.82611943537E+02 0.  0.
        254    2    1    2    0    0 -0.82388567375E+03 -0.19052832254E+03  0.72676771178E+03  0.14266725456E+04  0.89000820248E+03 0.  0.
         23    2    4    4    0    0 -0.72190929473E+03 -0.50353366866E+03  0.52610535300E+03  0.10293506165E+04  0.89870261846E+02 0.  0.
         23    2    4    4    0    0 -0.10197637901E+03  0.31300534612E+03  0.20066235878E+03  0.39732192912E+03  0.96061462361E+02 0.  0.
          4    1    3    3  502    0  0.79751366235E+03  0.19588743800E+03  0.16241888442E+04  0.18199970692E+04  0.00000000000E+00 0. -1.
         -3    1    3    3    0  502  0.26372011394E+02 -0.53591154663E+01  0.77054854586E+02  0.81618954409E+02  0.00000000000E+00 0.  1.
         13    1    5    5    0    0 -0.21881288627E+03 -0.12534600938E+03  0.19076379082E+03  0.31619855337E+03  0.00000000000E+00 0. -1.
        -13    1    5    5    0    0 -0.50309640847E+03 -0.37818765927E+03  0.33534156218E+03  0.71315206314E+03  0.00000000000E+00 0.  1.
          4    1    6    6  503    0 -0.84738341874E+01  0.11138222264E+03  0.26094013471E+02  0.11471138970E+03  0.00000000000E+00 0. -1.
         -4    1    6    6    0  503 -0.93502544825E+02  0.20162312348E+03  0.17456834531E+03  0.28261053942E+03  0.00000000000E+00 0.  1.
<mgrwt>
<rscale>  0 0.22764590E+04</rscale>
<asrwt>0</asrwt>
<pdfrwt beam="1">  1        2 0.44279229E+00 0.22764590E+04</pdfrwt>
<pdfrwt beam="2">  1       -1 0.69252091E-01 0.22764590E+04</pdfrwt>
<totfact> 0.45197351E+00</totfact>
</mgrwt>
</event>
<event>
12    7  0.1637954E-007  0.1078544E+04  0.7818608E-02  0.9226361E-01
          2   -1    0    0  501    0  0.00000000000E+00  0.00000000000E+00  0.38134603338E+03  0.38134603338E+03  0.00000000000E+00 0. -1.
         -1   -1    0    0    0  501 -0.00000000000E+00 -0.00000000000E+00 -0.76259910464E+03  0.76259910464E+03  0.00000000000E+00 0.  1.
         24    2    1    2    0    0  0.67810622070E+02  0.22992497151E+03 -0.17772862747E+03  0.30903639418E+03  0.80325929278E+02 0.  0.
        254    2    1    2    0    0 -0.67810622070E+02 -0.22992497151E+03 -0.20352444379E+03  0.83490874384E+03  0.77342526358E+03 0.  0.
         23    2    4    4    0    0 -0.37273919030E+02  0.22781472252E+03 -0.26539458246E+03  0.36329426190E+03  0.90882030678E+02 0.  0.
         23    2    4    4    0    0 -0.30536703040E+02 -0.45773969403E+03  0.61870138660E+02  0.47161448194E+03  0.90189732204E+02 0.  0.
          2    1    3    3  502    0 -0.62194805813E+01  0.14795727196E+02 -0.39963473626E+02  0.43065934405E+02  0.00000000000E+00 0. -1.
         -1    1    3    3    0  502  0.74030102651E+02  0.21512924431E+03 -0.13776515385E+03  0.26597045977E+03  0.00000000000E+00 0.  1.
         13    1    5    5    0    0 -0.31185216920E+02  0.20013235468E+03 -0.26673036388E+03  0.33491874262E+03  0.00000000000E+00 0. -1.
        -13    1    5    5    0    0 -0.60887021099E+01  0.27682367844E+02  0.13357814224E+01  0.28375519287E+02  0.00000000000E+00 0.  1.
          2    1    6    6  503    0 -0.38658199847E+02 -0.43521738407E+03  0.76470024917E+02  0.44357219539E+03  0.00000000000E+00 0. -1.
         -2    1    6    6    0  503  0.81214968071E+01 -0.22522309961E+02 -0.14599886256E+02  0.28042286552E+02  0.00000000000E+00 0.  1.
<mgrwt>
<rscale>  0 0.10785437E+04</rscale>
<asrwt>0</asrwt>
<pdfrwt beam="1">  1        2 0.58668621E-01 0.10785437E+04</pdfrwt>
<pdfrwt beam="2">  1       -1 0.11732294E+00 0.10785437E+04</pdfrwt>
<totfact> 0.62498670E+01</totfact>
</mgrwt>
</event>
<event>
12    7  0.1637954E-007  0.3114991E+04  0.7818608E-02  0.8211636E-01
          2   -1    0    0  501    0  0.00000000000E+00  0.00000000000E+00  0.37639993508E+04  0.37639993508E+04  0.00000000000E+00 0. -1.
         -1   -1    0    0    0  501 -0.00000000000E+00 -0.00000000000E+00 -0.64447212378E+03  0.64447212378E+03  0.00000000000E+00 0.  1.
         24    2    1    2    0    0 -0.52487982054E+03 -0.13346276530E+04  0.14616042977E+04  0.20492670667E+04  0.80489687409E+02 0.  0.
        254    2    1    2    0    0  0.52487982054E+03  0.13346276530E+04  0.16579229293E+04  0.23592044078E+04  0.87201330274E+03 0.  0.
         23    2    4    4    0    0  0.50977622411E+03  0.45470260549E+03  0.33179284498E+03  0.76521439914E+03  0.94023010833E+02 0.  0.
         23    2    4    4    0    0  0.15103596430E+02  0.87992504749E+03  0.13261300844E+04  0.15939900087E+04  0.87675192060E+02 0.  0.
          2    1    3    3  502    0 -0.32283721459E+03 -0.86815398543E+03  0.99222261656E+03  0.13573580701E+04  0.00000000000E+00 0. -1.
         -1    1    3    3    0  502 -0.20204260595E+03 -0.46647366754E+03  0.46938168111E+03  0.69190899669E+03  0.00000000000E+00 0.  1.
         13    1    5    5    0    0  0.41269669693E+03  0.38037554627E+03  0.30950122632E+03  0.64093301441E+03  0.00000000000E+00 0.  1.
        -13    1    5    5    0    0  0.97079527183E+02  0.74327059214E+02  0.22291618655E+02  0.12428138474E+03  0.00000000000E+00 0. -1.
          2    1    6    6  503    0 -0.21954333405E+02  0.53761454175E+03  0.75522995697E+03  0.92729912981E+03  0.00000000000E+00 0.  1.
         -2    1    6    6    0  503  0.37057929835E+02  0.34231050574E+03  0.57090012740E+03  0.66669087887E+03  0.00000000000E+00 0. -1.
<mgrwt>
<rscale>  0 0.31149913E+04</rscale>
<asrwt>0</asrwt>
<pdfrwt beam="1">  1        2 0.57907681E+00 0.31149913E+04</pdfrwt>
<pdfrwt beam="2">  1       -1 0.99149560E-01 0.31149913E+04</pdfrwt>
<totfact> 0.48889765E-01</totfact>
</mgrwt>
</event>
<event>
12    7  0.1637954E-007  0.2292320E+04  0.7818608E-02  0.8480955E-01
         -1   -1    0    0    0  501 -0.00000000000E+00  0.00000000000E+00  0.48447430537E+03  0.48447430537E+03  0.00000000000E+00 0.  1.
          2   -1    0    0  501    0  0.00000000000E+00 -0.00000000000E+00 -0.27115628669E+04  0.27115628669E+04  0.00000000000E+00 0. -1.
         24    2    1    2    0    0  0.89541794409E+03 -0.35619444177E+03 -0.83331258833E+03  0.12765271556E+04  0.80398595402E+02 0.  0.
        254    2    1    2    0    0 -0.89541794409E+03  0.35619444177E+03 -0.13937759732E+04  0.19195100167E+04  0.90180899628E+03 0.  0.
         23    2    4    4    0    0 -0.75110213329E+03 -0.12681894844E+03 -0.59647192812E+03  0.97173898242E+03  0.90886900002E+02 0.  0.
         23    2    4    4    0    0 -0.14431581079E+03  0.48301339021E+03 -0.79730404509E+03  0.94777103428E+03  0.91908676090E+02 0.  0.
          2    1    3    3  502    0  0.32016870591E+03 -0.16456496228E+03 -0.28714101002E+03  0.46047756372E+03  0.00000000000E+00 0. -1.
         -1    1    3    3    0  502  0.57524923818E+03 -0.19162947948E+03 -0.54617157831E+03  0.81604959187E+03  0.00000000000E+00 0.  1.
         13    1    5    5    0    0 -0.10968484553E+03 -0.51207263374E+02 -0.85624970485E+02  0.14827199577E+03  0.00000000000E+00 0. -1.
        -13    1    5    5    0    0 -0.64141728777E+03 -0.75611685070E+02 -0.51084695764E+03  0.82346698664E+03  0.00000000000E+00 0.  1.
          4    1    6    6  503    0 -0.14975847657E+02  0.81031883368E+01 -0.51020509755E+02  0.53786895150E+02  0.00000000000E+00 0. -1.
         -4    1    6    6    0  503 -0.12933996314E+03  0.47491020187E+03 -0.74628353533E+03  0.89398413913E+03  0.00000000000E+00 0.  1.
<mgrwt>
<rscale>  0 0.22923198E+04</rscale>
<asrwt>0</asrwt>
<pdfrwt beam="1">  1        2 0.41716352E+00 0.22923198E+04</pdfrwt>
<pdfrwt beam="2">  1       -1 0.74534508E-01 0.22923198E+04</pdfrwt>
<totfact> 0.48874971E+00</totfact>
</mgrwt>
</event>
<event>
12    7  0.1637954E-007  0.1184961E+04  0.7818608E-02  0.9126123E-01
          2   -1    0    0  501    0  0.00000000000E+00  0.00000000000E+00  0.12105206331E+04  0.12105206331E+04  0.00000000000E+00 0. -1.
         -1   -1    0    0    0  501 -0.00000000000E+00 -0.00000000000E+00 -0.28998544574E+03  0.28998544574E+03  0.00000000000E+00 0.  1.
         24    2    1    2    0    0 -0.17516533382E+03  0.24364367996E+02  0.38412832786E+03  0.43045957570E+03  0.80401227921E+02 0.  0.
        254    2    1    2    0    0  0.17516533382E+03 -0.24364367996E+02  0.53640685951E+03  0.10700465032E+04  0.90884029587E+03 0.  0.
         23    2    4    4    0    0  0.33308984394E+03 -0.38726485229E+03  0.26358418957E+03  0.58146699818E+03  0.87774341498E+02 0.  0.
         23    2    4    4    0    0 -0.15792451013E+03  0.36290048430E+03  0.27282266994E+03  0.48857950497E+03  0.87411732859E+02 0.  0.
          2    1    3    3  502    0 -0.11834381000E+03  0.38034741936E+02  0.32201165815E+03  0.34517156161E+03  0.00000000000E+00 0. -1.
         -1    1    3    3    0  502 -0.56821523811E+02 -0.13670373940E+02  0.62116669711E+02  0.85288014093E+02  0.00000000000E+00 0.  1.
         13    1    5    5    0    0  0.19198462776E+03 -0.17533715656E+03  0.16775842700E+03  0.30942544433E+03  0.00000000000E+00 0. -1.
        -13    1    5    5    0    0  0.14110521618E+03 -0.21192769573E+03  0.95825762569E+02  0.27204155386E+03  0.00000000000E+00 0.  1.
          1    1    6    6  503    0 -0.15890203168E+03  0.27787457352E+03  0.20955766661E+03  0.38259449802E+03  0.00000000000E+00 0. -1.
         -1    1    6    6    0  503  0.97752154882E+00  0.85025910783E+02  0.63265003326E+02  0.10598500695E+03  0.00000000000E+00 0.  1.
<mgrwt>
<rscale>  0 0.11849614E+04</rscale>
<asrwt>0</asrwt>
<pdfrwt beam="1">  1        2 0.18623394E+00 0.11849614E+04</pdfrwt>
<pdfrwt beam="2">  1       -1 0.44613146E-01 0.11849614E+04</pdfrwt>
<totfact> 0.10456426E+02</totfact>
</mgrwt>
</event>
<event>
12    7  0.1637954E-007  0.2584239E+04  0.7818608E-02  0.8373575E-01
         -1   -1    0    0    0  501 -0.00000000000E+00  0.00000000000E+00  0.65646902299E+03  0.65646902299E+03  0.00000000000E+00 0.  1.
          2   -1    0    0  501    0  0.00000000000E+00 -0.00000000000E+00 -0.25432618170E+04  0.25432618170E+04  0.00000000000E+00 0. -1.
         24    2    1    2    0    0  0.57757999893E+03 -0.30642326996E+02  0.37948946834E+03  0.69614845490E+03  0.77928218967E+02 0.  0.
        254    2    1    2    0    0 -0.57757999893E+03  0.30642326996E+02 -0.22662822624E+04  0.25035823851E+04  0.89294560800E+03 0.  0.
         23    2    4    4    0    0 -0.25278763344E+03 -0.27073330635E+03 -0.29816273199E+03  0.48411128509E+03  0.90909904957E+02 0.  0.
         23    2    4    4    0    0 -0.32479236550E+03  0.30137563334E+03 -0.19681195304E+04  0.20194711000E+04  0.91933045412E+02 0.  0.
          4    1    3    3  502    0  0.15317415845E+01  0.60417221278E+01  0.24218571752E+01  0.66868550701E+01  0.00000000000E+00 0. -1.
         -3    1    3    3    0  502  0.57604825735E+03 -0.36684049124E+02  0.37706761117E+03  0.68946159983E+03  0.00000000000E+00 0.  1.
         13    1    5    5    0    0 -0.12744759885E+03 -0.84086247492E+02 -0.15499335039E+03  0.21756912956E+03  0.00000000000E+00 0.  1.
        -13    1    5    5    0    0 -0.12534003458E+03 -0.18664705885E+03 -0.14316938160E+03  0.26654215553E+03  0.00000000000E+00 0. -1.
          2    1    6    6  503    0 -0.30598812146E+03  0.27612791171E+03 -0.16880875681E+04  0.17376751686E+04  0.00000000000E+00 0. -1.
         -2    1    6    6    0  503 -0.18804244036E+02  0.25247721632E+02 -0.28003196229E+03  0.28179593138E+03  0.00000000000E+00 0.  1.
<mgrwt>
<rscale>  0 0.25842388E+04</rscale>
<asrwt>0</asrwt>
<pdfrwt beam="1">  1        2 0.39127105E+00 0.25842388E+04</pdfrwt>
<pdfrwt beam="2">  1       -1 0.10099523E+00 0.25842388E+04</pdfrwt>
<totfact> 0.30820750E+00</totfact>
</mgrwt>
</event>
<event>
12    7  0.1637954E-007  0.1541600E+04  0.7818608E-02  0.8857251E-01
         -1   -1    0    0    0  501 -0.00000000000E+00  0.00000000000E+00  0.79433036387E+03  0.79433036387E+03  0.00000000000E+00 0.  1.
          2   -1    0    0  501    0  0.00000000000E+00 -0.00000000000E+00 -0.74796702941E+03  0.74796702941E+03  0.00000000000E+00 0. -1.
         24    2    1    2    0    0  0.45349386059E+03 -0.19345918473E+03 -0.74903690578E+02  0.50524050561E+03  0.81081859262E+02 0.  0.
        254    2    1    2    0    0 -0.45349386059E+03  0.19345918473E+03  0.12126702504E+03  0.10370568877E+04  0.90426664163E+03 0.  0.
         23    2    4    4    0    0 -0.64114927799E+03  0.31219778241E+03 -0.81936763554E+02  0.72253133570E+03  0.82450262791E+02 0.  0.
         23    2    4    4    0    0  0.18765541741E+03 -0.11873859768E+03  0.20320378860E+03  0.31452555197E+03  0.91220243824E+02 0.  0.
          4    1    3    3  502    0  0.10426151668E+03 -0.78630897979E+02 -0.36626207417E+02  0.13562728725E+03  0.00000000000E+00 0. -1.
         -3    1    3    3    0  502  0.34923234391E+03 -0.11482828675E+03 -0.38277483161E+02  0.36961321836E+03  0.00000000000E+00 0.  1.
         13    1    5    5    0    0 -0.57527919296E+03  0.27652324106E+03 -0.47406796803E+02  0.64004582420E+03  0.00000000000E+00 0.  1.
        -13    1    5    5    0    0 -0.65870085035E+02  0.35674541346E+02 -0.34529966752E+02  0.82485511495E+02  0.00000000000E+00 0. -1.
          2    1    6    6  503    0 -0.18650212465E+01 -0.75931989945E+01  0.40201094310E+02  0.40954400971E+02  0.00000000000E+00 0. -1.
         -2    1    6    6    0  503  0.18952043865E+03 -0.11114539868E+03  0.16300269429E+03  0.27357115100E+03  0.00000000000E+00 0.  1.
<mgrwt>
<rscale>  0 0.15416004E+04</rscale>
<asrwt>0</asrwt>
<pdfrwt beam="1">  1        2 0.11507185E+00 0.15416004E+04</pdfrwt>
<pdfrwt beam="2">  1       -1 0.12220467E+00 0.15416004E+04</pdfrwt>
<totfact> 0.24507494E+01</totfact>
</mgrwt>
</event>
<event>
12    7  0.1637954E-007  0.1385943E+04  0.7818608E-02  0.8964057E-01
          4   -1    0    0  501    0  0.00000000000E+00  0.00000000000E+00  0.15681429737E+04  0.15681429737E+04  0.00000000000E+00 0. -1.
         -1   -1    0    0    0  501 -0.00000000000E+00 -0.00000000000E+00 -0.30622813025E+03  0.30622813025E+03  0.00000000000E+00 0.  1.
         24    2    1    2    0    0 -0.20722192618E+03 -0.28331307518E+03  0.65124171416E+03  0.74401439489E+03  0.78958370575E+02 0.  0.
        254    2    1    2    0    0  0.20722192618E+03  0.28331307518E+03  0.61067312928E+03  0.11303567090E+04  0.88406865887E+03 0.  0.
         23    2    4    4    0    0  0.51827893981E+03  0.58022458515E+02  0.21517659505E+03  0.57150729642E+03  0.91323368648E+02 0.  0.
         23    2    4    4    0    0 -0.31105701363E+03  0.22529061667E+03  0.39549653423E+03  0.55884941262E+03  0.91557794385E+02 0.  0.
          2    1    3    3  502    0 -0.15822703961E+03 -0.18730364003E+03  0.51416051627E+03  0.56963100875E+03  0.00000000000E+00 0. -1.
         -1    1    3    3    0  502 -0.48994886570E+02 -0.96009435159E+02  0.13708119789E+03  0.17438338614E+03  0.00000000000E+00 0.  1.
         13    1    5    5    0    0  0.16126845323E+03  0.13345882469E+02  0.11338577957E+03  0.19759038842E+03  0.00000000000E+00 0. -1.
        -13    1    5    5    0    0  0.35701048658E+03  0.44676576045E+02  0.10179081548E+03  0.37391690800E+03  0.00000000000E+00 0.  1.
          2    1    6    6  503    0 -0.13535570888E+03  0.96918994034E+02  0.23707803336E+03  0.28969027121E+03  0.00000000000E+00 0. -1.
         -2    1    6    6    0  503 -0.17570130474E+03  0.12837162264E+03  0.15841850087E+03  0.26915914141E+03  0.00000000000E+00 0.  1.
<mgrwt>
<rscale>  0 0.13859430E+04</rscale>
<asrwt>0</asrwt>
<pdfrwt beam="1">  1        4 0.24125276E+00 0.13859430E+04</pdfrwt>
<pdfrwt beam="2">  1       -1 0.47112021E-01 0.13859430E+04</pdfrwt>
<totfact> 0.12764891E+00</totfact>
</mgrwt>
</event>
<event>
12    7  0.1637954E-007  0.2097309E+04  0.7818608E-02  0.8562430E-01
         -1   -1    0    0    0  501 -0.00000000000E+00  0.00000000000E+00  0.68283560512E+03  0.68283560512E+03  0.00000000000E+00 0.  1.
          2   -1    0    0  501    0  0.00000000000E+00 -0.00000000000E+00 -0.16104547582E+04  0.16104547582E+04  0.00000000000E+00 0. -1.
         24    2    1    2    0    0  0.31484394258E+03  0.35628849434E+03 -0.11554854951E+04  0.12519623359E+04  0.78706809651E+02 0.  0.
        254    2    1    2    0    0 -0.31484394258E+03 -0.35628849434E+03  0.22786634199E+03  0.10413280274E+04  0.89798262314E+03 0.  0.
         23    2    4    4    0    0  0.20188645104E+03 -0.43365002160E+03  0.10927522366E+03  0.49783783728E+03  0.84207822504E+02 0.  0.
         23    2    4    4    0    0 -0.51673039362E+03  0.77361527259E+02  0.11859111833E+03  0.54349019012E+03  0.91228437605E+02 0.  0.
          2    1    3    3  502    0  0.20248454215E+03  0.28189275852E+03 -0.82068878785E+03  0.89106318722E+03  0.00000000000E+00 0. -1.
         -1    1    3    3    0  502  0.11235940043E+03  0.74395735828E+02 -0.33479670724E+03  0.36089914873E+03  0.00000000000E+00 0.  1.
         13    1    5    5    0    0  0.20791293106E+03 -0.43083423797E+03  0.10452660184E+03  0.48966492421E+03  0.00000000000E+00 0. -1.
        -13    1    5    5    0    0 -0.60264800201E+01 -0.28157836365E+01  0.47486218162E+01  0.81729130715E+01  0.00000000000E+00 0.  1.
          3    1    6    6  503    0 -0.47470148145E+03  0.59715433488E+02  0.82844145135E+02  0.48556212978E+03  0.00000000000E+00 0. -1.
         -3    1    6    6    0  503 -0.42028912161E+02  0.17646093770E+02  0.35746973194E+02  0.57928060344E+02  0.00000000000E+00 0.  1.
<mgrwt>
<rscale>  0 0.20973086E+04</rscale>
<asrwt>0</asrwt>
<pdfrwt beam="1">  1        2 0.24776226E+00 0.20973086E+04</pdfrwt>
<pdfrwt beam="2">  1       -1 0.10505163E+00 0.20973086E+04</pdfrwt>
<totfact> 0.98235010E+00</totfact>
</mgrwt>
</event>
<event>
12    7  0.1637954E-007  0.3854223E+04  0.7818608E-02  0.8034618E-01
         -1   -1    0    0    0  501 -0.00000000000E+00  0.00000000000E+00  0.16189084057E+04  0.16189084057E+04  0.00000000000E+00 0.  1.
          2   -1    0    0  501    0  0.00000000000E+00 -0.00000000000E+00 -0.22939893750E+04  0.22939893750E+04  0.00000000000E+00 0. -1.
         24    2    1    2    0    0  0.74893116540E+03  0.16054230765E+04  0.10378326401E+03  0.17763931423E+04  0.80749519813E+02 0.  0.
        254    2    1    2    0    0 -0.74893116540E+03 -0.16054230765E+04 -0.77886423333E+03  0.21365046383E+04  0.90539573151E+03 0.  0.
         23    2    4    4    0    0  0.83629790392E+02 -0.41325270069E+02 -0.25494502492E+03  0.28634930944E+03  0.91089195269E+02 0.  0.
         23    2    4    4    0    0 -0.83256095579E+03 -0.15640978064E+04 -0.52391920840E+03  0.18501553289E+04  0.94993215282E+02 0.  0.
          2    1    3    3  502    0  0.49416712629E+03  0.10351793404E+04  0.29893546653E+02  0.11474715855E+04  0.00000000000E+00 0. -1.
         -1    1    3    3    0  502  0.25476403911E+03  0.57024373611E+03  0.73889717361E+02  0.62892155674E+03  0.00000000000E+00 0.  1.
         13    1    5    5    0    0  0.40455820710E+02 -0.57617656548E+01 -0.21180417066E+03  0.21571017148E+03  0.00000000000E+00 0.  1.
        -13    1    5    5    0    0  0.43173969682E+02 -0.35563504414E+02 -0.43140854266E+02  0.70639137956E+02  0.00000000000E+00 0. -1.
          4    1    6    6  503    0 -0.15211755876E+03 -0.36402483416E+03 -0.10155773715E+03  0.40739146475E+03  0.00000000000E+00 0. -1.
         -4    1    6    6    0  503 -0.68044339703E+03 -0.12000729723E+04 -0.42236147125E+03  0.14427638642E+04  0.00000000000E+00 0.  1.
<mgrwt>
<rscale>  0 0.38542230E+04</rscale>
<asrwt>0</asrwt>
<pdfrwt beam="1">  1        2 0.35292144E+00 0.38542230E+04</pdfrwt>
<pdfrwt beam="2">  1       -1 0.24906283E+00 0.38542230E+04</pdfrwt>
<totfact> 0.29325380E-01</totfact>
</mgrwt>
</event>
<event>
12    7  0.1637954E-007  0.2352902E+04  0.7818608E-02  0.8457350E-01
         -1   -1    0    0    0  501 -0.00000000000E+00  0.00000000000E+00  0.67460919359E+03  0.67460919359E+03  0.00000000000E+00 0.  1.
          2   -1    0    0  501    0  0.00000000000E+00 -0.00000000000E+00 -0.20516132282E+04  0.20516132282E+04  0.00000000000E+00 0. -1.
         24    2    1    2    0    0  0.78577909780E+03  0.57904281875E+03 -0.85009114544E+03  0.12968382146E+04  0.79968886584E+02 0.  0.
        254    2    1    2    0    0 -0.78577909780E+03 -0.57904281875E+03 -0.52691288921E+03  0.14293842072E+04  0.90153349497E+03 0.  0.
         23    2    4    4    0    0 -0.72512015923E+03 -0.79794183660E+03 -0.46822288167E+03  0.11790720268E+04  0.92020419185E+02 0.  0.
         23    2    4    4    0    0 -0.60658938567E+02  0.21889901785E+03 -0.58690007540E+02  0.25031218042E+03  0.87266166609E+02 0.  0.
          2    1    3    3  502    0  0.24976616833E+03  0.19846149604E+03 -0.32588519033E+03  0.45603866232E+03  0.00000000000E+00 0. -1.
         -1    1    3    3    0  502  0.53601292947E+03  0.38058132271E+03 -0.52420595511E+03  0.84079955229E+03  0.00000000000E+00 0.  1.
         13    1    5    5    0    0 -0.50819847229E+03 -0.56238558263E+03 -0.37426672779E+03  0.84535129640E+03  0.00000000000E+00 0. -1.
        -13    1    5    5    0    0 -0.21692168694E+03 -0.23555625397E+03 -0.93956153872E+02  0.33372073041E+03  0.00000000000E+00 0.  1.
          1    1    6    6  503    0 -0.44638455249E+02  0.18761032015E+03 -0.13861455172E+02  0.19334519351E+03  0.00000000000E+00 0. -1.
         -1    1    6    6    0  503 -0.16020483318E+02  0.31288697700E+02 -0.44828552368E+02  0.56966986904E+02  0.00000000000E+00 0.  1.
<mgrwt>
<rscale>  0 0.23529022E+04</rscale>
<asrwt>0</asrwt>
<pdfrwt beam="1">  1        2 0.31563281E+00 0.23529022E+04</pdfrwt>
<pdfrwt beam="2">  1       -1 0.10378603E+00 0.23529022E+04</pdfrwt>
<totfact> 0.56183951E+00</totfact>
</mgrwt>
</event>
<event>
12    7  0.1637954E-007  0.1326243E+04  0.7818608E-02  0.9009009E-01
         -1   -1    0    0    0  501 -0.00000000000E+00  0.00000000000E+00  0.12562095840E+03  0.12562095840E+03  0.00000000000E+00 0.  1.
          2   -1    0    0  501    0  0.00000000000E+00 -0.00000000000E+00 -0.35004508438E+04  0.35004508438E+04  0.00000000000E+00 0. -1.
         24    2    1    2    0    0  0.19915713408E+03 -0.16931670327E+03 -0.15542508487E+04  0.15781056554E+04  0.79937780595E+02 0.  0.
        254    2    1    2    0    0 -0.19915713408E+03  0.16931670327E+03 -0.18205790367E+04  0.20479661468E+04  0.90073614316E+03 0.  0.
         23    2    4    4    0    0 -0.34223713440E+03 -0.21508135679E+03 -0.43986555441E+03  0.60423891137E+03  0.90756321314E+02 0.  0.
         23    2    4    4    0    0  0.14308000032E+03  0.38439806006E+03 -0.13807134822E+04  0.14437272354E+04  0.98716032827E+02 0.  0.
          4    1    3    3  502    0  0.18412725920E+03 -0.15084446017E+03 -0.15012195398E+04  0.15199726989E+04  0.00000000000E+00 0. -1.
         -3    1    3    3    0  502  0.15029874875E+02 -0.18472243102E+02 -0.53031308951E+02  0.58132956513E+02  0.00000000000E+00 0.  1.
         13    1    5    5    0    0 -0.14123167716E+03 -0.72374240792E+02 -0.11290382103E+03  0.19476059706E+03  0.00000000000E+00 0.  1.
        -13    1    5    5    0    0 -0.20100545724E+03 -0.14270711600E+03 -0.32696173339E+03  0.40947831432E+03  0.00000000000E+00 0. -1.
          1    1    6    6  503    0  0.13735753784E+03  0.38967231039E+03 -0.13391002046E+04  0.14013925077E+04  0.00000000000E+00 0. -1.
         -1    1    6    6    0  503  0.57224624767E+01 -0.52742503326E+01 -0.41613277673E+02  0.42334727731E+02  0.00000000000E+00 0.  1.
<mgrwt>
<rscale>  0 0.13262428E+04</rscale>
<asrwt>0</asrwt>
<pdfrwt beam="1">  1        2 0.53853080E+00 0.13262428E+04</pdfrwt>
<pdfrwt beam="2">  1       -1 0.19326305E-01 0.13262428E+04</pdfrwt>
<totfact> 0.20002469E+01</totfact>
</mgrwt>
</event>
<event>
12    7  0.1637954E-007  0.2465662E+04  0.7818608E-02  0.8415322E-01
         -1   -1    0    0    0  501 -0.00000000000E+00  0.00000000000E+00  0.11982497760E+04  0.11982497760E+04  0.00000000000E+00 0.  1.
          2   -1    0    0  501    0  0.00000000000E+00 -0.00000000000E+00 -0.12684097609E+04  0.12684097609E+04  0.00000000000E+00 0. -1.
         24    2    1    2    0    0 -0.91692671940E+03  0.34241199298E+03  0.38430715971E+03  0.10544869987E+04  0.79058558563E+02 0.  0.
        254    2    1    2    0    0  0.91692671940E+03 -0.34241199298E+03 -0.45446714460E+03  0.14121725381E+04  0.91087337773E+03 0.  0.
         23    2    4    4    0    0 -0.13515071739E+02  0.22022373106E+03 -0.31228040245E+02  0.24141345341E+03  0.92866119238E+02 0.  0.
         23    2    4    4    0    0  0.93044179114E+03 -0.56263572405E+03 -0.42323910436E+03  0.11707590847E+04  0.96252845868E+02 0.  0.
          4    1    3    3  502    0 -0.35461092427E+03  0.15954378890E+03  0.12129268609E+03  0.40732670412E+03  0.00000000000E+00 0. -1.
         -3    1    3    3    0  502 -0.56231579513E+03  0.18286820408E+03  0.26301447363E+03  0.64716029456E+03  0.00000000000E+00 0.  1.
         13    1    5    5    0    0 -0.36679126728E+02  0.57597203894E+02 -0.35762828611E+02  0.77082917331E+02  0.00000000000E+00 0. -1.
        -13    1    5    5    0    0  0.23164054989E+02  0.16262652717E+03  0.45347883666E+01  0.16433053608E+03  0.00000000000E+00 0.  1.
          1    1    6    6  503    0  0.85379701802E+02 -0.26569085148E+02 -0.18784479220E+02  0.91369942678E+02  0.00000000000E+00 0. -1.
         -1    1    6    6    0  503  0.84506208934E+03 -0.53606663890E+03 -0.40445462514E+03  0.10793891421E+04  0.00000000000E+00 0.  1.
<mgrwt>
<rscale>  0 0.24656615E+04</rscale>
<asrwt>0</asrwt>
<pdfrwt beam="1">  1        2 0.19513996E+00 0.24656615E+04</pdfrwt>
<pdfrwt beam="2">  1       -1 0.18434612E+00 0.24656615E+04</pdfrwt>
<totfact> 0.34065486E+00</totfact>
</mgrwt>
</event>
<event>
12    7  0.1637954E-007  0.1319456E+04  0.7818608E-02  0.9014277E-01
         -1   -1    0    0    0  501 -0.00000000000E+00  0.00000000000E+00  0.54900252081E+03  0.54900252081E+03  0.00000000000E+00 0.  1.
          2   -1    0    0  501    0  0.00000000000E+00 -0.00000000000E+00 -0.79278459224E+03  0.79278459224E+03  0.00000000000E+00 0. -1.
         24    2    1    2    0    0 -0.15011816504E+02 -0.33883189602E+03 -0.34595713760E+01  0.34827938028E+03  0.79083182163E+02 0.  0.
        254    2    1    2    0    0  0.15011816504E+02  0.33883189602E+03 -0.24032250006E+03  0.99350773276E+03  0.90236927176E+03 0.  0.
         23    2    4    4    0    0  0.43246509898E+03  0.46962244539E+02 -0.86143829696E+02  0.45241429260E+03  0.89590281310E+02 0.  0.
         23    2    4    4    0    0 -0.41745328248E+03  0.29186965148E+03 -0.15417867036E+03  0.54109344016E+03  0.97754345603E+02 0.  0.
          2    1    3    3  502    0 -0.53649055144E-01 -0.33003444569E+03 -0.87090046176E+01  0.33014933740E+03  0.00000000000E+00 0. -1.
         -1    1    3    3    0  502 -0.14958167449E+02 -0.87974503259E+01  0.52494332415E+01  0.18130042885E+02  0.00000000000E+00 0.  1.
         13    1    5    5    0    0  0.38415118130E+03  0.53731045503E+02 -0.10206904642E+03  0.40109505804E+03  0.00000000000E+00 0. -1.
        -13    1    5    5    0    0  0.48313917682E+02 -0.67688009644E+01  0.15925216727E+02  0.51319234562E+02  0.00000000000E+00 0.  1.
          4    1    6    6  503    0 -0.40743330218E+03  0.27266566989E+03 -0.12718313043E+03  0.50648199566E+03  0.00000000000E+00 0. -1.
         -4    1    6    6    0  503 -0.10019980293E+02  0.19203981594E+02 -0.26995539931E+02  0.34611444499E+02  0.00000000000E+00 0.  1.
<mgrwt>
<rscale>  0 0.13194556E+04</rscale>
<asrwt>0</asrwt>
<pdfrwt beam="1">  1        2 0.12196686E+00 0.13194556E+04</pdfrwt>
<pdfrwt beam="2">  1       -1 0.84461926E-01 0.13194556E+04</pdfrwt>
<totfact> 0.54108882E+01</totfact>
</mgrwt>
</event>
<event>
12    7  0.1637954E-007  0.1615664E+04  0.7818608E-02  0.8810982E-01
          2   -1    0    0  501    0  0.00000000000E+00  0.00000000000E+00  0.56817782204E+03  0.56817782204E+03  0.00000000000E+00 0. -1.
         -1   -1    0    0    0  501 -0.00000000000E+00 -0.00000000000E+00 -0.11485709820E+04  0.11485709820E+04  0.00000000000E+00 0.  1.
         24    2    1    2    0    0 -0.31309008060E+03 -0.45095848492E+03 -0.25608936804E+03  0.61103000259E+03  0.79918370581E+02 0.  0.
        254    2    1    2    0    0  0.31309008060E+03  0.45095848492E+03 -0.32430379197E+03  0.11057188015E+04  0.90335605649E+03 0.  0.
         23    2    4    4    0    0  0.42094367919E+03 -0.96664845995E+02  0.24419012181E+02  0.44133772759E+03  0.87435851573E+02 0.  0.
         23    2    4    4    0    0 -0.10785359859E+03  0.54762333091E+03 -0.34872280416E+03  0.66438107390E+03  0.90944521161E+02 0.  0.
          2    1    3    3  502    0 -0.34349391703E+02 -0.15547301755E+02 -0.20066004287E+02  0.42711167513E+02  0.00000000000E+00 0. -1.
         -1    1    3    3    0  502 -0.27874068890E+03 -0.43541118316E+03 -0.23602336375E+03  0.56831883508E+03  0.00000000000E+00 0.  1.
         13    1    5    5    0    0  0.27012028073E+03 -0.84995807353E+02  0.51037274225E+02  0.28773956400E+03  0.00000000000E+00 0. -1.
        -13    1    5    5    0    0  0.15082339846E+03 -0.11669038642E+02 -0.26618262044E+02  0.15359816359E+03  0.00000000000E+00 0.  1.
          4    1    6    6  503    0 -0.10587054515E+03  0.51118853958E+03 -0.29555266891E+03  0.59989472028E+03  0.00000000000E+00 0. -1.
         -4    1    6    6    0  503 -0.19830534446E+01  0.36434791336E+02 -0.53170135246E+02  0.64486353616E+02  0.00000000000E+00 0.  1.
<mgrwt>
<rscale>  0 0.16156640E+04</rscale>
<asrwt>0</asrwt>
<pdfrwt beam="1">  1        2 0.87411974E-01 0.16156640E+04</pdfrwt>
<pdfrwt beam="2">  1       -1 0.17670323E+00 0.16156640E+04</pdfrwt>
<totfact> 0.12740555E+01</totfact>
</mgrwt>
</event>
<event>
12    7  0.1637954E-007  0.1796912E+04  0.7818608E-02  0.8707943E-01
          2   -1    0    0  501    0  0.00000000000E+00  0.00000000000E+00  0.88585075762E+03  0.88585075762E+03  0.00000000000E+00 0. -1.
         -1   -1    0    0    0  501 -0.00000000000E+00 -0.00000000000E+00 -0.91124063677E+03  0.91124063677E+03  0.00000000000E+00 0.  1.
         24    2    1    2    0    0 -0.22298767911E+03 -0.46966653565E+03 -0.42336091911E+03  0.67583069781E+03  0.84867570526E+02 0.  0.
        254    2    1    2    0    0  0.22298767911E+03  0.46966653565E+03  0.39797103996E+03  0.11212606966E+04  0.91023867271E+03 0.  0.
         23    2    4    4    0    0  0.35571148521E+03  0.74717566187E+01  0.49990695514E+03  0.62093237388E+03  0.95202737708E+02 0.  0.
         23    2    4    4    0    0 -0.13272380611E+03  0.46219477903E+03 -0.10193591518E+03  0.50032832270E+03  0.93262410574E+02 0.  0.
          2    1    3    3  502    0 -0.22924255606E+03 -0.44247147930E+03 -0.39350362712E+03  0.63496319898E+03  0.00000000000E+00 0. -1.
         -1    1    3    3    0  502  0.62548769497E+01 -0.27195056343E+02 -0.29857291989E+02  0.40867498824E+02  0.00000000000E+00 0.  1.
         13    1    5    5    0    0  0.22218855043E+03  0.77194284623E+01  0.23046540612E+03  0.32022124373E+03  0.00000000000E+00 0. -1.
        -13    1    5    5    0    0  0.13352293479E+03 -0.24767184356E+00  0.26944154902E+03  0.30071113014E+03  0.00000000000E+00 0.  1.
          4    1    6    6  503    0 -0.90070967500E+02  0.15674579694E+03 -0.50045814008E+02  0.18758093599E+03  0.00000000000E+00 0. -1.
         -4    1    6    6    0  503 -0.42652838607E+02  0.30544898209E+03 -0.51890101169E+02  0.31274738672E+03  0.00000000000E+00 0.  1.
<mgrwt>
<rscale>  0 0.17969120E+04</rscale>
<asrwt>0</asrwt>
<pdfrwt beam="1">  1        2 0.13628473E+00 0.17969120E+04</pdfrwt>
<pdfrwt beam="2">  1       -1 0.14019087E+00 0.17969120E+04</pdfrwt>
<totfact> 0.13494883E+01</totfact>
</mgrwt>
</event>
<event>
12    7  0.1637954E-007  0.1998719E+04  0.7818608E-02  0.8607220E-01
         -1   -1    0    0    0  501 -0.00000000000E+00  0.00000000000E+00  0.14993265499E+04  0.14993265499E+04  0.00000000000E+00 0.  1.
          2   -1    0    0  501    0  0.00000000000E+00 -0.00000000000E+00 -0.66611209198E+03  0.66611209198E+03  0.00000000000E+00 0. -1.
         24    2    1    2    0    0 -0.46988698821E+03  0.20413030915E+03 -0.32046803057E+03  0.60958117137E+03  0.80165335760E+02 0.  0.
        254    2    1    2    0    0  0.46988698821E+03 -0.20413030915E+03  0.11536824885E+04  0.15558574705E+04  0.90953076884E+03 0.  0.
         23    2    4    4    0    0 -0.24732353282E+03 -0.17644124399E+03  0.41597918524E+03  0.52348993219E+03  0.93287641624E+02 0.  0.
         23    2    4    4    0    0  0.71721052103E+03 -0.27689065159E+02  0.73770330322E+03  0.10323675383E+04  0.80118379522E+02 0.  0.
          4    1    3    3  502    0 -0.34004997074E+03  0.18385544466E+03 -0.25137112165E+03  0.46111196897E+03  0.00000000000E+00 0. -1.
         -3    1    3    3    0  502 -0.12983701747E+03  0.20274864492E+02 -0.69096908929E+02  0.14846920239E+03  0.00000000000E+00 0.  1.
         13    1    5    5    0    0 -0.32980300082E+02  0.31872401148E+01  0.78431749252E+02  0.85143396595E+02  0.00000000000E+00 0. -1.
        -13    1    5    5    0    0 -0.21434323274E+03 -0.17962848410E+03  0.33754743599E+03  0.43834653559E+03  0.00000000000E+00 0.  1.
          1    1    6    6  503    0  0.27764995244E+03 -0.21650167507E+02  0.23344538203E+03  0.36339368767E+03  0.00000000000E+00 0. -1.
         -1    1    6    6    0  503  0.43956056859E+03 -0.60388976521E+01  0.50425792119E+03  0.66897385063E+03  0.00000000000E+00 0.  1.
<mgrwt>
<rscale>  0 0.19987191E+04</rscale>
<asrwt>0</asrwt>
<pdfrwt beam="1">  1        2 0.10247878E+00 0.19987191E+04</pdfrwt>
<pdfrwt beam="2">  1       -1 0.23066562E+00 0.19987191E+04</pdfrwt>
<totfact> 0.43224928E+00</totfact>
</mgrwt>
</event>
<event>
12    7  0.1637954E-007  0.1348992E+04  0.7818608E-02  0.8991591E-01
         -1   -1    0    0    0  501 -0.00000000000E+00  0.00000000000E+00  0.30379592458E+03  0.30379592458E+03  0.00000000000E+00 0.  1.
          2   -1    0    0  501    0  0.00000000000E+00 -0.00000000000E+00 -0.14975351633E+04  0.14975351633E+04  0.00000000000E+00 0. -1.
         24    2    1    2    0    0  0.34697746967E+03 -0.89672907861E+02 -0.38653539232E+03  0.53348876949E+03  0.82256080572E+02 0.  0.
        254    2    1    2    0    0 -0.34697746967E+03  0.89672907861E+02 -0.80720384641E+03  0.12678423184E+04  0.90962162454E+03 0.  0.
         23    2    4    4    0    0 -0.63591538472E+03 -0.46228330828E+02 -0.49827344621E+03  0.81425446180E+03  0.90600586492E+02 0.  0.
         23    2    4    4    0    0  0.28893791505E+03  0.13590123869E+03 -0.30893040020E+03  0.45358785661E+03  0.91376616577E+02 0.  0.
          2    1    3    3  502    0  0.24934134374E+03 -0.52183079459E+02 -0.21875036432E+03  0.33577656466E+03  0.00000000000E+00 0. -1.
         -3    1    3    3    0  502  0.97636125929E+02 -0.37489828402E+02 -0.16778502799E+03  0.19771220483E+03  0.00000000000E+00 0.  1.
         13    1    5    5    0    0 -0.23750849074E+03  0.25882540069E+02 -0.19484002568E+03  0.30829016310E+03  0.00000000000E+00 0.  1.
        -13    1    5    5    0    0 -0.39840689398E+03 -0.72110870897E+02 -0.30343342052E+03  0.50596429870E+03  0.00000000000E+00 0. -1.
          1    1    6    6  503    0  0.61978587386E+02  0.73520523110E+02 -0.77615121924E+02  0.12357475375E+03  0.00000000000E+00 0. -1.
         -1    1    6    6    0  503  0.22695932767E+03  0.62380715578E+02 -0.23131527828E+03  0.33001310286E+03  0.00000000000E+00 0.  1.
<mgrwt>
<rscale>  0 0.13489923E+04</rscale>
<asrwt>0</asrwt>
<pdfrwt beam="1">  1        2 0.23039002E+00 0.13489923E+04</pdfrwt>
<pdfrwt beam="2">  1       -1 0.46737835E-01 0.13489923E+04</pdfrwt>
<totfact> 0.64642467E+01</totfact>
</mgrwt>
</event>
<event>
12    7  0.1637954E-007  0.2831940E+04  0.7818608E-02  0.8293420E-01
         -1   -1    0    0    0  501 -0.00000000000E+00  0.00000000000E+00  0.10879798997E+04  0.10879798997E+04  0.00000000000E+00 0.  1.
          2   -1    0    0  501    0  0.00000000000E+00 -0.00000000000E+00 -0.18428385128E+04  0.18428385128E+04  0.00000000000E+00 0. -1.
         24    2    1    2    0    0 -0.11980261943E+04 -0.18809802967E+03  0.79083099768E+02  0.12180323768E+04  0.81860266681E+02 0.  0.
        254    2    1    2    0    0  0.11980261943E+04  0.18809802967E+03 -0.83394171294E+03  0.17127860357E+04  0.87608766267E+03 0.  0.
         23    2    4    4    0    0  0.48487585023E+03 -0.17595011185E+03 -0.73318184477E+03  0.90101431546E+03  0.90598825434E+02 0.  0.
         23    2    4    4    0    0  0.71315034403E+03  0.36404814152E+03 -0.10075986817E+03  0.81177172026E+03  0.87785603901E+02 0.  0.
          2    1    3    3  502    0 -0.66111512515E+03 -0.10394683608E+03  0.28276297349E+01  0.66924296704E+03  0.00000000000E+00 0. -1.
         -1    1    3    3    0  502 -0.53691106910E+03 -0.84151193594E+02  0.76255470033E+02  0.54878940972E+03  0.00000000000E+00 0.  1.
         13    1    5    5    0    0  0.38963750626E+03 -0.11444326223E+03 -0.61727071795E+03  0.73887602870E+03  0.00000000000E+00 0. -1.
        -13    1    5    5    0    0  0.95238343973E+02 -0.61506849618E+02 -0.11591112682E+03  0.16213828676E+03  0.00000000000E+00 0.  1.
          2    1    6    6  503    0  0.65475721612E+03  0.32115530559E+03 -0.11394847322E+03  0.73812735820E+03  0.00000000000E+00 0. -1.
         -2    1    6    6    0  503  0.58393127904E+02  0.42892835927E+02  0.13188605046E+02  0.73644362061E+02  0.00000000000E+00 0.  1.
<mgrwt>
<rscale>  0 0.28319402E+04</rscale>
<asrwt>0</asrwt>
<pdfrwt beam="1">  1        2 0.28351361E+00 0.28319402E+04</pdfrwt>
<pdfrwt beam="2">  1       -1 0.16738153E+00 0.28319402E+04</pdfrwt>
<totfact> 0.20756856E+00</totfact>
</mgrwt>
</event>
<event>
12    7  0.1637954E-007  0.1805660E+04  0.7818608E-02  0.8703295E-01
          2   -1    0    0  501    0  0.00000000000E+00  0.00000000000E+00  0.98235472803E+03  0.98235472803E+03  0.00000000000E+00 0. -1.
         -1   -1    0    0    0  501 -0.00000000000E+00 -0.00000000000E+00 -0.82974331505E+03  0.82974331505E+03  0.00000000000E+00 0.  1.
         24    2    1    2    0    0 -0.39066987301E+03  0.45720916754E+03 -0.24600961678E+03  0.65464136700E+03  0.79821145536E+02 0.  0.
        254    2    1    2    0    0  0.39066987301E+03 -0.45720916754E+03  0.39862102975E+03  0.11574566761E+04  0.90506577611E+03 0.  0.
         23    2    4    4    0    0 -0.17705642463E+03 -0.16745020596E+03  0.44161886760E+03  0.51209701958E+03  0.88473635936E+02 0.  0.
         23    2    4    4    0    0  0.56772629764E+03 -0.28975896158E+03 -0.42997837852E+02  0.64535965651E+03  0.91470581812E+02 0.  0.
          4    1    3    3  502    0 -0.71289518243E+02  0.12925829699E+03 -0.78457421449E+02  0.16716898555E+03  0.00000000000E+00 0. -1.
         -3    1    3    3    0  502 -0.31938035477E+03  0.32795087055E+03 -0.16755219533E+03  0.48747238144E+03  0.00000000000E+00 0.  1.
         13    1    5    5    0    0 -0.13119707627E+03 -0.80794545058E+02  0.20895822602E+03  0.25962274853E+03  0.00000000000E+00 0. -1.
        -13    1    5    5    0    0 -0.45859348362E+02 -0.86655660904E+02  0.23266064158E+03  0.25247427104E+03  0.00000000000E+00 0.  1.
          3    1    6    6  503    0  0.50390137779E+03 -0.27704231576E+03 -0.59819489235E+02  0.57814134479E+03  0.00000000000E+00 0. -1.
         -3    1    6    6    0  503  0.63824919847E+02 -0.12716645814E+02  0.16821651383E+02  0.67218311713E+02  0.00000000000E+00 0.  1.
<mgrwt>
<rscale>  0 0.18056603E+04</rscale>
<asrwt>0</asrwt>
<pdfrwt beam="1">  1        2 0.15113150E+00 0.18056603E+04</pdfrwt>
<pdfrwt beam="2">  1       -1 0.12765282E+00 0.18056603E+04</pdfrwt>
<totfact> 0.14784221E+01</totfact>
</mgrwt>
</event>
<event>
12    7  0.1637954E-007  0.2500171E+04  0.7818608E-02  0.8402925E-01
          2   -1    0    0  501    0  0.00000000000E+00  0.00000000000E+00  0.71698057873E+03  0.71698057873E+03  0.00000000000E+00 0. -1.
         -1   -1    0    0    0  501 -0.00000000000E+00 -0.00000000000E+00 -0.21795757613E+04  0.21795757613E+04  0.00000000000E+00 0.  1.
         24    2    1    2    0    0  0.53772620537E+03 -0.63381685051E+03 -0.14296880436E+04  0.16556161489E+04  0.78636242204E+02 0.  0.
        254    2    1    2    0    0 -0.53772620537E+03  0.63381685051E+03 -0.32907139005E+02  0.12409401912E+04  0.92085634401E+03 0.  0.
         23    2    4    4    0    0 -0.13635032999E+03  0.61178109050E+03 -0.34725537477E+03  0.72251787129E+03  0.92618917268E+02 0.  0.
         23    2    4    4    0    0 -0.40137587538E+03  0.22035760006E+02  0.31434823577E+03  0.51842231987E+03  0.91426037607E+02 0.  0.
          2    1    3    3  502    0  0.19624535530E+03 -0.18591954775E+03 -0.42048003417E+03  0.49988176286E+03  0.00000000000E+00 0. -1.
         -1    1    3    3    0  502  0.34148085008E+03 -0.44789730276E+03 -0.10092080094E+04  0.11557343860E+04  0.00000000000E+00 0.  1.
         13    1    5    5    0    0 -0.12351351299E+03  0.42979305845E+03 -0.20904591187E+03  0.49363737121E+03  0.00000000000E+00 0. -1.
        -13    1    5    5    0    0 -0.12836816997E+02  0.18198803205E+03 -0.13820946290E+03  0.22888050008E+03  0.00000000000E+00 0.  1.
          3    1    6    6  503    0 -0.24277984688E+03 -0.65787397555E+01  0.23819135611E+03  0.34017709505E+03  0.00000000000E+00 0. -1.
         -3    1    6    6    0  503 -0.15859602851E+03  0.28614499762E+02  0.76156879651E+02  0.17824522482E+03  0.00000000000E+00 0.  1.
<mgrwt>
<rscale>  0 0.25001708E+04</rscale>
<asrwt>0</asrwt>
<pdfrwt beam="1">  1        2 0.11030471E+00 0.25001708E+04</pdfrwt>
<pdfrwt beam="2">  1       -1 0.33531935E+00 0.25001708E+04</pdfrwt>
<totfact> 0.78557017E-01</totfact>
</mgrwt>
</event>
<event>
12    7  0.1637954E-007  0.2853720E+04  0.7818608E-02  0.8286782E-01
          2   -1    0    0  501    0  0.00000000000E+00  0.00000000000E+00  0.17265415695E+04  0.17265415695E+04  0.00000000000E+00 0. -1.
         -1   -1    0    0    0  501 -0.00000000000E+00 -0.00000000000E+00 -0.11791947990E+04  0.11791947990E+04  0.00000000000E+00 0.  1.
         24    2    1    2    0    0 -0.10775292220E+03  0.59984349216E+03  0.13974870169E+04  0.15266804237E+04  0.79751152630E+02 0.  0.
        254    2    1    2    0    0  0.10775292220E+03 -0.59984349216E+03 -0.85014024635E+03  0.13790559449E+04  0.89868456831E+03 0.  0.
         23    2    4    4    0    0  0.36649646434E+03 -0.57369451219E+00 -0.51791806191E+03  0.64095499054E+03  0.90907609968E+02 0.  0.
         23    2    4    4    0    0 -0.25874354214E+03 -0.59926979764E+03 -0.33222218444E+03  0.73810095434E+03  0.91372468482E+02 0.  0.
          4    1    3    3  502    0 -0.23447733704E+02  0.27129994605E+03  0.69972929233E+03  0.75084921221E+03  0.00000000000E+00 0. -1.
         -3    1    3    3    0  502 -0.84305188495E+02  0.32854354611E+03  0.69775772454E+03  0.77583121145E+03  0.00000000000E+00 0.  1.
         13    1    5    5    0    0  0.32073879173E+03  0.26005005468E+02 -0.46974870161E+03  0.56939746706E+03  0.00000000000E+00 0. -1.
        -13    1    5    5    0    0  0.45757672603E+02 -0.26578699980E+02 -0.48169360297E+02  0.71557523476E+02  0.00000000000E+00 0.  1.
          4    1    6    6  503    0 -0.16594939551E+03 -0.48054727987E+03 -0.25910173023E+03  0.57061247503E+03  0.00000000000E+00 0. -1.
         -4    1    6    6    0  503 -0.92794146629E+02 -0.11872251778E+03 -0.73120454209E+02  0.16748847930E+03  0.00000000000E+00 0.  1.
<mgrwt>
<rscale>  0 0.28537196E+04</rscale>
<asrwt>0</asrwt>
<pdfrwt beam="1">  1        2 0.26562178E+00 0.28537196E+04</pdfrwt>
<pdfrwt beam="2">  1       -1 0.18141458E+00 0.28537196E+04</pdfrwt>
<totfact> 0.19003583E+00</totfact>
</mgrwt>
</event>
<event>
12    7  0.1637954E-007  0.1400480E+04  0.7818608E-02  0.8953472E-01
          2   -1    0    0  501    0  0.00000000000E+00  0.00000000000E+00  0.81679894848E+03  0.81679894848E+03  0.00000000000E+00 0. -1.
         -1   -1    0    0    0  501 -0.00000000000E+00 -0.00000000000E+00 -0.60031385119E+03  0.60031385119E+03  0.00000000000E+00 0.  1.
         24    2    1    2    0    0 -0.22983661228E+03 -0.27972220371E+03  0.25187595364E+03  0.44897930902E+03  0.84092474762E+02 0.  0.
        254    2    1    2    0    0  0.22983661228E+03  0.27972220371E+03 -0.35390856355E+02  0.96813349065E+03  0.89719594483E+03 0.  0.
         23    2    4    4    0    0  0.10189280076E+03 -0.10495862512E+03  0.35714504948E+03  0.39623657344E+03  0.89735054104E+02 0.  0.
         23    2    4    4    0    0  0.12794381152E+03  0.38468082883E+03 -0.39253590583E+03  0.57189691721E+03  0.92912257401E+02 0.  0.
          2    1    3    3  502    0 -0.17811327295E+03 -0.23972855479E+03  0.16810839369E+03  0.34271642798E+03  0.00000000000E+00 0. -1.
         -1    1    3    3    0  502 -0.51723339334E+02 -0.39993648921E+02  0.83767559950E+02  0.10626288103E+03  0.00000000000E+00 0.  1.
         13    1    5    5    0    0  0.14321513500E+02 -0.49027993988E+02  0.47983485497E+02  0.70080416836E+02  0.00000000000E+00 0. -1.
        -13    1    5    5    0    0  0.87571287261E+02 -0.55930631131E+02  0.30916156398E+03  0.32615615661E+03  0.00000000000E+00 0.  1.
          4    1    6    6  503    0 -0.11111125929E+02  0.16930153097E+02 -0.35202864002E+02  0.40611929740E+02  0.00000000000E+00 0. -1.
         -4    1    6    6    0  503  0.13905493745E+03  0.36775067573E+03 -0.35733304183E+03  0.53128498747E+03  0.00000000000E+00 0.  1.
<mgrwt>
<rscale>  0 0.14004795E+04</rscale>
<asrwt>0</asrwt>
<pdfrwt beam="1">  1        2 0.12566138E+00 0.14004795E+04</pdfrwt>
<pdfrwt beam="2">  1       -1 0.92355977E-01 0.14004795E+04</pdfrwt>
<totfact> 0.42475315E+01</totfact>
</mgrwt>
</event>
<event>
12    7  0.1637954E-007  0.2115872E+04  0.7818608E-02  0.8554284E-01
          2   -1    0    0  501    0  0.00000000000E+00  0.00000000000E+00  0.38975661243E+04  0.38975661243E+04  0.00000000000E+00 0. -1.
         -1   -1    0    0    0  501 -0.00000000000E+00 -0.00000000000E+00 -0.28716076796E+03  0.28716076796E+03  0.00000000000E+00 0.  1.
         24    2    1    2    0    0 -0.81979966842E+02  0.20685287026E+03  0.31427072735E+04  0.31517330695E+04  0.85460573612E+02 0.  0.
        254    2    1    2    0    0  0.81979966842E+02 -0.20685287026E+03  0.46769808279E+03  0.10329938227E+04  0.89377061721E+03 0.  0.
         23    2    4    4    0    0  0.19853293294E+03 -0.18386740219E+03 -0.19980882586E+03  0.34891038223E+03  0.92694880600E+02 0.  0.
         23    2    4    4    0    0 -0.11655296610E+03 -0.22985468075E+02  0.66750690865E+03  0.68408344047E+03  0.91059072970E+02 0.  0.
          2    1    3    3  502    0 -0.27762152849E+02  0.16372792481E+03  0.19731830290E+04  0.19801587907E+04  0.00000000000E+00 0. -1.
         -1    1    3    3    0  502 -0.54217813993E+02  0.43124945447E+02  0.11695242445E+04  0.11715742788E+04  0.00000000000E+00 0.  1.
         13    1    5    5    0    0  0.18950530424E+03 -0.14546842266E+03 -0.19649110536E+03  0.30932519590E+03  0.00000000000E+00 0. -1.
        -13    1    5    5    0    0  0.90276286947E+01 -0.38398979521E+02 -0.33177205018E+01  0.39585186338E+02  0.00000000000E+00 0.  1.
          1    1    6    6  503    0 -0.11458650150E+03 -0.40782007669E+02  0.46008422995E+03  0.47588941690E+03  0.00000000000E+00 0. -1.
         -1    1    6    6    0  503 -0.19664645940E+01  0.17796539594E+02  0.20742267871E+03  0.20819402356E+03  0.00000000000E+00 0.  1.
<mgrwt>
<rscale>  0 0.21158715E+04</rscale>
<asrwt>0</asrwt>
<pdfrwt beam="1">  1        2 0.59962552E+00 0.21158715E+04</pdfrwt>
<pdfrwt beam="2">  1       -1 0.44178582E-01 0.21158715E+04</pdfrwt>
<totfact> 0.22086180E+00</totfact>
</mgrwt>
</event>
<event>
12    7  0.1637954E-007  0.1561685E+04  0.7818608E-02  0.8844439E-01
          2   -1    0    0  501    0  0.00000000000E+00  0.00000000000E+00  0.19085042775E+04  0.19085042775E+04  0.00000000000E+00 0. -1.
         -1   -1    0    0    0  501 -0.00000000000E+00 -0.00000000000E+00 -0.31947258487E+03  0.31947258487E+03  0.00000000000E+00 0.  1.
         24    2    1    2    0    0  0.47400882171E+03 -0.10287660910E+03  0.79517067543E+03  0.93490362936E+03  0.80501138911E+02 0.  0.
        254    2    1    2    0    0 -0.47400882171E+03  0.10287660910E+03  0.79386101716E+03  0.12930732330E+04  0.89808413387E+03 0.  0.
         23    2    4    4    0    0  0.23637528098E+03  0.14368156790E+03  0.14427528661E+03  0.32512009634E+03  0.91487989968E+02 0.  0.
         23    2    4    4    0    0 -0.71038410269E+03 -0.40804958800E+02  0.64958573055E+03  0.96795313663E+03  0.93064683771E+02 0.  0.
          2    1    3    3  502    0  0.35038715292E+03 -0.64301071598E+02  0.51443632256E+03  0.62573997372E+03  0.00000000000E+00 0. -1.
         -1    1    3    3    0  502  0.12362166879E+03 -0.38575537504E+02  0.28073435287E+03  0.30916365565E+03  0.00000000000E+00 0.  1.
         13    1    5    5    0    0  0.76424313098E+02  0.94216550503E+02  0.39368199549E+02  0.12754328347E+03  0.00000000000E+00 0. -1.
        -13    1    5    5    0    0  0.15995096788E+03  0.49465017398E+02  0.10490708706E+03  0.19757681288E+03  0.00000000000E+00 0.  1.
          2    1    6    6  503    0 -0.37743418062E+03  0.22284560262E+02  0.32197429665E+03  0.49660911190E+03  0.00000000000E+00 0.  1.
         -2    1    6    6    0  503 -0.33294992207E+03 -0.63089519062E+02  0.32761143390E+03  0.47134402473E+03  0.00000000000E+00 0. -1.
<mgrwt>
<rscale>  0 0.15616847E+04</rscale>
<asrwt>0</asrwt>
<pdfrwt beam="1">  1        2 0.29361604E+00 0.15616847E+04</pdfrwt>
<pdfrwt beam="2">  1       -1 0.49149630E-01 0.15616847E+04</pdfrwt>
<totfact> 0.34129309E+01</totfact>
</mgrwt>
</event>
<event>
12    7  0.1637954E-007  0.1890608E+04  0.7818608E-02  0.8659545E-01
         -1   -1    0    0    0  501 -0.00000000000E+00  0.00000000000E+00  0.40575612525E+03  0.40575612525E+03  0.00000000000E+00 0.  1.
          2   -1    0    0  501    0  0.00000000000E+00 -0.00000000000E+00 -0.22023081071E+04  0.22023081071E+04  0.00000000000E+00 0. -1.
         24    2    1    2    0    0  0.68415016697E+02 -0.36588206637E+03  0.16944001872E+03  0.41639263946E+03  0.78247103762E+02 0.  0.
        254    2    1    2    0    0 -0.68415016697E+02  0.36588206637E+03 -0.19659920006E+04  0.21916715929E+04  0.89428715957E+03 0.  0.
         23    2    4    4    0    0  0.34580538841E+03  0.30595161183E+03 -0.61616774454E+03  0.77542790064E+03  0.91858501221E+02 0.  0.
         23    2    4    4    0    0 -0.41422040511E+03  0.59930454545E+02 -0.13498242561E+04  0.14162436923E+04  0.92468752949E+02 0.  0.
          4    1    3    3  502    0 -0.22984560278E+01 -0.52033073972E+02  0.52850133334E+02  0.74201484355E+02  0.00000000000E+00 0. -1.
         -3    1    3    3    0  502  0.70713472725E+02 -0.31384899240E+03  0.11658988539E+03  0.34219115510E+03  0.00000000000E+00 0.  1.
         13    1    5    5    0    0  0.24757088808E+03  0.17153529538E+03 -0.43818324122E+03  0.53171444881E+03  0.00000000000E+00 0. -1.
        -13    1    5    5    0    0  0.98234500336E+02  0.13441631644E+03 -0.17798450332E+03  0.24371345184E+03  0.00000000000E+00 0.  1.
          1    1    6    6  503    0 -0.83665784856E+02  0.47984848653E+02 -0.25916609649E+03  0.27653132703E+03  0.00000000000E+00 0. -1.
         -1    1    6    6    0  503 -0.33055462025E+03  0.11945605892E+02 -0.10906581596E+04  0.11397123653E+04  0.00000000000E+00 0.  1.
<mgrwt>
<rscale>  0 0.18906084E+04</rscale>
<asrwt>0</asrwt>
<pdfrwt beam="1">  1        2 0.33881663E+00 0.18906084E+04</pdfrwt>
<pdfrwt beam="2">  1       -1 0.62424020E-01 0.18906084E+04</pdfrwt>
<totfact> 0.14303256E+01</totfact>
</mgrwt>
</event>
<event>
12    7  0.1637954E-007  0.1174545E+04  0.7818608E-02  0.9135434E-01
          2   -1    0    0  501    0  0.00000000000E+00  0.00000000000E+00  0.61009850103E+03  0.61009850103E+03  0.00000000000E+00 0. -1.
         -1   -1    0    0    0  501 -0.00000000000E+00 -0.00000000000E+00 -0.56530024011E+03  0.56530024011E+03  0.00000000000E+00 0.  1.
         24    2    1    2    0    0  0.81777641482E+02  0.16260441203E+03 -0.13865596826E+03  0.24159986788E+03  0.77570878360E+02 0.  0.
        254    2    1    2    0    0 -0.81777641482E+02 -0.16260441203E+03  0.18345422918E+03  0.93379887326E+03  0.89732775731E+03 0.  0.
         23    2    4    4    0    0 -0.37973893944E+03 -0.28007882356E+03  0.31570187494E+03  0.57479547598E+03  0.89868547480E+02 0.  0.
         23    2    4    4    0    0  0.29796129795E+03  0.11747441154E+03 -0.13224764577E+03  0.35900339728E+03  0.93876658469E+02 0.  0.
          2    1    3    3  502    0  0.23744955247E+02  0.33609452817E+02 -0.76983234311E+02  0.87291675338E+02  0.00000000000E+00 0. -1.
         -1    1    3    3    0  502  0.58032686236E+02  0.12899495921E+03 -0.61672733945E+02  0.15430819254E+03  0.00000000000E+00 0.  1.
         13    1    5    5    0    0 -0.11902872531E+03 -0.55717309820E+02  0.51811901432E+02  0.14126828800E+03  0.00000000000E+00 0. -1.
        -13    1    5    5    0    0 -0.26071021412E+03 -0.22436151374E+03  0.26388997351E+03  0.43352718798E+03  0.00000000000E+00 0.  1.
          1    1    6    6  503    0  0.92462978597E+02  0.41615035731E+02 -0.90704286933E+02  0.13604587931E+03  0.00000000000E+00 0. -1.
         -1    1    6    6    0  503  0.20549831936E+03  0.75859375804E+02 -0.41543358834E+02  0.22295751797E+03  0.00000000000E+00 0.  1.
<mgrwt>
<rscale>  0 0.11745447E+04</rscale>
<asrwt>0</asrwt>
<pdfrwt beam="1">  1        2 0.93861308E-01 0.11745447E+04</pdfrwt>
<pdfrwt beam="2">  1       -1 0.86969268E-01 0.11745447E+04</pdfrwt>
<totfact> 0.71533439E+01</totfact>
</mgrwt>
</event>
<event>
12    7  0.1637954E-007  0.1305574E+04  0.7818608E-02  0.9025156E-01
         -1   -1    0    0    0  501 -0.00000000000E+00  0.00000000000E+00  0.97445202102E+03  0.97445202102E+03  0.00000000000E+00 0.  1.
          2   -1    0    0  501    0  0.00000000000E+00 -0.00000000000E+00 -0.43730321674E+03  0.43730321674E+03  0.00000000000E+00 0. -1.
         24    2    1    2    0    0 -0.39991994982E+02  0.32397270219E+03  0.39602000454E+02  0.33860969215E+03  0.80811717937E+02 0.  0.
        254    2    1    2    0    0  0.39991994982E+02 -0.32397270219E+03  0.49754680382E+03  0.10731455456E+04  0.89304583793E+03 0.  0.
         23    2    4    4    0    0 -0.30491763919E+02 -0.52803384813E+03  0.15203980931E+02  0.53694509478E+03  0.91265444359E+02 0.  0.
         23    2    4    4    0    0  0.70483758900E+02  0.20406114594E+03  0.48234282289E+03  0.53620045083E+03  0.90815269246E+02 0.  0.
          2    1    3    3  502    0 -0.51091622372E+02  0.27253798520E+03  0.83529967050E+01  0.27741139091E+03  0.00000000000E+00 0. -1.
         -1    1    3    3    0  502  0.11099627390E+02  0.51434716987E+02  0.31249003749E+02  0.61198301243E+02  0.00000000000E+00 0.  1.
         13    1    5    5    0    0 -0.28926339941E+02 -0.48651613355E+03 -0.11579895053E+02  0.48751284630E+03  0.00000000000E+00 0. -1.
        -13    1    5    5    0    0 -0.15654239778E+01 -0.41517714580E+02  0.26783875984E+02  0.49432248471E+02  0.00000000000E+00 0.  1.
          2    1    6    6  503    0  0.91788009214E+02  0.17781412261E+03  0.42177742158E+03  0.46683947368E+03  0.00000000000E+00 0. -1.
         -2    1    6    6    0  503 -0.21304250314E+02  0.26247023326E+02  0.60565401309E+02  0.69360977146E+02  0.00000000000E+00 0.  1.
<mgrwt>
<rscale>  0 0.13055742E+04</rscale>
<asrwt>0</asrwt>
<pdfrwt beam="1">  1        2 0.67277418E-01 0.13055742E+04</pdfrwt>
<pdfrwt beam="2">  1       -1 0.14991570E+00 0.13055742E+04</pdfrwt>
<totfact> 0.28149871E+01</totfact>
</mgrwt>
</event>
<event>
12    7  0.1637954E-007  0.1859179E+04  0.7818608E-02  0.8675446E-01
          2   -1    0    0  501    0  0.00000000000E+00  0.00000000000E+00  0.12957284893E+04  0.12957284893E+04  0.00000000000E+00 0. -1.
         -1   -1    0    0    0  501 -0.00000000000E+00 -0.00000000000E+00 -0.66691212293E+03  0.66691212293E+03  0.00000000000E+00 0.  1.
         24    2    1    2    0    0  0.40754494151E+03 -0.57528663251E+03  0.23769994966E+03  0.74836745119E+03  0.80653499854E+02 0.  0.
        254    2    1    2    0    0 -0.40754494151E+03  0.57528663251E+03  0.39111641672E+03  0.12142731611E+04  0.90798660196E+03 0.  0.
         23    2    4    4    0    0 -0.41790584341E+03  0.77557037632E+03  0.16982223946E+03  0.90171288189E+03  0.89954576174E+02 0.  0.
         23    2    4    4    0    0  0.10360901904E+02 -0.20028374381E+03  0.22129417726E+03  0.31256027916E+03  0.92205687994E+02 0.  0.
          4    1    3    3  502    0  0.15588802921E+02 -0.59889941476E+02  0.26100061531E+02  0.67164194914E+02  0.00000000000E+00 0. -1.
         -3    1    3    3    0  502  0.39195613859E+03 -0.51539669103E+03  0.21159988813E+03  0.68120325627E+03  0.00000000000E+00 0.  1.
         13    1    5    5    0    0 -0.24500256475E+03  0.38732018683E+03  0.12027621729E+03  0.47382438974E+03  0.00000000000E+00 0.  1.
        -13    1    5    5    0    0 -0.17290327866E+03  0.38825018948E+03  0.49546022172E+02  0.42788849216E+03  0.00000000000E+00 0. -1.
          3    1    6    6  503    0 -0.42152401340E+01  0.93778333870E+01  0.72211989025E+01  0.12564144301E+02  0.00000000000E+00 0. -1.
         -3    1    6    6    0  503  0.14576142038E+02 -0.20966157720E+03  0.21407297836E+03  0.29999613486E+03  0.00000000000E+00 0.  1.
<mgrwt>
<rscale>  0 0.18591794E+04</rscale>
<asrwt>0</asrwt>
<pdfrwt beam="1">  1        2 0.19934284E+00 0.18591794E+04</pdfrwt>
<pdfrwt beam="2">  1       -1 0.10260187E+00 0.18591794E+04</pdfrwt>
<totfact> 0.15999777E+01</totfact>
</mgrwt>
</event>
<event>
12    7  0.1637954E-007  0.1652827E+04  0.7818608E-02  0.8788736E-01
          2   -1    0    0  501    0  0.00000000000E+00  0.00000000000E+00  0.55798258052E+03  0.55798258052E+03  0.00000000000E+00 0. -1.
         -1   -1    0    0    0  501 -0.00000000000E+00 -0.00000000000E+00 -0.12239794982E+04  0.12239794982E+04  0.00000000000E+00 0.  1.
         24    2    1    2    0    0 -0.15673827030E+03 -0.33112552464E+02 -0.82893209567E+03  0.84811264477E+03  0.80643118057E+02 0.  0.
        254    2    1    2    0    0  0.15673827030E+03  0.33112552464E+02  0.16293517801E+03  0.93384943394E+03  0.90546317790E+03 0.  0.
         23    2    4    4    0    0  0.34838949615E+03  0.17127172542E+03  0.41448498883E+03  0.57541506593E+03  0.92711634514E+02 0.  0.
         23    2    4    4    0    0 -0.19165122585E+03 -0.13815917295E+03 -0.25154981082E+03  0.35843436801E+03  0.96849054741E+02 0.  0.
          2    1    3    3  502    0 -0.10000687918E+03 -0.59029552118E+01 -0.66530643110E+03  0.67280670926E+03  0.00000000000E+00 0. -1.
         -1    1    3    3    0  502 -0.56731391118E+02 -0.27209597253E+02 -0.16362566457E+03  0.17530593552E+03  0.00000000000E+00 0.  1.
         13    1    5    5    0    0  0.36702508162E+01  0.19036621880E+02  0.38406928187E+02  0.43022736389E+02  0.00000000000E+00 0. -1.
        -13    1    5    5    0    0  0.34471924534E+03  0.15223510354E+03  0.37607806064E+03  0.53239232954E+03  0.00000000000E+00 0.  1.
          4    1    6    6  503    0 -0.98166310841E+02 -0.10814410435E+03 -0.96990032490E+02  0.17532495057E+03  0.00000000000E+00 0. -1.
         -4    1    6    6    0  503 -0.93484915014E+02 -0.30015068608E+02 -0.15455977833E+03  0.18310941744E+03  0.00000000000E+00 0.  1.
<mgrwt>
<rscale>  0 0.16528270E+04</rscale>
<asrwt>0</asrwt>
<pdfrwt beam="1">  1        2 0.85843474E-01 0.16528270E+04</pdfrwt>
<pdfrwt beam="2">  1       -1 0.18830454E+00 0.16528270E+04</pdfrwt>
<totfact> 0.10724690E+01</totfact>
</mgrwt>
</event>
<event>
12    7  0.1637954E-007  0.1358276E+04  0.7818608E-02  0.8984587E-01
          2   -1    0    0  501    0  0.00000000000E+00  0.00000000000E+00  0.25544663825E+04  0.25544663825E+04  0.00000000000E+00 0. -1.
         -1   -1    0    0    0  501 -0.00000000000E+00 -0.00000000000E+00 -0.18055768666E+03  0.18055768666E+03  0.00000000000E+00 0.  1.
         24    2    1    2    0    0  0.22111644944E+03 -0.26724996295E+03  0.88460719182E+03  0.95371264821E+03  0.81993320636E+02 0.  0.
        254    2    1    2    0    0 -0.22111644944E+03  0.26724996295E+03  0.14893015040E+04  0.17813114210E+04  0.91363908720E+03 0.  0.
         23    2    4    4    0    0 -0.33469743502E+03  0.83876713069E+02  0.94573303182E+02  0.36711500760E+03  0.82289994097E+02 0.  0.
         23    2    4    4    0    0  0.11358098558E+03  0.18337324988E+03  0.13947282009E+04  0.14141964134E+04  0.90323597587E+02 0.  0.
          4    1    3    3  502    0  0.19346670602E+03 -0.25611190772E+03  0.84665091273E+03  0.90545040927E+03  0.00000000000E+00 0. -1.
         -3    1    3    3    0  502  0.27649743422E+02 -0.11138055236E+02  0.37956279084E+02  0.48262238942E+02  0.00000000000E+00 0.  1.
         13    1    5    5    0    0 -0.32624294407E+03  0.95841402765E+02  0.89498150618E+02  0.35161051179E+03  0.00000000000E+00 0.  1.
        -13    1    5    5    0    0 -0.84544909459E+01 -0.11964689695E+02  0.50751525644E+01  0.15504495807E+02  0.00000000000E+00 0. -1.
          1    1    6    6  503    0 -0.89109929926E+01  0.64422509648E+01  0.20896772213E+02  0.23613205681E+02  0.00000000000E+00 0. -1.
         -1    1    6    6    0  503  0.12249197857E+03  0.17693099892E+03  0.13738314286E+04  0.13905832077E+04  0.00000000000E+00 0.  1.
<mgrwt>
<rscale>  0 0.13582762E+04</rscale>
<asrwt>0</asrwt>
<pdfrwt beam="1">  1        2 0.39299480E+00 0.13582762E+04</pdfrwt>
<pdfrwt beam="2">  1       -1 0.27778107E-01 0.13582762E+04</pdfrwt>
<totfact> 0.42197067E+01</totfact>
</mgrwt>
</event>
<event>
12    7  0.1637954E-007  0.4511287E+04  0.7818608E-02  0.7908664E-01
          2   -1    0    0  501    0  0.00000000000E+00  0.00000000000E+00  0.26519283064E+04  0.26519283064E+04  0.00000000000E+00 0. -1.
         -1   -1    0    0    0  501 -0.00000000000E+00 -0.00000000000E+00 -0.19185767854E+04  0.19185767854E+04  0.00000000000E+00 0.  1.
         24    2    1    2    0    0  0.20438852548E+04 -0.57137639130E+03 -0.81740579457E+02  0.21252981561E+04  0.79201101514E+02 0.  0.
        254    2    1    2    0    0 -0.20438852548E+04  0.57137639130E+03  0.81509210041E+03  0.24452069357E+04  0.90040208290E+03 0.  0.
         23    2    4    4    0    0 -0.15726488464E+04  0.79837586679E+03  0.53920896891E+03  0.18465583185E+04  0.91667293449E+02 0.  0.
         23    2    4    4    0    0 -0.47123640837E+03 -0.22699947549E+03  0.27588313150E+03  0.59864861717E+03  0.93145854177E+02 0.  0.
          2    1    3    3  502    0  0.21889997870E+03 -0.49679962861E+02 -0.30399325434E+02  0.22651582366E+03  0.00000000000E+00 0. -1.
         -1    1    3    3    0  502  0.18249852761E+04 -0.52169642844E+03 -0.51341254023E+02  0.18987823324E+04  0.00000000000E+00 0.  1.
         13    1    5    5    0    0 -0.11491423110E+04  0.54184350933E+03  0.40673748690E+03  0.13340006832E+04  0.00000000000E+00 0. -1.
        -13    1    5    5    0    0 -0.42350653544E+03  0.25653235746E+03  0.13247148201E+03  0.51255763533E+03  0.00000000000E+00 0.  1.
          1    1    6    6  503    0 -0.17414995055E+03 -0.12684492106E+03  0.85087035316E+02  0.23164119421E+03  0.00000000000E+00 0. -1.
         -1    1    6    6    0  503 -0.29708645782E+03 -0.10015455444E+03  0.19079609618E+03  0.36700742296E+03  0.00000000000E+00 0.  1.
<mgrwt>
<rscale>  0 0.45112872E+04</rscale>
<asrwt>0</asrwt>
<pdfrwt beam="1">  1        2 0.40798897E+00 0.45112872E+04</pdfrwt>
<pdfrwt beam="2">  1       -1 0.29516566E+00 0.45112872E+04</pdfrwt>
<totfact> 0.86624680E-02</totfact>
</mgrwt>
</event>
<event>
12    7  0.1637954E-007  0.1335505E+04  0.7818608E-02  0.9001874E-01
          2   -1    0    0  501    0  0.00000000000E+00  0.00000000000E+00  0.17669693269E+04  0.17669693269E+04  0.00000000000E+00 0. -1.
         -1   -1    0    0    0  501 -0.00000000000E+00 -0.00000000000E+00 -0.25234908471E+03  0.25234908471E+03  0.00000000000E+00 0.  1.
         24    2    1    2    0    0  0.15180405519E+03  0.32121160706E+03  0.34440746132E+03  0.50114439374E+03  0.79421887928E+02 0.  0.
        254    2    1    2    0    0 -0.15180405519E+03 -0.32121160706E+03  0.11702127809E+04  0.15181740179E+04  0.89957380374E+03 0.  0.
         23    2    4    4    0    0 -0.25631727029E+03 -0.46295032065E+03  0.12011589024E+04  0.13156736351E+04  0.90514435236E+02 0.  0.
         23    2    4    4    0    0  0.10451321509E+03  0.14173871359E+03 -0.30946121474E+02  0.20250038277E+03  0.95057180313E+02 0.  0.
          2    1    3    3  502    0  0.75010142324E+02  0.10204795703E+03  0.82712348407E+02  0.15126678275E+03  0.00000000000E+00 0. -1.
         -1    1    3    3    0  502  0.76793912871E+02  0.21916365003E+03  0.26169511291E+03  0.34987761099E+03  0.00000000000E+00 0.  1.
         13    1    5    5    0    0 -0.23350378063E+03 -0.37732232274E+03  0.10583311856E+04  0.11475892337E+04  0.00000000000E+00 0.  1.
        -13    1    5    5    0    0 -0.22813489660E+02 -0.85627997908E+02  0.14282771672E+03  0.16808440142E+03  0.00000000000E+00 0. -1.
          1    1    6    6  503    0  0.76761151245E+02  0.11752440325E+03  0.17701051667E+02  0.14148352176E+03  0.00000000000E+00 0. -1.
         -1    1    6    6    0  503  0.27752063848E+02  0.24214310344E+02 -0.48647173142E+02  0.61016861014E+02  0.00000000000E+00 0.  1.
<mgrwt>
<rscale>  0 0.13355045E+04</rscale>
<asrwt>0</asrwt>
<pdfrwt beam="1">  1        2 0.27184143E+00 0.13355045E+04</pdfrwt>
<pdfrwt beam="2">  1       -1 0.38822937E-01 0.13355045E+04</pdfrwt>
<totfact> 0.64500314E+01</totfact>
</mgrwt>
</event>
<event>
12    7  0.1637954E-007  0.1298761E+04  0.7818608E-02  0.9030548E-01
          2   -1    0    0  501    0  0.00000000000E+00  0.00000000000E+00  0.13494560746E+04  0.13494560746E+04  0.00000000000E+00 0. -1.
         -1   -1    0    0    0  501 -0.00000000000E+00 -0.00000000000E+00 -0.31249259780E+03  0.31249259780E+03  0.00000000000E+00 0.  1.
         24    2    1    2    0    0 -0.16283359554E+03 -0.29038020873E+03  0.23131339216E+03  0.41292293411E+03  0.78511264543E+02 0.  0.
        254    2    1    2    0    0  0.16283359554E+03  0.29038020873E+03  0.80565008469E+03  0.12490257383E+04  0.89451539428E+03 0.  0.
         23    2    4    4    0    0 -0.34065944406E+03  0.60957274830E+02  0.48743937924E+03  0.60449984286E+03  0.89767841677E+02 0.  0.
         23    2    4    4    0    0  0.50349303960E+03  0.22942293390E+03  0.31821070544E+03  0.64452589547E+03  0.89529064293E+02 0.  0.
          2    1    3    3  502    0 -0.93459320625E+02 -0.12502529055E+03  0.14833940104E+03  0.21533821256E+03  0.00000000000E+00 0. -1.
         -1    1    3    3    0  502 -0.69374274920E+02 -0.16535491817E+03  0.82973991122E+02  0.19758472154E+03  0.00000000000E+00 0.  1.
         13    1    5    5    0    0 -0.23736152745E+03 -0.41340793612E+00  0.32169617019E+03  0.39978630734E+03  0.00000000000E+00 0. -1.
        -13    1    5    5    0    0 -0.10329791661E+03  0.61370682766E+02  0.16574320905E+03  0.20471353552E+03  0.00000000000E+00 0.  1.
          3    1    6    6  503    0  0.38048917206E+03  0.21340217965E+03  0.25493210853E+03  0.50527505409E+03  0.00000000000E+00 0. -1.
         -3    1    6    6    0  503  0.12300386754E+03  0.16020754249E+02  0.63278596915E+02  0.13925084138E+03  0.00000000000E+00 0.  1.
<mgrwt>
<rscale>  0 0.12987610E+04</rscale>
<asrwt>0</asrwt>
<pdfrwt beam="1">  1        2 0.20760862E+00 0.12987610E+04</pdfrwt>
<pdfrwt beam="2">  1       -1 0.48075785E-01 0.12987610E+04</pdfrwt>
<totfact> 0.74739073E+01</totfact>
</mgrwt>
</event>
<event>
12    7  0.1637954E-007  0.1886239E+04  0.7818608E-02  0.8661737E-01
         -1   -1    0    0    0  501 -0.00000000000E+00  0.00000000000E+00  0.11057408204E+04  0.11057408204E+04  0.00000000000E+00 0.  1.
          2   -1    0    0  501    0  0.00000000000E+00 -0.00000000000E+00 -0.80441462815E+03  0.80441462815E+03  0.00000000000E+00 0. -1.
         24    2    1    2    0    0  0.13034839942E+03 -0.34451077134E+03  0.73149971803E+03  0.82284369931E+03  0.79382234881E+02 0.  0.
        254    2    1    2    0    0 -0.13034839942E+03  0.34451077134E+03 -0.43017352575E+03  0.10873117493E+04  0.92818058643E+03 0.  0.
         23    2    4    4    0    0 -0.29665877789E+03  0.60287851539E+03 -0.31373755967E+03  0.74714052833E+03  0.91207334735E+02 0.  0.
         23    2    4    4    0    0  0.16631037848E+03 -0.25836774405E+03 -0.11643596608E+03  0.34017122093E+03  0.88011886706E+02 0.  0.
          4    1    3    3  502    0 -0.51807176400E+01 -0.48648299339E+02  0.13093587499E+03  0.13977732371E+03  0.00000000000E+00 0. -1.
         -1    1    3    3    0  502  0.13552911706E+03 -0.29586247200E+03  0.60056384305E+03  0.68306637561E+03  0.00000000000E+00 0.  1.
         13    1    5    5    0    0 -0.18208753182E+03  0.26715697067E+03 -0.15336014110E+03  0.35783802076E+03  0.00000000000E+00 0. -1.
        -13    1    5    5    0    0 -0.11457124607E+03  0.33572154472E+03 -0.16037741857E+03  0.38930250757E+03  0.00000000000E+00 0.  1.
          4    1    6    6  503    0  0.32298222421E+02 -0.11390078970E+03 -0.70647318180E+02  0.13786808417E+03  0.00000000000E+00 0. -1.
         -4    1    6    6    0  503  0.13401215606E+03 -0.14446695435E+03 -0.45788647901E+02  0.20230313677E+03  0.00000000000E+00 0.  1.
<mgrwt>
<rscale>  0 0.18862387E+04</rscale>
<asrwt>0</asrwt>
<pdfrwt beam="1">  1        2 0.12375610E+00 0.18862387E+04</pdfrwt>
<pdfrwt beam="2">  1       -1 0.17011397E+00 0.18862387E+04</pdfrwt>
<totfact> 0.89865820E+00</totfact>
</mgrwt>
</event>
<event>
12    7  0.1637954E-007  0.2487523E+04  0.7818608E-02  0.8407444E-01
         -1   -1    0    0    0  501 -0.00000000000E+00  0.00000000000E+00  0.50466767411E+03  0.50466767411E+03  0.00000000000E+00 0.  1.
          2   -1    0    0  501    0  0.00000000000E+00 -0.00000000000E+00 -0.30652709973E+04  0.30652709973E+04  0.00000000000E+00 0. -1.
         24    2    1    2    0    0  0.78659312256E+03  0.30477737629E+03 -0.15095305066E+03  0.86223750648E+03  0.95124678804E+02 0.  0.
        254    2    1    2    0    0 -0.78659312256E+03 -0.30477737629E+03 -0.24096502725E+04  0.27077011649E+04  0.90200508487E+03 0.  0.
         23    2    4    4    0    0 -0.79077932692E+03  0.69234325610E+02 -0.19522034632E+04  0.21094098043E+04  0.91575241253E+02 0.  0.
         23    2    4    4    0    0  0.41862043652E+01 -0.37401170190E+03 -0.45744680926E+03  0.59829136062E+03  0.93769352266E+02 0.  0.
          2    1    3    3  502    0  0.12973311814E+03  0.89459980096E+02 -0.23331506999E+02  0.15930514492E+03  0.00000000000E+00 0. -1.
         -3    1    3    3    0  502  0.65686000442E+03  0.21531739619E+03 -0.12762154366E+03  0.70293236155E+03  0.00000000000E+00 0.  1.
         13    1    5    5    0    0 -0.15727765925E+03  0.34782579523E+02 -0.48048687841E+03  0.50676792544E+03  0.00000000000E+00 0. -1.
        -13    1    5    5    0    0 -0.63350166768E+03  0.34451746087E+02 -0.14717165848E+04  0.16026418789E+04  0.00000000000E+00 0.  1.
          1    1    6    6  503    0 -0.11015105204E+02 -0.26670909071E+03 -0.25766023566E+03  0.37100386609E+03  0.00000000000E+00 0. -1.
         -1    1    6    6    0  503  0.15201309569E+02 -0.10730261119E+03 -0.19978657360E+03  0.22728749453E+03  0.00000000000E+00 0.  1.
<mgrwt>
<rscale>  0 0.24875234E+04</rscale>
<asrwt>0</asrwt>
<pdfrwt beam="1">  1        2 0.47158014E+00 0.24875234E+04</pdfrwt>
<pdfrwt beam="2">  1       -1 0.77641183E-01 0.24875234E+04</pdfrwt>
<totfact> 0.26734933E+00</totfact>
</mgrwt>
</event>
<event>
12    7  0.1637954E-007  0.1927308E+04  0.7818608E-02  0.8641381E-01
         -1   -1    0    0    0  501 -0.00000000000E+00  0.00000000000E+00  0.52973179723E+03  0.52973179723E+03  0.00000000000E+00 0.  1.
          2   -1    0    0  501    0  0.00000000000E+00 -0.00000000000E+00 -0.17530179649E+04  0.17530179649E+04  0.00000000000E+00 0. -1.
         24    2    1    2    0    0  0.74012259821E+03 -0.12866834667E+03 -0.42799189161E+03  0.86808841619E+03  0.77868062963E+02 0.  0.
        254    2    1    2    0    0 -0.74012259821E+03  0.12866834667E+03 -0.79529427611E+03  0.14146613460E+04  0.89690397167E+03 0.  0.
         23    2    4    4    0    0 -0.57739557936E+03  0.49051794897E+03 -0.52614464315E+03  0.92701534186E+03  0.92389096781E+02 0.  0.
         23    2    4    4    0    0 -0.16272701885E+03 -0.36184960231E+03 -0.26914963296E+03  0.48764600413E+03  0.89117243345E+02 0.  0.
          4    1    3    3  502    0  0.23440759356E+03 -0.55796113313E+02 -0.17599543748E+03  0.29838652817E+03  0.00000000000E+00 0. -1.
         -3    1    3    3    0  502  0.50571500465E+03 -0.72872233353E+02 -0.25199645413E+03  0.56970188802E+03  0.00000000000E+00 0.  1.
         13    1    5    5    0    0 -0.43090615570E+03  0.32761003894E+03 -0.33745077695E+03  0.63787262012E+03  0.00000000000E+00 0. -1.
        -13    1    5    5    0    0 -0.14648942366E+03  0.16290791003E+03 -0.18869386619E+03  0.28914272174E+03  0.00000000000E+00 0.  1.
          1    1    6    6  503    0 -0.92199851647E+02 -0.26016536164E+03 -0.14272530477E+03  0.31073677069E+03  0.00000000000E+00 0. -1.
         -1    1    6    6    0  503 -0.70527167201E+02 -0.10168424067E+03 -0.12642432820E+03  0.17690923343E+03  0.00000000000E+00 0.  1.
<mgrwt>
<rscale>  0 0.19273083E+04</rscale>
<asrwt>0</asrwt>
<pdfrwt beam="1">  1        2 0.26969507E+00 0.19273083E+04</pdfrwt>
<pdfrwt beam="2">  1       -1 0.81497200E-01 0.19273083E+04</pdfrwt>
<totfact> 0.14621112E+01</totfact>
</mgrwt>
</event>
<event>
12    7  0.1637954E-007  0.1273373E+04  0.7818608E-02  0.9050951E-01
         -1   -1    0    0    0  501 -0.00000000000E+00  0.00000000000E+00  0.30563591352E+03  0.30563591352E+03  0.00000000000E+00 0.  1.
          2   -1    0    0  501    0  0.00000000000E+00 -0.00000000000E+00 -0.13263166233E+04  0.13263166233E+04  0.00000000000E+00 0. -1.
         24    2    1    2    0    0  0.13619588357E+03  0.74731547172E+01 -0.60877972202E+03  0.62924312388E+03  0.82030434971E+02 0.  0.
        254    2    1    2    0    0 -0.13619588357E+03 -0.74731547172E+01 -0.41190098777E+03  0.10027094129E+04  0.90396823857E+03 0.  0.
         23    2    4    4    0    0 -0.38635472017E+03  0.18186880769E+03  0.47179733713E+02  0.43947825094E+03  0.92568746174E+02 0.  0.
         23    2    4    4    0    0  0.25015883661E+03 -0.18934196241E+03 -0.45908072148E+03  0.56323116200E+03  0.89690639174E+02 0.  0.
          4    1    3    3  502    0  0.12216472503E+03  0.26181176839E+02 -0.57325725973E+03  0.58671420632E+03  0.00000000000E+00 0. -1.
         -3    1    3    3    0  502  0.14031158539E+02 -0.18708022122E+02 -0.35522462293E+02  0.42528917563E+02  0.00000000000E+00 0.  1.
         13    1    5    5    0    0 -0.26975573845E+03  0.89043422478E+02  0.58425871591E+02  0.29001805458E+03  0.00000000000E+00 0. -1.
        -13    1    5    5    0    0 -0.11659898173E+03  0.92825385215E+02 -0.11246137878E+02  0.14946019636E+03  0.00000000000E+00 0.  1.
          4    1    6    6  503    0  0.14338621072E+03 -0.61832712830E+02 -0.26555439679E+03  0.30806172669E+03  0.00000000000E+00 0. -1.
         -4    1    6    6    0  503  0.10677262589E+03 -0.12750924958E+03 -0.19352632469E+03  0.25516943531E+03  0.00000000000E+00 0.  1.
<mgrwt>
<rscale>  0 0.12733735E+04</rscale>
<asrwt>0</asrwt>
<pdfrwt beam="1">  1        2 0.20404871E+00 0.12733735E+04</pdfrwt>
<pdfrwt beam="2">  1       -1 0.47020909E-01 0.12733735E+04</pdfrwt>
<totfact> 0.80518669E+01</totfact>
</mgrwt>
</event>
<event>
12    7  0.1637954E-007  0.2804656E+04  0.7818608E-02  0.8301824E-01
          2   -1    0    0  501    0  0.00000000000E+00  0.00000000000E+00  0.14895414480E+04  0.14895414480E+04  0.00000000000E+00 0. -1.
         -1   -1    0    0    0  501 -0.00000000000E+00 -0.00000000000E+00 -0.13202209080E+04  0.13202209080E+04  0.00000000000E+00 0.  1.
         24    2    1    2    0    0  0.11147012896E+04 -0.46090121249E+03 -0.27754551330E+03  0.12404682669E+04  0.82104303775E+02 0.  0.
        254    2    1    2    0    0 -0.11147012896E+04  0.46090121249E+03  0.44686605330E+03  0.15692940891E+04  0.89889141504E+03 0.  0.
         23    2    4    4    0    0 -0.78474491468E+03  0.26086547231E+02 -0.93180199327E+02  0.79590838506E+03  0.91008344701E+02 0.  0.
         23    2    4    4    0    0 -0.32995637488E+03  0.43481466526E+03  0.54004625263E+03  0.77338570409E+03  0.92414770815E+02 0.  0.
          2    1    3    3  502    0  0.61473068454E+03 -0.22908479126E+03 -0.11623302728E+03  0.66624603018E+03  0.00000000000E+00 0. -1.
         -1    1    3    3    0  502  0.49997060501E+03 -0.23181642124E+03 -0.16131248602E+03  0.57422223675E+03  0.00000000000E+00 0.  1.
         13    1    5    5    0    0 -0.45321835716E+03 -0.29860928200E+02 -0.56335370639E+02  0.45768136109E+03  0.00000000000E+00 0.  1.
        -13    1    5    5    0    0 -0.33152655751E+03  0.55947475431E+02 -0.36844828688E+02  0.33822702397E+03  0.00000000000E+00 0. -1.
          3    1    6    6  503    0 -0.23167901611E+01  0.40709075646E+02  0.46909735427E+02  0.62153999344E+02  0.00000000000E+00 0. -1.
         -3    1    6    6    0  503 -0.32763958472E+03  0.39410558962E+03  0.49313651720E+03  0.71123170475E+03  0.00000000000E+00 0.  1.
<mgrwt>
<rscale>  0 0.28046560E+04</rscale>
<asrwt>0</asrwt>
<pdfrwt beam="1">  1        2 0.22916022E+00 0.28046560E+04</pdfrwt>
<pdfrwt beam="2">  1       -1 0.20311091E+00 0.28046560E+04</pdfrwt>
<totfact> 0.18261082E+00</totfact>
</mgrwt>
</event>
<event>
12    7  0.1637954E-007  0.2178309E+04  0.7818608E-02  0.8527511E-01
         -1   -1    0    0    0  501 -0.00000000000E+00  0.00000000000E+00  0.41079509384E+03  0.41079509384E+03  0.00000000000E+00 0.  1.
          2   -1    0    0  501    0  0.00000000000E+00 -0.00000000000E+00 -0.28877100331E+04  0.28877100331E+04  0.00000000000E+00 0. -1.
         24    2    1    2    0    0  0.56706545380E+02  0.87873915389E+03 -0.13117439661E+04  0.15818677664E+04  0.78963692977E+02 0.  0.
        254    2    1    2    0    0 -0.56706545380E+02 -0.87873915389E+03 -0.11651709732E+04  0.17166373606E+04  0.90212099974E+03 0.  0.
         23    2    4    4    0    0 -0.15225854811E+03 -0.87621871720E+03 -0.12656029543E+04  0.15499737681E+04  0.98620170138E+02 0.  0.
         23    2    4    4    0    0  0.95552002726E+02 -0.25204366968E+01  0.10043198114E+03  0.16666359250E+03  0.92485849751E+02 0.  0.
          2    1    3    3  502    0  0.52589244091E+01  0.14081052930E+03 -0.26490383877E+03  0.30004883810E+03  0.00000000000E+00 0. -1.
         -1    1    3    3    0  502  0.51447620971E+02  0.73792862459E+03 -0.10468401274E+04  0.12818189283E+04  0.00000000000E+00 0.  1.
         13    1    5    5    0    0 -0.71393363474E+02 -0.30835109109E+03 -0.37599335008E+03  0.49147574409E+03  0.00000000000E+00 0. -1.
        -13    1    5    5    0    0 -0.80865184632E+02 -0.56786762611E+03 -0.88960960422E+03  0.10584980240E+04  0.00000000000E+00 0.  1.
          1    1    6    6  503    0 -0.24972494116E+01  0.20368686522E+02 -0.47445402274E+01  0.21062533257E+02  0.00000000000E+00 0. -1.
         -1    1    6    6    0  503  0.98049252138E+02 -0.22889123219E+02  0.10517652137E+03  0.14560105925E+03  0.00000000000E+00 0.  1.
<mgrwt>
<rscale>  0 0.21783086E+04</rscale>
<asrwt>0</asrwt>
<pdfrwt beam="1">  1        2 0.44426307E+00 0.21783086E+04</pdfrwt>
<pdfrwt beam="2">  1       -1 0.63199248E-01 0.21783086E+04</pdfrwt>
<totfact> 0.54144283E+00</totfact>
</mgrwt>
</event>
<event>
12    7  0.1637954E-007  0.1091268E+04  0.7818608E-02  0.9213745E-01
         -1   -1    0    0    0  501 -0.00000000000E+00  0.00000000000E+00  0.23697553543E+03  0.23697553543E+03  0.00000000000E+00 0.  1.
          2   -1    0    0  501    0  0.00000000000E+00 -0.00000000000E+00 -0.12563176482E+04  0.12563176482E+04  0.00000000000E+00 0. -1.
         24    2    1    2    0    0  0.11712329947E+02 -0.10169428689E+03 -0.35482068056E+03  0.37763050745E+03  0.78918807333E+02 0.  0.
        254    2    1    2    0    0 -0.11712329947E+02  0.10169428689E+03 -0.66452143218E+03  0.11156626761E+04  0.89030082919E+03 0.  0.
         23    2    4    4    0    0 -0.30208090625E+03  0.21525955646E+03 -0.69135923540E+03  0.78983295311E+03  0.90933771913E+02 0.  0.
         23    2    4    4    0    0  0.29036857630E+03 -0.11356526958E+03  0.26837803219E+02  0.32582972304E+03  0.90740069294E+02 0.  0.
          4    1    3    3  502    0  0.94177138441E+01 -0.10049467918E+03 -0.35888654709E+03  0.37281017631E+03  0.00000000000E+00 0. -1.
         -3    1    3    3    0  502  0.22946161028E+01 -0.11996077063E+01  0.40658665314E+01  0.48203311463E+01  0.00000000000E+00 0.  1.
         13    1    5    5    0    0 -0.28594855653E+03  0.16817633827E+03 -0.61290700150E+03  0.69692528310E+03  0.00000000000E+00 0.  1.
        -13    1    5    5    0    0 -0.16132349719E+02  0.47083218189E+02 -0.78452233905E+02  0.92907670013E+02  0.00000000000E+00 0. -1.
          4    1    6    6  503    0  0.22786810177E+03 -0.59811874945E+02 -0.94125326662E+01  0.23577516401E+03  0.00000000000E+00 0.  1.
         -4    1    6    6    0  503  0.62500474526E+02 -0.53753394631E+02  0.36250335886E+02  0.90054559031E+02  0.00000000000E+00 0. -1.
<mgrwt>
<rscale>  0 0.10912682E+04</rscale>
<asrwt>0</asrwt>
<pdfrwt beam="1">  1        2 0.19327963E+00 0.10912682E+04</pdfrwt>
<pdfrwt beam="2">  1       -1 0.36457776E-01 0.10912682E+04</pdfrwt>
<totfact> 0.14301631E+02</totfact>
</mgrwt>
</event>
<event>
12    7  0.1637954E-007  0.1314119E+04  0.7818608E-02  0.9018443E-01
         -1   -1    0    0    0  501 -0.00000000000E+00  0.00000000000E+00  0.30739305311E+03  0.30739305311E+03  0.00000000000E+00 0.  1.
          2   -1    0    0  501    0  0.00000000000E+00 -0.00000000000E+00 -0.14044786729E+04  0.14044786729E+04  0.00000000000E+00 0. -1.
         24    2    1    2    0    0  0.33507903787E+03 -0.48272686977E+02 -0.51330376919E+03  0.62020265204E+03  0.81008371226E+02 0.  0.
        254    2    1    2    0    0 -0.33507903787E+03  0.48272686977E+02 -0.58378185058E+03  0.10916690740E+04  0.85809784059E+03 0.  0.
         23    2    4    4    0    0 -0.28043017854E+03 -0.20673352794E+01  0.16263487257E+03  0.33615124771E+03  0.88894322926E+02 0.  0.
         23    2    4    4    0    0 -0.54648859322E+02  0.50340022256E+02 -0.74641672315E+03  0.75551782625E+03  0.90269848307E+02 0.  0.
          4    1    3    3  502    0  0.31860603771E+03 -0.58136834881E+02 -0.45263584232E+03  0.55656886778E+03  0.00000000000E+00 0. -1.
         -3    1    3    3    0  502  0.16473000158E+02  0.98641479037E+01 -0.60667926873E+02  0.63633784259E+02  0.00000000000E+00 0.  1.
         13    1    5    5    0    0 -0.23449626869E+03 -0.26967570719E+02  0.10495187107E+03  0.25832275382E+03  0.00000000000E+00 0.  1.
        -13    1    5    5    0    0 -0.45933909856E+02  0.24900235440E+02  0.57683001499E+02  0.77828493892E+02  0.00000000000E+00 0. -1.
          4    1    6    6  503    0 -0.59064926924E+02  0.44693133916E+02 -0.74439318880E+03  0.74806908862E+03  0.00000000000E+00 0. -1.
         -4    1    6    6    0  503  0.44160676023E+01  0.56468883400E+01 -0.20235343471E+01  0.74487376277E+01  0.00000000000E+00 0.  1.
<mgrwt>
<rscale>  0 0.13141187E+04</rscale>
<asrwt>0</asrwt>
<pdfrwt beam="1">  1        2 0.21607364E+00 0.13141187E+04</pdfrwt>
<pdfrwt beam="2">  1       -1 0.47291240E-01 0.13141187E+04</pdfrwt>
<totfact> 0.71598584E+01</totfact>
</mgrwt>
</event>
<event>
12    7  0.1637954E-007  0.2190727E+04  0.7818608E-02  0.8522298E-01
         -1   -1    0    0    0  501 -0.00000000000E+00  0.00000000000E+00  0.97408838997E+03  0.97408838997E+03  0.00000000000E+00 0.  1.
          2   -1    0    0  501    0  0.00000000000E+00 -0.00000000000E+00 -0.12317371610E+04  0.12317371610E+04  0.00000000000E+00 0. -1.
         24    2    1    2    0    0 -0.78404119737E+03  0.45898085245E+03 -0.64061334822E+02  0.91423987978E+03  0.79666059808E+02 0.  0.
        254    2    1    2    0    0  0.78404119737E+03 -0.45898085245E+03 -0.19358743619E+03  0.12915856712E+04  0.89740371541E+03 0.  0.
         23    2    4    4    0    0  0.87134802397E+03 -0.25909344337E+03 -0.38083093364E+03  0.98972567037E+03  0.90265781462E+02 0.  0.
         23    2    4    4    0    0 -0.87306826606E+02 -0.19988740909E+03  0.18724349746E+03  0.30186000079E+03  0.92097092540E+02 0.  0.
          4    1    3    3  502    0 -0.64007982354E+03  0.40848795606E+03 -0.47926534395E+02  0.76082951011E+03  0.00000000000E+00 0. -1.
         -1    1    3    3    0  502 -0.14396137383E+03  0.50492896388E+02 -0.16134800427E+02  0.15341036968E+03  0.00000000000E+00 0.  1.
         13    1    5    5    0    0  0.69575540891E+03 -0.19836658115E+03 -0.26344620701E+03  0.76995376065E+03  0.00000000000E+00 0.  1.
        -13    1    5    5    0    0  0.17559261506E+03 -0.60726862217E+02 -0.11738472663E+03  0.21977190973E+03  0.00000000000E+00 0. -1.
          1    1    6    6  503    0  0.11123739279E+02 -0.42390768597E+02  0.68827693843E+02  0.81596361914E+02  0.00000000000E+00 0. -1.
         -1    1    6    6    0  503 -0.98430565885E+02 -0.15749664049E+03  0.11841580362E+03  0.22026363888E+03  0.00000000000E+00 0.  1.
<mgrwt>
<rscale>  0 0.21907267E+04</rscale>
<asrwt>0</asrwt>
<pdfrwt beam="1">  1        2 0.18949803E+00 0.21907267E+04</pdfrwt>
<pdfrwt beam="2">  1       -1 0.14985975E+00 0.21907267E+04</pdfrwt>
<totfact> 0.66142135E+00</totfact>
</mgrwt>
</event>
<event>
12    7  0.1637954E-007  0.2661734E+04  0.7818608E-02  0.8347529E-01
         -1   -1    0    0    0  501 -0.00000000000E+00  0.00000000000E+00  0.23133628404E+04  0.23133628404E+04  0.00000000000E+00 0.  1.
          2   -1    0    0  501    0  0.00000000000E+00 -0.00000000000E+00 -0.76564147794E+03  0.76564147794E+03  0.00000000000E+00 0. -1.
         24    2    1    2    0    0 -0.99873886734E+03 -0.62199241864E+03  0.76432937494E+03  0.14053274625E+04  0.79949918890E+02 0.  0.
        254    2    1    2    0    0  0.99873886734E+03  0.62199241864E+03  0.78339198755E+03  0.16736768559E+04  0.89617928880E+03 0.  0.
         23    2    4    4    0    0  0.34400461319E+03  0.14163238637E+03  0.76689121118E+03  0.85740759655E+03  0.92880299656E+02 0.  0.
         23    2    4    4    0    0  0.65473425415E+03  0.48036003227E+03  0.16500776363E+02  0.81626925930E+03  0.81243608346E+02 0.  0.
          2    1    3    3  502    0 -0.15048679117E+03 -0.93970637712E+02  0.82313030556E+02  0.19558167110E+03  0.00000000000E+00 0. -1.
         -3    1    3    3    0  502 -0.84825207617E+03 -0.52802178093E+03  0.68201634438E+03  0.12097457914E+04  0.00000000000E+00 0.  1.
         13    1    5    5    0    0  0.41780406170E+02  0.54935668181E+02  0.14011258730E+03  0.15618920289E+03  0.00000000000E+00 0. -1.
        -13    1    5    5    0    0  0.30222420702E+03  0.86696718186E+02  0.62677862388E+03  0.70121839366E+03  0.00000000000E+00 0.  1.
          3    1    6    6  503    0  0.30585332954E+03  0.19226976933E+03  0.38297276481E+02  0.36329134971E+03  0.00000000000E+00 0. -1.
         -3    1    6    6    0  503  0.34888092461E+03  0.28809026294E+03 -0.21796500118E+02  0.45297790959E+03  0.00000000000E+00 0.  1.
<mgrwt>
<rscale>  0 0.26617337E+04</rscale>
<asrwt>0</asrwt>
<pdfrwt beam="1">  1        2 0.11779100E+00 0.26617337E+04</pdfrwt>
<pdfrwt beam="2">  1       -1 0.35590197E+00 0.26617337E+04</pdfrwt>
<totfact> 0.52010943E-01</totfact>
</mgrwt>
</event>
<event>
12    7  0.1637954E-007  0.1630536E+04  0.7818608E-02  0.8802005E-01
          2   -1    0    0  501    0  0.00000000000E+00  0.00000000000E+00  0.17481192720E+04  0.17481192720E+04  0.00000000000E+00 0. -1.
         -1   -1    0    0    0  501 -0.00000000000E+00 -0.00000000000E+00 -0.38021549418E+03  0.38021549418E+03  0.00000000000E+00 0.  1.
         24    2    1    2    0    0  0.39081154728E+03  0.41737098878E+03  0.52491598093E+03  0.78037934860E+03  0.80764676220E+02 0.  0.
        254    2    1    2    0    0 -0.39081154728E+03 -0.41737098878E+03  0.84298779685E+03  0.13479554175E+04  0.88284946296E+03 0.  0.
         23    2    4    4    0    0 -0.18233930244E+03 -0.40319740142E+03 -0.23315978141E+02  0.45209750845E+03  0.89625646901E+02 0.  0.
         23    2    4    4    0    0 -0.20847224484E+03 -0.14173587360E+02  0.86630377499E+03  0.89585790909E+03  0.91747453695E+02 0.  0.
          4    1    3    3  502    0  0.13393048544E+03  0.14676562226E+03  0.23586515668E+03  0.30839892177E+03  0.00000000000E+00 0. -1.
         -3    1    3    3    0  502  0.25688106183E+03  0.27060536652E+03  0.28905082425E+03  0.47198042683E+03  0.00000000000E+00 0.  1.
         13    1    5    5    0    0 -0.17085712419E+03 -0.40509509527E+03 -0.20533651155E+02  0.44013159842E+03  0.00000000000E+00 0. -1.
        -13    1    5    5    0    0 -0.11482178249E+02  0.18976938518E+01 -0.27823269859E+01  0.11965910026E+02  0.00000000000E+00 0.  1.
          2    1    6    6  503    0 -0.99406073204E+02 -0.37645920945E+02  0.55693524577E+03  0.56698822804E+03  0.00000000000E+00 0. -1.
         -2    1    6    6    0  503 -0.10906617164E+03  0.23472333584E+02  0.30936852922E+03  0.32886968105E+03  0.00000000000E+00 0.  1.
<mgrwt>
<rscale>  0 0.16305361E+04</rscale>
<asrwt>0</asrwt>
<pdfrwt beam="1">  1        2 0.26894142E+00 0.16305361E+04</pdfrwt>
<pdfrwt beam="2">  1       -1 0.58494692E-01 0.16305361E+04</pdfrwt>
<totfact> 0.29760455E+01</totfact>
</mgrwt>
</event>
<event>
12    7  0.1637954E-007  0.2148135E+04  0.7818608E-02  0.8540331E-01
         -1   -1    0    0    0  501 -0.00000000000E+00  0.00000000000E+00  0.52064201593E+03  0.52064201593E+03  0.00000000000E+00 0.  1.
          2   -1    0    0  501    0  0.00000000000E+00 -0.00000000000E+00 -0.22157663910E+04  0.22157663910E+04  0.00000000000E+00 0. -1.
         24    2    1    2    0    0  0.81022764423E+03  0.13852210781E+03 -0.29737043578E+03  0.87738954235E+03  0.75670490438E+02 0.  0.
        254    2    1    2    0    0 -0.81022764423E+03 -0.13852210781E+03 -0.13977539393E+04  0.18590188646E+04  0.90916327148E+03 0.  0.
         23    2    4    4    0    0 -0.76102881993E+03 -0.13435560376E+03 -0.15142620366E+04  0.17025461769E+04  0.91965623649E+02 0.  0.
         23    2    4    4    0    0 -0.49198824296E+02 -0.41665040485E+01  0.11650809734E+03  0.15647268766E+03  0.92041736018E+02 0.  0.
          2    1    3    3  502    0  0.22225896530E+03  0.37395091698E+02 -0.11801496675E+03  0.25441103144E+03  0.00000000000E+00 0. -1.
         -1    1    3    3    0  502  0.58796867893E+03  0.10112701611E+03 -0.17935546903E+03  0.62297851091E+03  0.00000000000E+00 0.  1.
         13    1    5    5    0    0 -0.22823264832E+03 -0.28292261582E+02 -0.54269791891E+03  0.58941634268E+03  0.00000000000E+00 0. -1.
        -13    1    5    5    0    0 -0.53279617161E+03 -0.10606334218E+03 -0.97156411769E+03  0.11131298342E+04  0.00000000000E+00 0.  1.
          4    1    6    6  503    0  0.56059607620E+01 -0.14946600028E+02 -0.95447648871E+01  0.18599198510E+02  0.00000000000E+00 0. -1.
         -4    1    6    6    0  503 -0.54804785058E+02  0.10780095979E+02  0.12605286223E+03  0.13787348915E+03  0.00000000000E+00 0.  1.
<mgrwt>
<rscale>  0 0.21481351E+04</rscale>
<asrwt>0</asrwt>
<pdfrwt beam="1">  1        2 0.34088713E+00 0.21481351E+04</pdfrwt>
<pdfrwt beam="2">  1       -1 0.80098774E-01 0.21481351E+04</pdfrwt>
<totfact> 0.82231154E+00</totfact>
</mgrwt>
</event>
<event>
12    7  0.1637954E-007  0.1307780E+04  0.7818608E-02  0.9023418E-01
         -1   -1    0    0    0  501 -0.00000000000E+00  0.00000000000E+00  0.32826944332E+03  0.32826944332E+03  0.00000000000E+00 0.  1.
          2   -1    0    0  501    0  0.00000000000E+00 -0.00000000000E+00 -0.13025041927E+04  0.13025041927E+04  0.00000000000E+00 0. -1.
         24    2    1    2    0    0  0.13617063527E+03  0.24673800022E+03 -0.20139709492E+03  0.35549299315E+03  0.79952458812E+02 0.  0.
        254    2    1    2    0    0 -0.13617063527E+03 -0.24673800022E+03 -0.77283765449E+03  0.12752806429E+04  0.97449504632E+03 0.  0.
         23    2    4    4    0    0 -0.25879562865E+03  0.13850217443E+03  0.87899841976E+02  0.31965807664E+03  0.91087178073E+02 0.  0.
         23    2    4    4    0    0  0.12262499338E+03 -0.38524017465E+03 -0.86073749646E+03  0.95562256626E+03  0.94332232932E+02 0.  0.
          2    1    3    3  502    0  0.10232913948E+03  0.18776747896E+03 -0.10688416370E+03  0.23906506101E+03  0.00000000000E+00 0. -1.
         -1    1    3    3    0  502  0.33841495788E+02  0.58970521255E+02 -0.94512931221E+02  0.11642793214E+03  0.00000000000E+00 0.  1.
         13    1    5    5    0    0 -0.19578657123E+03  0.57726182502E+02  0.47774700109E+02  0.20963567347E+03  0.00000000000E+00 0.  1.
        -13    1    5    5    0    0 -0.63009057423E+02  0.80775991931E+02  0.40125141866E+02  0.11002240317E+03  0.00000000000E+00 0. -1.
          1    1    6    6  503    0 -0.90611320112E+01 -0.17994883097E+01 -0.13244374802E+02  0.16147932852E+02  0.00000000000E+00 0. -1.
         -1    1    6    6    0  503  0.13168612539E+03 -0.38344068634E+03 -0.84749312166E+03  0.93947463341E+03  0.00000000000E+00 0.  1.
<mgrwt>
<rscale>  0 0.13077803E+04</rscale>
<asrwt>0</asrwt>
<pdfrwt beam="1">  1        2 0.20038527E+00 0.13077803E+04</pdfrwt>
<pdfrwt beam="2">  1       -1 0.50502990E-01 0.13077803E+04</pdfrwt>
<totfact> 0.72433177E+01</totfact>
</mgrwt>
</event>
<event>
12    7  0.1637954E-007  0.2165272E+04  0.7818608E-02  0.8533023E-01
         -1   -1    0    0    0  501 -0.00000000000E+00  0.00000000000E+00  0.56844632090E+03  0.56844632090E+03  0.00000000000E+00 0.  1.
          2   -1    0    0  501    0  0.00000000000E+00 -0.00000000000E+00 -0.20619378803E+04  0.20619378803E+04  0.00000000000E+00 0. -1.
         24    2    1    2    0    0  0.11700686760E+03 -0.82739985564E+03 -0.99468617595E+03  0.13015775408E+04  0.80139740223E+02 0.  0.
        254    2    1    2    0    0 -0.11700686760E+03  0.82739985564E+03 -0.49880538345E+03  0.13288066604E+04  0.90478682680E+03 0.  0.
         23    2    4    4    0    0 -0.20252948527E+02  0.84153721482E+02  0.24050575734E+03  0.27196159490E+03  0.92887345874E+02 0.  0.
         23    2    4    4    0    0 -0.96753919074E+02  0.74324613416E+03 -0.73931114079E+03  0.10568450655E+04  0.92544004398E+02 0.  0.
          4    1    3    3  502    0  0.48920995711E+02 -0.59292618599E+03 -0.72253866706E+03  0.93595771873E+03  0.00000000000E+00 0. -1.
         -3    1    3    3    0  502  0.68085871890E+02 -0.23447366965E+03 -0.27214750889E+03  0.36561982209E+03  0.00000000000E+00 0.  1.
         13    1    5    5    0    0  0.23660679895E+02  0.65449166518E+02  0.19058344559E+03  0.20289275715E+03  0.00000000000E+00 0.  1.
        -13    1    5    5    0    0 -0.43913628421E+02  0.18704554964E+02  0.49922311745E+02  0.69068837746E+02  0.00000000000E+00 0. -1.
          4    1    6    6  503    0 -0.98334534947E+02  0.61095082374E+03 -0.56449176502E+03  0.83760464574E+03  0.00000000000E+00 0.  1.
         -4    1    6    6    0  503  0.15806158726E+01  0.13229531042E+03 -0.17481937578E+03  0.21924041975E+03  0.00000000000E+00 0. -1.
<mgrwt>
<rscale>  0 0.21652723E+04</rscale>
<asrwt>0</asrwt>
<pdfrwt beam="1">  1        2 0.31722122E+00 0.21652723E+04</pdfrwt>
<pdfrwt beam="2">  1       -1 0.87453279E-01 0.21652723E+04</pdfrwt>
<totfact> 0.82835656E+00</totfact>
</mgrwt>
</event>
<event>
12    7  0.1637954E-007  0.3623073E+04  0.7818608E-02  0.8085227E-01
          2   -1    0    0  501    0  0.00000000000E+00  0.00000000000E+00  0.14162067174E+04  0.14162067174E+04  0.00000000000E+00 0. -1.
         -1   -1    0    0    0  501 -0.00000000000E+00 -0.00000000000E+00 -0.23172215999E+04  0.23172215999E+04  0.00000000000E+00 0.  1.
         24    2    1    2    0    0 -0.56245640606E+03  0.43796719005E+03 -0.20123901239E+04  0.21364061630E+04  0.79654342347E+02 0.  0.
        254    2    1    2    0    0  0.56245640606E+03 -0.43796719005E+03  0.11113752414E+04  0.15970221543E+04  0.89841658818E+03 0.  0.
         23    2    4    4    0    0  0.44152425636E+03 -0.46104328744E+03  0.20354342924E+03  0.67653617007E+03  0.93630550397E+02 0.  0.
         23    2    4    4    0    0  0.12093214969E+03  0.23076097391E+02  0.90783181220E+03  0.92048598428E+03  0.89323887702E+02 0.  0.
          4    1    3    3  502    0 -0.27807691993E+03  0.26563467310E+03 -0.10531022019E+04  0.11211212247E+04  0.00000000000E+00 0. -1.
         -3    1    3    3    0  502 -0.28437948613E+03  0.17233251695E+03 -0.95928792205E+03  0.10152849383E+04  0.00000000000E+00 0.  1.
         13    1    5    5    0    0  0.25681826982E+03 -0.30889465589E+03  0.90027935205E+02  0.41167531049E+03  0.00000000000E+00 0. -1.
        -13    1    5    5    0    0  0.18470598655E+03 -0.15214863155E+03  0.11351549404E+03  0.26486085957E+03  0.00000000000E+00 0.  1.
          4    1    6    6  503    0  0.68065464021E+02 -0.92998655169E+00  0.73534580002E+03  0.73848982246E+03  0.00000000000E+00 0. -1.
         -4    1    6    6    0  503  0.52866685671E+02  0.24006083943E+02  0.17248601218E+03  0.18199616182E+03  0.00000000000E+00 0.  1.
<mgrwt>
<rscale>  0 0.36230732E+04</rscale>
<asrwt>0</asrwt>
<pdfrwt beam="1">  1        2 0.21787796E+00 0.36230732E+04</pdfrwt>
<pdfrwt beam="2">  1       -1 0.35649563E+00 0.36230732E+04</pdfrwt>
<totfact> 0.18451442E-01</totfact>
</mgrwt>
</event>
<event>
12    7  0.1637954E-007  0.1906032E+04  0.7818608E-02  0.8651860E-01
          2   -1    0    0  501    0  0.00000000000E+00  0.00000000000E+00  0.11651334324E+04  0.11651334324E+04  0.00000000000E+00 0. -1.
         -1   -1    0    0    0  501 -0.00000000000E+00 -0.00000000000E+00 -0.77951563788E+03  0.77951563788E+03  0.00000000000E+00 0.  1.
         24    2    1    2    0    0  0.22516881323E+02  0.44972409327E+03  0.74662296450E+03  0.87606698418E+03  0.85374115756E+02 0.  0.
        254    2    1    2    0    0 -0.22516881323E+02 -0.44972409327E+03 -0.36100516997E+03  0.10685820861E+04  0.89932428633E+03 0.  0.
         23    2    4    4    0    0  0.29204595148E+03 -0.14657603358E+03 -0.49724476473E+03  0.60207098668E+03  0.91987746785E+02 0.  0.
         23    2    4    4    0    0 -0.31456283281E+03 -0.30314805970E+03  0.13623959476E+03  0.46651109942E+03  0.90679969242E+02 0.  0.
          2    1    3    3  502    0  0.26934200475E+02  0.45079012902E+03  0.74510845910E+03  0.87127711286E+03  0.00000000000E+00 0. -1.
         -1    1    3    3    0  502 -0.44173191525E+01 -0.10660357421E+01  0.15145054052E+01  0.47898713261E+01  0.00000000000E+00 0.  1.
         13    1    5    5    0    0  0.19996246582E+03 -0.13253983493E+03 -0.40661036922E+03  0.47210569572E+03  0.00000000000E+00 0. -1.
        -13    1    5    5    0    0  0.92083485666E+02 -0.14036198649E+02 -0.90634395514E+02  0.12996529096E+03  0.00000000000E+00 0.  1.
          3    1    6    6  503    0 -0.31844079961E+03 -0.28488838654E+03  0.13347911592E+03  0.44764116212E+03  0.00000000000E+00 0. -1.
         -3    1    6    6    0  503  0.38779667996E+01 -0.18259673157E+02  0.27604788464E+01  0.18869937301E+02  0.00000000000E+00 0.  1.
<mgrwt>
<rscale>  0 0.19060322E+04</rscale>
<asrwt>0</asrwt>
<pdfrwt beam="1">  1        2 0.17925130E+00 0.19060322E+04</pdfrwt>
<pdfrwt beam="2">  1       -1 0.11992548E+00 0.19060322E+04</pdfrwt>
<totfact> 0.13157722E+01</totfact>
</mgrwt>
</event>
<event>
12    7  0.1637954E-007  0.1142779E+04  0.7818608E-02  0.9164471E-01
          2   -1    0    0  501    0  0.00000000000E+00  0.00000000000E+00  0.70751468230E+03  0.70751468230E+03  0.00000000000E+00 0. -1.
         -1   -1    0    0    0  501 -0.00000000000E+00 -0.00000000000E+00 -0.46145504571E+03  0.46145504571E+03  0.00000000000E+00 0.  1.
         24    2    1    2    0    0 -0.65558640188E+02  0.14116660573E+03  0.17863401740E+03  0.24967248627E+03  0.78741935147E+02 0.  0.
        254    2    1    2    0    0  0.65558640188E+02 -0.14116660573E+03  0.67425619187E+02  0.91929724174E+03  0.90351273299E+03 0.  0.
         23    2    4    4    0    0  0.30313256278E+03  0.24193610542E+03 -0.13280483198E+03  0.41775134672E+03  0.80353186386E+02 0.  0.
         23    2    4    4    0    0 -0.23757392259E+03 -0.38310271115E+03  0.20023045116E+03  0.50154589503E+03  0.90812968553E+02 0.  0.
          2    1    3    3  502    0 -0.58748199875E+02  0.14991873517E+03  0.17544301816E+03  0.23813280069E+03  0.00000000000E+00 0. -1.
         -1    1    3    3    0  502 -0.68104403134E+01 -0.87521294439E+01  0.31909992409E+01  0.11539685577E+02  0.00000000000E+00 0.  1.
         13    1    5    5    0    0  0.56646233270E+02  0.99624283379E+01 -0.22379058074E+02  0.61716026787E+02  0.00000000000E+00 0. -1.
        -13    1    5    5    0    0  0.24648632951E+03  0.23197367708E+03 -0.11042577390E+03  0.35603531993E+03  0.00000000000E+00 0.  1.
          2    1    6    6  503    0 -0.61364340700E+02 -0.14247061098E+03  0.10922483221E+03  0.18971958590E+03  0.00000000000E+00 0. -1.
         -2    1    6    6    0  503 -0.17620958189E+03 -0.24063210017E+03  0.91005618959E+02  0.31182630913E+03  0.00000000000E+00 0.  1.
<mgrwt>
<rscale>  0 0.11427795E+04</rscale>
<asrwt>0</asrwt>
<pdfrwt beam="1">  1        2 0.10884841E+00 0.11427795E+04</pdfrwt>
<pdfrwt beam="2">  1       -1 0.70993083E-01 0.11427795E+04</pdfrwt>
<totfact> 0.91660825E+01</totfact>
</mgrwt>
</event>
<event>
12    7  0.1637954E-007  0.1805763E+04  0.7818608E-02  0.8703241E-01
          2   -1    0    0  501    0  0.00000000000E+00  0.00000000000E+00  0.11673315321E+04  0.11673315321E+04  0.00000000000E+00 0. -1.
         -1   -1    0    0    0  501 -0.00000000000E+00 -0.00000000000E+00 -0.69834049879E+03  0.69834049879E+03  0.00000000000E+00 0.  1.
         24    2    1    2    0    0 -0.10390589807E+03  0.66047748657E+03  0.11355809436E+03  0.68284246274E+03  0.79695935978E+02 0.  0.
        254    2    1    2    0    0  0.10390589807E+03 -0.66047748657E+03  0.35543293897E+03  0.11828295682E+04  0.90869481527E+03 0.  0.
         23    2    4    4    0    0  0.16486314177E+03 -0.56074860280E+03 -0.18700622721E+03  0.62040403319E+03  0.91164600198E+02 0.  0.
         23    2    4    4    0    0 -0.60957243700E+02 -0.99728883773E+02  0.54243916618E+03  0.56242553497E+03  0.91763814037E+02 0.  0.
          2    1    3    3  502    0 -0.68677827714E+02  0.27815420704E+03  0.79830233605E+02  0.29742103677E+03  0.00000000000E+00 0. -1.
         -1    1    3    3    0  502 -0.35228070354E+02  0.38232327952E+03  0.33727860757E+02  0.38542142597E+03  0.00000000000E+00 0.  1.
         13    1    5    5    0    0  0.15945776324E+03 -0.52126726377E+03 -0.14846923956E+03  0.56496854216E+03  0.00000000000E+00 0. -1.
        -13    1    5    5    0    0  0.54053785242E+01 -0.39481339030E+02 -0.38536987650E+02  0.55435491030E+02  0.00000000000E+00 0.  1.
          3    1    6    6  503    0 -0.84530569376E+02 -0.88464537254E+02  0.45521669492E+03  0.47137419408E+03  0.00000000000E+00 0. -1.
         -3    1    6    6    0  503  0.23573325676E+02 -0.11264346519E+02  0.87222471256E+02  0.91051340890E+02  0.00000000000E+00 0.  1.
<mgrwt>
<rscale>  0 0.18057629E+04</rscale>
<asrwt>0</asrwt>
<pdfrwt beam="1">  1        2 0.17958947E+00 0.18057629E+04</pdfrwt>
<pdfrwt beam="2">  1       -1 0.10743700E+00 0.18057629E+04</pdfrwt>
<totfact> 0.17207582E+01</totfact>
</mgrwt>
</event>
<event>
12    7  0.1637954E-007  0.2124475E+04  0.7818608E-02  0.8550538E-01
          2   -1    0    0  501    0  0.00000000000E+00  0.00000000000E+00  0.21960055700E+04  0.21960055700E+04  0.00000000000E+00 0. -1.
         -1   -1    0    0    0  501 -0.00000000000E+00 -0.00000000000E+00 -0.51381847414E+03  0.51381847414E+03  0.00000000000E+00 0.  1.
         24    2    1    2    0    0 -0.46238231192E+03  0.21002001500E+03  0.15953272675E+04  0.16761895500E+04  0.81464766056E+02 0.  0.
        254    2    1    2    0    0  0.46238231192E+03 -0.21002001500E+03  0.86859828390E+02  0.10336344941E+04  0.89607467804E+03 0.  0.
         23    2    4    4    0    0  0.38380913849E+03 -0.47134881125E+03 -0.18130246826E+03  0.64090618413E+03  0.91711478025E+02 0.  0.
         23    2    4    4    0    0  0.78573173431E+02  0.26132879625E+03  0.26816229665E+03  0.39272831001E+03  0.88645500756E+02 0.  0.
          2    1    3    3  502    0 -0.15573596355E+03  0.11317488961E+03  0.57254424435E+03  0.60404400313E+03  0.00000000000E+00 0. -1.
         -1    1    3    3    0  502 -0.30664634837E+03  0.96845125394E+02  0.10227830232E+04  0.10721455469E+04  0.00000000000E+00 0.  1.
         13    1    5    5    0    0  0.89629021259E+02 -0.56106075030E+02 -0.35503360671E+02  0.11154255567E+03  0.00000000000E+00 0. -1.
        -13    1    5    5    0    0  0.29418011723E+03 -0.41524273622E+03 -0.14579910759E+03  0.52936362846E+03  0.00000000000E+00 0.  1.
          3    1    6    6  503    0  0.37179631472E+02  0.73305062026E+02  0.13701353474E+03  0.15977692517E+03  0.00000000000E+00 0. -1.
         -3    1    6    6    0  503  0.41393541959E+02  0.18802373422E+03  0.13114876192E+03  0.23295138484E+03  0.00000000000E+00 0.  1.
<mgrwt>
<rscale>  0 0.21244747E+04</rscale>
<asrwt>0</asrwt>
<pdfrwt beam="1">  1        2 0.33784701E+00 0.21244747E+04</pdfrwt>
<pdfrwt beam="2">  1       -1 0.79048997E-01 0.21244747E+04</pdfrwt>
<totfact> 0.86942565E+00</totfact>
</mgrwt>
</event>
<event>
12    7  0.1637954E-007  0.2367174E+04  0.7818608E-02  0.8451896E-01
          2   -1    0    0  501    0  0.00000000000E+00  0.00000000000E+00  0.15389471795E+04  0.15389471795E+04  0.00000000000E+00 0. -1.
         -1   -1    0    0    0  501 -0.00000000000E+00 -0.00000000000E+00 -0.91028346166E+03  0.91028346166E+03  0.00000000000E+00 0.  1.
         24    2    1    2    0    0  0.25155670488E+03 -0.35801404840E+03 -0.67749203173E+03  0.81033037112E+03  0.78644915138E+02 0.  0.
        254    2    1    2    0    0 -0.25155670488E+03  0.35801404840E+03  0.13061557496E+04  0.16389002701E+04  0.88797320817E+03 0.  0.
         23    2    4    4    0    0  0.31119546459E+03  0.65836692938E+02  0.30260966147E+03  0.44847771335E+03  0.91556347868E+02 0.  0.
         23    2    4    4    0    0 -0.56275216947E+03  0.29217735547E+03  0.10035460881E+04  0.11904225567E+04  0.89126322127E+02 0.  0.
          4    1    3    3  502    0  0.75590903884E+02 -0.14411866373E+03 -0.19495780380E+03  0.25395416762E+03  0.00000000000E+00 0. -1.
         -3    1    3    3    0  502  0.17596580100E+03 -0.21389538467E+03 -0.48253422792E+03  0.55637620350E+03  0.00000000000E+00 0.  1.
         13    1    5    5    0    0  0.26953008272E+01  0.18689205052E+02  0.18767956782E+02  0.26623058310E+02  0.00000000000E+00 0. -1.
        -13    1    5    5    0    0  0.30850016376E+03  0.47147487886E+02  0.28384170469E+03  0.42185465504E+03  0.00000000000E+00 0.  1.
          2    1    6    6  503    0 -0.44518717831E+03  0.26515996794E+03  0.78051244119E+03  0.93685703455E+03  0.00000000000E+00 0. -1.
         -2    1    6    6    0  503 -0.11756499115E+03  0.27017387525E+02  0.22303364695E+03  0.25356552219E+03  0.00000000000E+00 0.  1.
<mgrwt>
<rscale>  0 0.23671740E+04</rscale>
<asrwt>0</asrwt>
<pdfrwt beam="1">  1        2 0.23676110E+00 0.23671740E+04</pdfrwt>
<pdfrwt beam="2">  1       -1 0.14004361E+00 0.23671740E+04</pdfrwt>
<totfact> 0.51907259E+00</totfact>
</mgrwt>
</event>
<event>
12    7  0.1637954E-007  0.1514240E+04  0.7818608E-02  0.8875038E-01
          2   -1    0    0  501    0  0.00000000000E+00  0.00000000000E+00  0.81115631329E+03  0.81115631329E+03  0.00000000000E+00 0. -1.
         -1   -1    0    0    0  501 -0.00000000000E+00 -0.00000000000E+00 -0.70668316610E+03  0.70668316610E+03  0.00000000000E+00 0.  1.
         24    2    1    2    0    0  0.36879519100E+03  0.19117966482E+03  0.28423995304E+03  0.50960285535E+03  0.79643971086E+02 0.  0.
        254    2    1    2    0    0 -0.36879519100E+03 -0.19117966482E+03 -0.17976680585E+03  0.10082366240E+04  0.90092476290E+03 0.  0.
         23    2    4    4    0    0 -0.87393560696E+02 -0.19475942920E+03 -0.51272881829E+03  0.56297712966E+03  0.92106121948E+02 0.  0.
         23    2    4    4    0    0 -0.28140163031E+03  0.35797643759E+01  0.33296201244E+03  0.44525949438E+03  0.90513111506E+02 0.  0.
          2    1    3    3  502    0  0.11711335322E+03  0.10271399943E+03  0.11578092803E+03  0.19408999583E+03  0.00000000000E+00 0. -1.
         -1    1    3    3    0  502  0.25168183778E+03  0.88465665386E+02  0.16845902501E+03  0.31551285953E+03  0.00000000000E+00 0.  1.
         13    1    5    5    0    0 -0.64806221277E+02 -0.75539684061E+02 -0.14601884754E+03  0.17671331025E+03  0.00000000000E+00 0.  1.
        -13    1    5    5    0    0 -0.22587339419E+02 -0.11921974514E+03 -0.36670997075E+03  0.38626381940E+03  0.00000000000E+00 0. -1.
          2    1    6    6  503    0 -0.28636617436E+03  0.74489265749E+01  0.31286519362E+03  0.42420007273E+03  0.00000000000E+00 0. -1.
         -2    1    6    6    0  503  0.49645440473E+01 -0.38691621989E+01  0.20096818819E+02  0.21059421653E+02  0.00000000000E+00 0.  1.
<mgrwt>
<rscale>  0 0.15142398E+04</rscale>
<asrwt>0</asrwt>
<pdfrwt beam="1">  1        2 0.12479328E+00 0.15142398E+04</pdfrwt>
<pdfrwt beam="2">  1       -1 0.10872049E+00 0.15142398E+04</pdfrwt>
<totfact> 0.29242635E+01</totfact>
</mgrwt>
</event>
<event>
12    7  0.1637954E-007  0.1607767E+04  0.7818608E-02  0.8815790E-01
          2   -1    0    0  501    0  0.00000000000E+00  0.00000000000E+00  0.23341821556E+04  0.23341821556E+04  0.00000000000E+00 0. -1.
         -1   -1    0    0    0  501 -0.00000000000E+00 -0.00000000000E+00 -0.27685454200E+03  0.27685454200E+03  0.00000000000E+00 0.  1.
         24    2    1    2    0    0  0.26612799841E+03  0.40288302495E+03  0.27622042886E+03  0.56195491150E+03  0.79729253784E+02 0.  0.
        254    2    1    2    0    0 -0.26612799841E+03 -0.40288302495E+03  0.17811071847E+04  0.20490817861E+04  0.89064837016E+03 0.  0.
         23    2    4    4    0    0 -0.31063248522E+03 -0.36532596495E+03  0.18561005516E+04  0.19191845297E+04  0.90578141987E+02 0.  0.
         23    2    4    4    0    0  0.44504486813E+02 -0.37557059996E+02 -0.74993366887E+02  0.12989725639E+03  0.88645981515E+02 0.  0.
          2    1    3    3  502    0  0.12168711230E+03  0.16981337561E+03  0.75480699201E+02  0.22212985344E+03  0.00000000000E+00 0. -1.
         -1    1    3    3    0  502  0.14444088611E+03  0.23306964934E+03  0.20073972966E+03  0.33982505806E+03  0.00000000000E+00 0.  1.
         13    1    5    5    0    0 -0.11954749082E+03 -0.83533850181E+02  0.63271451681E+03  0.64930514126E+03  0.00000000000E+00 0. -1.
        -13    1    5    5    0    0 -0.19108499440E+03 -0.28179211477E+03  0.12233860348E+04  0.12698793884E+04  0.00000000000E+00 0.  1.
          4    1    6    6  503    0 -0.21597130249E+02 -0.33294117447E+02 -0.31331518470E+02  0.50562815796E+02  0.00000000000E+00 0. -1.
         -4    1    6    6    0  503  0.66101617061E+02 -0.42629425486E+01 -0.43661848418E+02  0.79334440595E+02  0.00000000000E+00 0.  1.
<mgrwt>
<rscale>  0 0.16077673E+04</rscale>
<asrwt>0</asrwt>
<pdfrwt beam="1">  1        2 0.35910493E+00 0.16077673E+04</pdfrwt>
<pdfrwt beam="2">  1       -1 0.42593008E-01 0.16077673E+04</pdfrwt>
<totfact> 0.25701795E+01</totfact>
</mgrwt>
</event>
<event>
12    7  0.1637954E-007  0.1401195E+04  0.7818608E-02  0.8952954E-01
          2   -1    0    0  501    0  0.00000000000E+00  0.00000000000E+00  0.66578286315E+03  0.66578286315E+03  0.00000000000E+00 0. -1.
         -1   -1    0    0    0  501 -0.00000000000E+00 -0.00000000000E+00 -0.73723258363E+03  0.73723258363E+03  0.00000000000E+00 0.  1.
         24    2    1    2    0    0 -0.14871045530E+02 -0.38947973039E+03 -0.80818633100E+01  0.39793196976E+03  0.79805561597E+02 0.  0.
        254    2    1    2    0    0  0.14871045530E+02  0.38947973039E+03 -0.63367857163E+02  0.10050834770E+04  0.92426278843E+03 0.  0.
         23    2    4    4    0    0  0.24756814593E+03 -0.14931448059E+03  0.19159893391E+03  0.35867748369E+03  0.91403418071E+02 0.  0.
         23    2    4    4    0    0 -0.23269710040E+03  0.53879421099E+03 -0.25496679108E+03  0.64640599333E+03  0.91572383027E+02 0.  0.
          4    1    3    3  502    0  0.21095168563E+02 -0.24007050429E+03  0.19562171822E+02  0.24178819602E+03  0.00000000000E+00 0. -1.
         -3    1    3    3    0  502 -0.35966214094E+02 -0.14940922610E+03 -0.27644035132E+02  0.15614377374E+03  0.00000000000E+00 0.  1.
         13    1    5    5    0    0  0.22296331136E+03 -0.13762181831E+03  0.20059795147E+03  0.32998778950E+03  0.00000000000E+00 0. -1.
        -13    1    5    5    0    0  0.24604834576E+02 -0.11692662283E+02 -0.89990175557E+01  0.28689694191E+02  0.00000000000E+00 0.  1.
          3    1    6    6  503    0 -0.20125119066E+03  0.51836840657E+03 -0.23266435076E+03  0.60277736088E+03  0.00000000000E+00 0. -1.
         -3    1    6    6    0  503 -0.31445909740E+02  0.20425804414E+02 -0.22302440319E+02  0.43628632450E+02  0.00000000000E+00 0.  1.
<mgrwt>
<rscale>  0 0.14011949E+04</rscale>
<asrwt>0</asrwt>
<pdfrwt beam="1">  1        2 0.10242813E+00 0.14011949E+04</pdfrwt>
<pdfrwt beam="2">  1       -1 0.11342040E+00 0.14011949E+04</pdfrwt>
<totfact> 0.34440596E+01</totfact>
</mgrwt>
</event>
<event>
12    7  0.1637954E-007  0.1313039E+04  0.7818608E-02  0.9019289E-01
          2   -1    0    0  501    0  0.00000000000E+00  0.00000000000E+00  0.84377595694E+03  0.84377595694E+03  0.00000000000E+00 0. -1.
         -1   -1    0    0    0  501 -0.00000000000E+00 -0.00000000000E+00 -0.51081995908E+03  0.51081995908E+03  0.00000000000E+00 0.  1.
         24    2    1    2    0    0  0.14216899325E+03  0.20339904687E+03 -0.15741445966E+03  0.30432895415E+03  0.79079740220E+02 0.  0.
        254    2    1    2    0    0 -0.14216899325E+03 -0.20339904687E+03  0.49037045752E+03  0.10502669619E+04  0.89499402829E+03 0.  0.
         23    2    4    4    0    0 -0.32569911850E+03 -0.55698279500E+02  0.66156948677E+03  0.74494550377E+03  0.89929992943E+02 0.  0.
         23    2    4    4    0    0  0.18353012525E+03 -0.14770076737E+03 -0.17119902924E+03  0.30532145810E+03  0.91723833374E+02 0.  0.
          2    1    3    3  502    0  0.67172342177E+02  0.11798438669E+03 -0.41463411641E+02  0.14195651996E+03  0.00000000000E+00 0. -1.
         -1    1    3    3    0  502  0.74996651073E+02  0.85414660187E+02 -0.11595104802E+03  0.16237243419E+03  0.00000000000E+00 0.  1.
         13    1    5    5    0    0 -0.96613268969E+02 -0.10524759908E+02  0.11484522825E+03  0.15044706964E+03  0.00000000000E+00 0.  1.
        -13    1    5    5    0    0 -0.22908584953E+03 -0.45173519593E+02  0.54672425851E+03  0.59449843412E+03  0.00000000000E+00 0. -1.
          2    1    6    6  503    0  0.13858332066E+03 -0.76698078500E+02 -0.15112954438E+03  0.21892480717E+03  0.00000000000E+00 0. -1.
         -2    1    6    6    0  503  0.44946804589E+02 -0.71002688872E+02 -0.20069484865E+02  0.86396650933E+02  0.00000000000E+00 0.  1.
<mgrwt>
<rscale>  0 0.13130386E+04</rscale>
<asrwt>0</asrwt>
<pdfrwt beam="1">  1        2 0.12981169E+00 0.13130386E+04</pdfrwt>
<pdfrwt beam="2">  1       -1 0.78587686E-01 0.13130386E+04</pdfrwt>
<totfact> 0.58083054E+01</totfact>
</mgrwt>
</event>
<event>
12    7  0.1637954E-007  0.1624135E+04  0.7818608E-02  0.8805857E-01
          2   -1    0    0  501    0  0.00000000000E+00  0.00000000000E+00  0.24349707481E+04  0.24349707481E+04  0.00000000000E+00 0. -1.
         -1   -1    0    0    0  501 -0.00000000000E+00 -0.00000000000E+00 -0.27082602212E+03  0.27082602212E+03  0.00000000000E+00 0.  1.
         24    2    1    2    0    0  0.13623023207E+03 -0.33416585750E+01 -0.15106304535E+03  0.21730382019E+03  0.76361402469E+02 0.  0.
        254    2    1    2    0    0 -0.13623023207E+03  0.33416585750E+01  0.23152077714E+04  0.24884929501E+04  0.90213097447E+03 0.  0.
         23    2    4    4    0    0 -0.88091633163E+02  0.29221778604E+03  0.26294506174E+03  0.41318385044E+03  0.91811864499E+02 0.  0.
         23    2    4    4    0    0 -0.48138598904E+02 -0.28887612746E+03  0.20522627096E+04  0.20753090996E+04  0.96741345395E+02 0.  0.
          2    1    3    3  502    0  0.57702759927E+02 -0.10995479844E+02 -0.15995240614E+02  0.60879855474E+02  0.00000000000E+00 0. -1.
         -1    1    3    3    0  502  0.78527472140E+02  0.76538212691E+01 -0.13506780474E+03  0.15642396472E+03  0.00000000000E+00 0.  1.
         13    1    5    5    0    0 -0.10847309033E+02 -0.43742970778E+01  0.14625357999E+02  0.18726977459E+02  0.00000000000E+00 0. -1.
        -13    1    5    5    0    0 -0.77244324130E+02  0.29659208312E+03  0.24831970374E+03  0.39445687298E+03  0.00000000000E+00 0.  1.
          1    1    6    6  503    0  0.11585216513E+02  0.11986982362E+01  0.56104351286E+02  0.57300544084E+02  0.00000000000E+00 0. -1.
         -1    1    6    6    0  503 -0.59723815418E+02 -0.29007482570E+03  0.19961583583E+04  0.20180085555E+04  0.00000000000E+00 0.  1.
<mgrwt>
<rscale>  0 0.16241348E+04</rscale>
<asrwt>0</asrwt>
<pdfrwt beam="1">  1        2 0.37461087E+00 0.16241348E+04</pdfrwt>
<pdfrwt beam="2">  1       -1 0.41665544E-01 0.16241348E+04</pdfrwt>
<totfact> 0.23417919E+01</totfact>
</mgrwt>
</event>
<event>
12    7  0.1637954E-007  0.1510214E+04  0.7818608E-02  0.8877689E-01
         -1   -1    0    0    0  501 -0.00000000000E+00  0.00000000000E+00  0.31135228877E+03  0.31135228877E+03  0.00000000000E+00 0.  1.
          2   -1    0    0  501    0  0.00000000000E+00 -0.00000000000E+00 -0.18313239699E+04  0.18313239699E+04  0.00000000000E+00 0. -1.
         24    2    1    2    0    0  0.24712285090E+03  0.29388878626E+03 -0.96000626835E+03  0.10370921106E+04  0.80670245379E+02 0.  0.
        254    2    1    2    0    0 -0.24712285090E+03 -0.29388878626E+03 -0.55996541276E+03  0.11055841480E+04  0.87253350811E+03 0.  0.
         23    2    4    4    0    0 -0.11725007693E+03 -0.22761815180E+03  0.19364399052E+03  0.33269410099E+03  0.87348532918E+02 0.  0.
         23    2    4    4    0    0 -0.12987277397E+03 -0.66270634462E+02 -0.75360940327E+03  0.77289004704E+03  0.90405518104E+02 0.  0.
          2    1    3    3  502    0  0.23219338521E+03  0.27437988086E+03 -0.93642271140E+03  0.10030381755E+04  0.00000000000E+00 0. -1.
         -1    1    3    3    0  502  0.14929465683E+02  0.19508905398E+02 -0.23583556950E+02  0.34053935071E+02  0.00000000000E+00 0.  1.
         13    1    5    5    0    0 -0.19305593845E+02 -0.13247939418E+03  0.91166305483E+02  0.16197157495E+03  0.00000000000E+00 0. -1.
        -13    1    5    5    0    0 -0.97944483085E+02 -0.95138757612E+02  0.10247768503E+03  0.17072252604E+03  0.00000000000E+00 0.  1.
          1    1    6    6  503    0 -0.13971416725E+03 -0.43461807812E+02 -0.66156650899E+03  0.67755385253E+03  0.00000000000E+00 0. -1.
         -1    1    6    6    0  503  0.98413932814E+01 -0.22808826650E+02 -0.92042894287E+02  0.95336194510E+02  0.00000000000E+00 0.  1.
<mgrwt>
<rscale>  0 0.15102144E+04</rscale>
<asrwt>0</asrwt>
<pdfrwt beam="1">  1        2 0.28174215E+00 0.15102144E+04</pdfrwt>
<pdfrwt beam="2">  1       -1 0.47900352E-01 0.15102144E+04</pdfrwt>
<totfact> 0.39705338E+01</totfact>
</mgrwt>
</event>
<event>
12    7  0.1637954E-007  0.2304970E+04  0.7818608E-02  0.8475964E-01
         -1   -1    0    0    0  501 -0.00000000000E+00  0.00000000000E+00  0.12287729776E+04  0.12287729776E+04  0.00000000000E+00 0.  1.
          2   -1    0    0  501    0  0.00000000000E+00 -0.00000000000E+00 -0.10809331909E+04  0.10809331909E+04  0.00000000000E+00 0. -1.
         24    2    1    2    0    0  0.39830138519E+03  0.41613917554E+03 -0.73177623308E+03  0.93470876571E+03  0.79801093560E+02 0.  0.
        254    2    1    2    0    0 -0.39830138519E+03 -0.41613917554E+03  0.87961601976E+03  0.13749974028E+04  0.88604610969E+03 0.  0.
         23    2    4    4    0    0  0.21841273032E+03 -0.16852699144E+03  0.56210775089E+03  0.63253627758E+03  0.89618922289E+02 0.  0.
         23    2    4    4    0    0 -0.61671411551E+03 -0.24761218410E+03  0.31750826887E+03  0.74246112517E+03  0.93749280609E+02 0.  0.
          2    1    3    3  502    0  0.39854648313E+03  0.41922716318E+03 -0.72785021408E+03  0.92970782921E+03  0.00000000000E+00 0. -1.
         -1    1    3    3    0  502 -0.24509794173E+00 -0.30879876400E+01 -0.39260190012E+01  0.50009364987E+01  0.00000000000E+00 0.  1.
         13    1    5    5    0    0  0.20901028355E+03 -0.17883928175E+03  0.54475845311E+03  0.61027089031E+03  0.00000000000E+00 0. -1.
        -13    1    5    5    0    0  0.94024467631E+01  0.10312290311E+02  0.17349297784E+02  0.22265387268E+02  0.00000000000E+00 0.  1.
          4    1    6    6  503    0 -0.38034660809E+03 -0.18441405007E+03  0.23855985643E+03  0.48536881775E+03  0.00000000000E+00 0. -1.
         -4    1    6    6    0  503 -0.23636750742E+03 -0.63198134026E+02  0.78948412438E+02  0.25709230742E+03  0.00000000000E+00 0.  1.
<mgrwt>
<rscale>  0 0.23049698E+04</rscale>
<asrwt>0</asrwt>
<pdfrwt beam="1">  1        2 0.16629741E+00 0.23049698E+04</pdfrwt>
<pdfrwt beam="2">  1       -1 0.18904200E+00 0.23049698E+04</pdfrwt>
<totfact> 0.41513206E+00</totfact>
</mgrwt>
</event>
<event>
12    7  0.1637954E-007  0.1577539E+04  0.7818608E-02  0.8834467E-01
         -1   -1    0    0    0  501 -0.00000000000E+00  0.00000000000E+00  0.34522885816E+03  0.34522885816E+03  0.00000000000E+00 0.  1.
          2   -1    0    0  501    0  0.00000000000E+00 -0.00000000000E+00 -0.18021586866E+04  0.18021586866E+04  0.00000000000E+00 0. -1.
         24    2    1    2    0    0  0.46394778445E+03 -0.57889347617E+02 -0.20799528884E+03  0.51820130053E+03  0.81681236675E+02 0.  0.
        254    2    1    2    0    0 -0.46394778445E+03  0.57889347617E+02 -0.12489345396E+04  0.16291862442E+04  0.93584807041E+03 0.  0.
         23    2    4    4    0    0 -0.30144024770E+03 -0.18493611087E+03 -0.12719083111E+04  0.13233187045E+04  0.91400514207E+02 0.  0.
         23    2    4    4    0    0 -0.16250753675E+03  0.24282545849E+03  0.22973771492E+02  0.30586753966E+03  0.87488598413E+02 0.  0.
          4    1    3    3  502    0  0.41733845376E+02  0.15501704522E+02 -0.77867750647E+01  0.45195691817E+02  0.00000000000E+00 0. -1.
         -3    1    3    3    0  502  0.42221393907E+03 -0.73391052139E+02 -0.20020851378E+03  0.47300560871E+03  0.00000000000E+00 0.  1.
         13    1    5    5    0    0 -0.18099089173E+03 -0.13327095425E+03 -0.93935056892E+03  0.96586662716E+03  0.00000000000E+00 0. -1.
        -13    1    5    5    0    0 -0.12044935597E+03 -0.51665156619E+02 -0.33255774215E+03  0.35745207738E+03  0.00000000000E+00 0.  1.
          4    1    6    6  503    0 -0.34322167105E+00 -0.66676398166E+01  0.38110122492E+01  0.76875897525E+01  0.00000000000E+00 0.  1.
         -4    1    6    6    0  503 -0.16216431508E+03  0.24949309830E+03  0.19162759243E+02  0.29817994991E+03  0.00000000000E+00 0. -1.
<mgrwt>
<rscale>  0 0.15775388E+04</rscale>
<asrwt>0</asrwt>
<pdfrwt beam="1">  1        2 0.27725518E+00 0.15775388E+04</pdfrwt>
<pdfrwt beam="2">  1       -1 0.53112133E-01 0.15775388E+04</pdfrwt>
<totfact> 0.33660880E+01</totfact>
</mgrwt>
</event>
<event>
12    7  0.1637954E-007  0.1894479E+04  0.7818608E-02  0.8657609E-01
         -1   -1    0    0    0  501 -0.00000000000E+00  0.00000000000E+00  0.46358024977E+03  0.46358024977E+03  0.00000000000E+00 0.  1.
          2   -1    0    0  501    0  0.00000000000E+00 -0.00000000000E+00 -0.19355065602E+04  0.19355065602E+04  0.00000000000E+00 0. -1.
         24    2    1    2    0    0 -0.34906164050E+03  0.11303977169E+01  0.24277985251E+03  0.43258182245E+03  0.79622042553E+02 0.  0.
        254    2    1    2    0    0  0.34906164050E+03 -0.11303977169E+01 -0.17147061630E+04  0.19665049875E+04  0.89726213227E+03 0.  0.
         23    2    4    4    0    0  0.30359781805E+03  0.39560782416E+03 -0.12384815210E+04  0.13381444398E+04  0.90093719545E+02 0.  0.
         23    2    4    4    0    0  0.45463822449E+02 -0.39673822188E+03 -0.47622464200E+03  0.62836054774E+03  0.92622310793E+02 0.  0.
          2    1    3    3  502    0 -0.37600308960E+02  0.77253198172E+01  0.12801945630E+01  0.38407065734E+02  0.00000000000E+00 0. -1.
         -1    1    3    3    0  502 -0.31146133154E+03 -0.65949221003E+01  0.24149965795E+03  0.39417475672E+03  0.00000000000E+00 0.  1.
         13    1    5    5    0    0  0.29203947164E+03  0.36323147682E+03 -0.10851401652E+04  0.11809967556E+04  0.00000000000E+00 0. -1.
        -13    1    5    5    0    0  0.11558346416E+02  0.32376347339E+02 -0.15334135578E+03  0.15714768415E+03  0.00000000000E+00 0.  1.
          3    1    6    6  503    0  0.62976888660E+02 -0.35476721037E+03 -0.39060042610E+03  0.53140808700E+03  0.00000000000E+00 0. -1.
         -3    1    6    6    0  503 -0.17513066211E+02 -0.41971011510E+02 -0.85624215897E+02  0.96952460739E+02  0.00000000000E+00 0.  1.
<mgrwt>
<rscale>  0 0.18944789E+04</rscale>
<asrwt>0</asrwt>
<pdfrwt beam="1">  1        2 0.29777025E+00 0.18944789E+04</pdfrwt>
<pdfrwt beam="2">  1       -1 0.71320037E-01 0.18944789E+04</pdfrwt>
<totfact> 0.15369943E+01</totfact>
</mgrwt>
</event>
<event>
12    7  0.1637954E-007  0.3479513E+04  0.7818608E-02  0.8118662E-01
          2   -1    0    0  501    0  0.00000000000E+00  0.00000000000E+00  0.27953353000E+04  0.27953353000E+04  0.00000000000E+00 0. -1.
         -1   -1    0    0    0  501 -0.00000000000E+00 -0.00000000000E+00 -0.10827870181E+04  0.10827870181E+04  0.00000000000E+00 0.  1.
         24    2    1    2    0    0 -0.58515470722E+01 -0.11356424979E+04 -0.49305969512E+03  0.12403934099E+04  0.75827599230E+02 0.  0.
        254    2    1    2    0    0  0.58515470722E+01  0.11356424979E+04  0.22056079770E+04  0.26377289082E+04  0.89620819089E+03 0.  0.
         23    2    4    4    0    0  0.41350816868E+03  0.35390198021E+03  0.71093951640E+03  0.89985822893E+03  0.89856658269E+02 0.  0.
         23    2    4    4    0    0 -0.40765662161E+03  0.78174051771E+03  0.14946684606E+04  0.17378706793E+04  0.94119778397E+02 0.  0.
          2    1    3    3  502    0 -0.26573202708E+02 -0.20733997812E+03 -0.74955755079E+02  0.22206838327E+03  0.00000000000E+00 0. -1.
         -1    1    3    3    0  502  0.20721655636E+02 -0.92830251980E+03 -0.41810394004E+03  0.10183250267E+04  0.00000000000E+00 0.  1.
         13    1    5    5    0    0  0.32794640769E+02  0.38272885440E+02  0.31270134951E+02  0.59313772118E+02  0.00000000000E+00 0.  1.
        -13    1    5    5    0    0  0.38071352791E+03  0.31562909477E+03  0.67966938145E+03  0.84054445682E+03  0.00000000000E+00 0. -1.
          2    1    6    6  503    0 -0.38653364236E+03  0.69176598874E+03  0.13701560476E+04  0.15828063794E+04  0.00000000000E+00 0. -1.
         -2    1    6    6    0  503 -0.21122979247E+02  0.89974528963E+02  0.12451241296E+03  0.15506429987E+03  0.00000000000E+00 0.  1.
<mgrwt>
<rscale>  0 0.34795131E+04</rscale>
<asrwt>0</asrwt>
<pdfrwt beam="1">  1        2 0.43005158E+00 0.34795131E+04</pdfrwt>
<pdfrwt beam="2">  1       -1 0.16658262E+00 0.34795131E+04</pdfrwt>
<totfact> 0.56730313E-01</totfact>
</mgrwt>
</event>
<event>
12    7  0.1637954E-007  0.1771647E+04  0.7818608E-02  0.8721524E-01
          2   -1    0    0  501    0  0.00000000000E+00  0.00000000000E+00  0.24915016708E+04  0.24915016708E+04  0.00000000000E+00 0. -1.
         -1   -1    0    0    0  501 -0.00000000000E+00 -0.00000000000E+00 -0.31494405223E+03  0.31494405223E+03  0.00000000000E+00 0.  1.
         24    2    1    2    0    0 -0.46755189219E+03  0.45923426298E+03  0.75307527912E+03  0.10015266899E+04  0.80202583469E+02 0.  0.
        254    2    1    2    0    0  0.46755189219E+03 -0.45923426298E+03  0.14234823395E+04  0.18049190332E+04  0.89550536862E+03 0.  0.
         23    2    4    4    0    0  0.68602604822E+03 -0.15621419211E+03  0.77172098067E+03  0.10482824431E+04  0.91149305451E+02 0.  0.
         23    2    4    4    0    0 -0.21847415603E+03 -0.30302007087E+03  0.65176135881E+03  0.75663659003E+03  0.90299171281E+02 0.  0.
          2    1    3    3  502    0 -0.11327827926E+03  0.13671817416E+03  0.25205900687E+03  0.30831407792E+03  0.00000000000E+00 0. -1.
         -1    1    3    3    0  502 -0.35427361293E+03  0.32251608882E+03  0.50101627224E+03  0.69321261199E+03  0.00000000000E+00 0.  1.
         13    1    5    5    0    0  0.52212008535E+03 -0.12164419825E+03  0.64207493072E+03  0.83646094419E+03  0.00000000000E+00 0.  1.
        -13    1    5    5    0    0  0.16390596287E+03 -0.34569993868E+02  0.12964604995E+03  0.21182149893E+03  0.00000000000E+00 0. -1.
          2    1    6    6  503    0 -0.97743586958E+01 -0.54978136447E+02  0.14143933788E+03  0.15206321013E+03  0.00000000000E+00 0. -1.
         -2    1    6    6    0  503 -0.20869979734E+03 -0.24804193442E+03  0.51032202093E+03  0.60457337990E+03  0.00000000000E+00 0.  1.
<mgrwt>
<rscale>  0 0.17716474E+04</rscale>
<asrwt>0</asrwt>
<pdfrwt beam="1">  1        2 0.38330794E+00 0.17716474E+04</pdfrwt>
<pdfrwt beam="2">  1       -1 0.48452933E-01 0.17716474E+04</pdfrwt>
<totfact> 0.16183796E+01</totfact>
</mgrwt>
</event>
<event>
12    7  0.1637954E-007  0.1482983E+04  0.7818608E-02  0.8895849E-01
         -3   -1    0    0    0  501 -0.00000000000E+00  0.00000000000E+00  0.23719198731E+03  0.23719198731E+03  0.00000000000E+00 0.  1.
          2   -1    0    0  501    0  0.00000000000E+00 -0.00000000000E+00 -0.23179935551E+04  0.23179935551E+04  0.00000000000E+00 0. -1.
         24    2    1    2    0    0  0.12691964080E+03  0.22142556354E+02  0.10610496914E+03  0.18487616399E+03  0.79511279154E+02 0.  0.
        254    2    1    2    0    0 -0.12691964080E+03 -0.22142556354E+02 -0.21869065369E+04  0.23703093784E+04  0.90510080110E+03 0.  0.
         23    2    4    4    0    0  0.30071501475E+03  0.50752009922E+02 -0.16192580253E+04  0.16500662806E+04  0.87845837706E+02 0.  0.
         23    2    4    4    0    0 -0.42763465555E+03 -0.72894566276E+02 -0.56764851157E+03  0.72024309779E+03  0.91325083087E+02 0.  0.
          4    1    3    3  502    0  0.38336288010E+02  0.40636348014E+02  0.64342191241E+02  0.85210922610E+02  0.00000000000E+00 0. -1.
         -3    1    3    3    0  502  0.88583352789E+02 -0.18493791660E+02  0.41762777897E+02  0.99665241378E+02  0.00000000000E+00 0.  1.
         13    1    5    5    0    0  0.25587746103E+03  0.26145731767E+02 -0.14688559061E+04  0.14912057360E+04  0.00000000000E+00 0. -1.
        -13    1    5    5    0    0  0.44837553719E+02  0.24606278155E+02 -0.15040211925E+03  0.15886054458E+03  0.00000000000E+00 0.  1.
          2    1    6    6  503    0 -0.39872847409E+03 -0.85546627765E+02 -0.54794760895E+03  0.68304407158E+03  0.00000000000E+00 0. -1.
         -2    1    6    6    0  503 -0.28906181455E+02  0.12652061489E+02 -0.19700902626E+02  0.37199026204E+02  0.00000000000E+00 0.  1.
<mgrwt>
<rscale>  0 0.14829828E+04</rscale>
<asrwt>0</asrwt>
<pdfrwt beam="1">  1        2 0.35661441E+00 0.14829828E+04</pdfrwt>
<pdfrwt beam="2">  1       -3 0.36491073E-01 0.14829828E+04</pdfrwt>
<totfact> 0.20637258E+01</totfact>
</mgrwt>
</event>
<event>
12    7  0.1637954E-007  0.2030131E+04  0.7818608E-02  0.8592662E-01
         -1   -1    0    0    0  501 -0.00000000000E+00  0.00000000000E+00  0.86245980744E+03  0.86245980744E+03  0.00000000000E+00 0.  1.
          2   -1    0    0  501    0  0.00000000000E+00 -0.00000000000E+00 -0.11946736264E+04  0.11946736264E+04  0.00000000000E+00 0. -1.
         24    2    1    2    0    0 -0.35593773130E+03 -0.15711545523E+03  0.58912560755E+03  0.71126363460E+03  0.86313623493E+02 0.  0.
        254    2    1    2    0    0  0.35593773130E+03  0.15711545523E+03 -0.92133942655E+03  0.13458697993E+04  0.90062325246E+03 0.  0.
         23    2    4    4    0    0 -0.15797724385E+03 -0.22722004449E+03 -0.12184480794E+03  0.31678691849E+03  0.94456531323E+02 0.  0.
         23    2    4    4    0    0  0.51391497516E+03  0.38433549972E+03 -0.79949461860E+03  0.10290828808E+04  0.89429035180E+02 0.  0.
          4    1    3    3  502    0 -0.84664752218E+02 -0.14862689666E+02  0.18658640909E+03  0.20543492369E+03  0.00000000000E+00 0. -1.
         -3    1    3    3    0  502 -0.27127297909E+03 -0.14225276556E+03  0.40253919845E+03  0.50582871091E+03  0.00000000000E+00 0.  1.
         13    1    5    5    0    0 -0.50271330578E+02 -0.50073620034E+02  0.91619398651E+01  0.71543799476E+02  0.00000000000E+00 0. -1.
        -13    1    5    5    0    0 -0.10770591327E+03 -0.17714642446E+03 -0.13100674781E+03  0.24524311901E+03  0.00000000000E+00 0.  1.
          4    1    6    6  503    0  0.41683894182E+03  0.29984349338E+03 -0.69010891252E+03  0.86018087347E+03  0.00000000000E+00 0. -1.
         -4    1    6    6    0  503  0.97076033334E+02  0.84492006345E+02 -0.10938570609E+03  0.16890200733E+03  0.00000000000E+00 0.  1.
<mgrwt>
<rscale>  0 0.20301310E+04</rscale>
<asrwt>0</asrwt>
<pdfrwt beam="1">  1        2 0.18379594E+00 0.20301310E+04</pdfrwt>
<pdfrwt beam="2">  1       -1 0.13268613E+00 0.20301310E+04</pdfrwt>
<totfact> 0.97083702E+00</totfact>
</mgrwt>
</event>
<event>
12    7  0.1637954E-007  0.1546085E+04  0.7818608E-02  0.8854372E-01
         -1   -1    0    0    0  501 -0.00000000000E+00  0.00000000000E+00  0.11619443157E+04  0.11619443157E+04  0.00000000000E+00 0.  1.
          2   -1    0    0  501    0  0.00000000000E+00 -0.00000000000E+00 -0.51430600982E+03  0.51430600982E+03  0.00000000000E+00 0. -1.
         24    2    1    2    0    0  0.10305333599E+03 -0.66690904340E+02 -0.34786769499E+03  0.37728614536E+03  0.79153240506E+02 0.  0.
        254    2    1    2    0    0 -0.10305333599E+03  0.66690904340E+02  0.99550600082E+03  0.12989641801E+04  0.82535330420E+03 0.  0.
         23    2    4    4    0    0  0.89009876246E+02 -0.49261022424E+02  0.10431863193E+04  0.10521407284E+04  0.91722456828E+02 0.  0.
         23    2    4    4    0    0 -0.19206321224E+03  0.11595192676E+03 -0.47680318523E+02  0.24682345171E+03  0.91188139177E+02 0.  0.
          4    1    3    3  502    0  0.11412269707E+03 -0.48787496400E+02 -0.31069250896E+03  0.33456545685E+03  0.00000000000E+00 0. -1.
         -3    1    3    3    0  502 -0.11069361081E+02 -0.17903407939E+02 -0.37175186029E+02  0.42720688511E+02  0.00000000000E+00 0.  1.
         13    1    5    5    0    0  0.97588382499E+02 -0.17573701593E+02  0.64186974844E+03  0.64948371908E+03  0.00000000000E+00 0. -1.
        -13    1    5    5    0    0 -0.85785062530E+01 -0.31687320831E+02  0.40131657090E+03  0.40265700932E+03  0.00000000000E+00 0.  1.
          1    1    6    6  503    0 -0.15607724144E+03  0.11862985834E+03 -0.12523622887E+02  0.19644334989E+03  0.00000000000E+00 0. -1.
         -1    1    6    6    0  503 -0.35985970796E+02 -0.26779315790E+01 -0.35156695636E+02  0.50380101823E+02  0.00000000000E+00 0.  1.
<mgrwt>
<rscale>  0 0.15460853E+04</rscale>
<asrwt>0</asrwt>
<pdfrwt beam="1">  1        2 0.79124002E-01 0.15460853E+04</pdfrwt>
<pdfrwt beam="2">  1       -1 0.17876066E+00 0.15460853E+04</pdfrwt>
<totfact> 0.13929648E+01</totfact>
</mgrwt>
</event>
<event>
12    7  0.1637954E-007  0.1109961E+04  0.7818608E-02  0.9195537E-01
          2   -1    0    0  501    0  0.00000000000E+00  0.00000000000E+00  0.22519489090E+04  0.22519489090E+04  0.00000000000E+00 0. -1.
         -1   -1    0    0    0  501 -0.00000000000E+00 -0.00000000000E+00 -0.13677192225E+03  0.13677192225E+03  0.00000000000E+00 0.  1.
         24    2    1    2    0    0 -0.43575252316E+02 -0.17748177319E+03  0.42190038377E+03  0.46667737613E+03  0.79932828899E+02 0.  0.
        254    2    1    2    0    0  0.43575252316E+02  0.17748177319E+03  0.16932766030E+04  0.19220434551E+04  0.89087979365E+03 0.  0.
         23    2    4    4    0    0  0.42427468284E+03  0.25201621399E+03  0.10747368047E+04  0.11861762186E+04  0.91834871375E+02 0.  0.
         23    2    4    4    0    0 -0.38069943053E+03 -0.74534440796E+02  0.61853979831E+03  0.73586723653E+03  0.91769648819E+02 0.  0.
          2    1    3    3  502    0 -0.58162543038E+02 -0.15563970327E+03  0.39749579612E+03  0.43082421772E+03  0.00000000000E+00 0. -1.
         -1    1    3    3    0  502  0.14587290722E+02 -0.21842069928E+02  0.24404587658E+02  0.35853158412E+02  0.00000000000E+00 0.  1.
         13    1    5    5    0    0  0.93317799141E+02  0.10025809629E+03  0.32617092805E+03  0.35376174442E+03  0.00000000000E+00 0.  1.
        -13    1    5    5    0    0  0.33095688370E+03  0.15175811770E+03  0.74856587664E+03  0.83241447418E+03  0.00000000000E+00 0. -1.
          3    1    6    6  503    0 -0.14070865581E+03 -0.54958365587E+01  0.29745516144E+03  0.32910287618E+03  0.00000000000E+00 0. -1.
         -3    1    6    6    0  503 -0.23999077472E+03 -0.69038604237E+02  0.32108463686E+03  0.40676436035E+03  0.00000000000E+00 0.  1.
<mgrwt>
<rscale>  0 0.11099610E+04</rscale>
<asrwt>0</asrwt>
<pdfrwt beam="1">  1        2 0.34645365E+00 0.11099610E+04</pdfrwt>
<pdfrwt beam="2">  1       -1 0.21041836E-01 0.11099610E+04</pdfrwt>
<totfact> 0.10296774E+02</totfact>
</mgrwt>
</event>
<event>
12    7  0.1637954E-007  0.1607039E+04  0.7818608E-02  0.8816235E-01
          2   -1    0    0  501    0  0.00000000000E+00  0.00000000000E+00  0.15644254572E+04  0.15644254572E+04  0.00000000000E+00 0. -1.
         -3   -1    0    0    0  501 -0.00000000000E+00 -0.00000000000E+00 -0.41270323953E+03  0.41270323953E+03  0.00000000000E+00 0.  1.
         24    2    1    2    0    0  0.73178345945E+02  0.29114684853E+03  0.96342960406E+03  0.10122848481E+04  0.80015335961E+02 0.  0.
        254    2    1    2    0    0 -0.73178345945E+02 -0.29114684853E+03  0.18829261366E+03  0.96484384868E+03  0.89741182645E+03 0.  0.
         23    2    4    4    0    0  0.24937329604E+03  0.76614824758E+02 -0.19380188336E+03  0.33772609872E+03  0.91885121827E+02 0.  0.
         23    2    4    4    0    0 -0.32255164199E+03 -0.36776167329E+03  0.38209449702E+03  0.62711774996E+03  0.89399427111E+02 0.  0.
          2    1    3    3  502    0  0.36647134866E+02  0.11179791624E+03  0.50813659197E+03  0.52157893235E+03  0.00000000000E+00 0. -1.
         -1    1    3    3    0  502  0.36531211079E+02  0.17934893229E+03  0.45529301208E+03  0.49070591575E+03  0.00000000000E+00 0.  1.
         13    1    5    5    0    0  0.23628462849E+03  0.93071255854E+02 -0.16823740481E+03  0.30462519381E+03  0.00000000000E+00 0. -1.
        -13    1    5    5    0    0  0.13088667555E+02 -0.16456431095E+02 -0.25564478543E+02  0.33100904911E+02  0.00000000000E+00 0.  1.
          1    1    6    6  503    0 -0.30794211262E+03 -0.33360213378E+03  0.32249184582E+03  0.55688393674E+03  0.00000000000E+00 0. -1.
         -1    1    6    6    0  503 -0.14609529369E+02 -0.34159539516E+02  0.59602651202E+02  0.70233813214E+02  0.00000000000E+00 0.  1.
<mgrwt>
<rscale>  0 0.16070388E+04</rscale>
<asrwt>0</asrwt>
<pdfrwt beam="1">  1        2 0.24068084E+00 0.16070388E+04</pdfrwt>
<pdfrwt beam="2">  1       -3 0.63492807E-01 0.16070388E+04</pdfrwt>
<totfact> 0.17222122E+01</totfact>
</mgrwt>
</event>
<event>
12    7  0.1637954E-007  0.1888701E+04  0.7818608E-02  0.8660501E-01
         -1   -1    0    0    0  501 -0.00000000000E+00  0.00000000000E+00  0.93740050089E+03  0.93740050089E+03  0.00000000000E+00 0.  1.
          2   -1    0    0  501    0  0.00000000000E+00 -0.00000000000E+00 -0.95135216459E+03  0.95135216459E+03  0.00000000000E+00 0. -1.
         24    2    1    2    0    0  0.34521754621E+03  0.59236188795E+03  0.24100251171E+03  0.73143490108E+03  0.82746863191E+02 0.  0.
        254    2    1    2    0    0 -0.34521754621E+03 -0.59236188795E+03 -0.25495417541E+03  0.11573177644E+04  0.89683611420E+03 0.  0.
         23    2    4    4    0    0 -0.25264340274E+03 -0.33360750120E+03  0.30506960291E+03  0.52564950583E+03  0.90095985231E+02 0.  0.
         23    2    4    4    0    0 -0.92574143475E+02 -0.25875438675E+03 -0.56002377832E+03  0.63166825857E+03  0.99269088363E+02 0.  0.
          4    1    3    3  502    0 -0.37720526618E+01  0.15686688960E+02  0.19711835166E+01  0.16253804363E+02  0.00000000000E+00 0. -1.
         -3    1    3    3    0  502  0.34898959887E+03  0.57667519899E+03  0.23903132819E+03  0.71518109672E+03  0.00000000000E+00 0.  1.
         13    1    5    5    0    0 -0.11031260815E+03 -0.17529004799E+03  0.20127938978E+03  0.28880592998E+03  0.00000000000E+00 0.  1.
        -13    1    5    5    0    0 -0.14233079459E+03 -0.15831745321E+03  0.10379021313E+03  0.23684357585E+03  0.00000000000E+00 0. -1.
          4    1    6    6  503    0  0.83484791865E+01 -0.23201764221E+02 -0.11960480813E+03  0.12212014206E+03  0.00000000000E+00 0. -1.
         -4    1    6    6    0  503 -0.10092262266E+03 -0.23555262253E+03 -0.44041897018E+03  0.50954811651E+03  0.00000000000E+00 0.  1.
<mgrwt>
<rscale>  0 0.18887011E+04</rscale>
<asrwt>0</asrwt>
<pdfrwt beam="1">  1        2 0.14636187E+00 0.18887011E+04</pdfrwt>
<pdfrwt beam="2">  1       -1 0.14421546E+00 0.18887011E+04</pdfrwt>
<totfact> 0.11233559E+01</totfact>
</mgrwt>
</event>
<event>
12    7  0.1871153E-007  0.1811963E+04  0.7818608E-02  0.8699964E-01
         -1   -1    0    0    0  501 -0.00000000000E+00  0.00000000000E+00  0.11334602810E+04  0.11334602810E+04  0.00000000000E+00 0.  1.
          2   -1    0    0  501    0  0.00000000000E+00 -0.00000000000E+00 -0.72415606971E+03  0.72415606971E+03  0.00000000000E+00 0. -1.
         24    2    1    2    0    0  0.19684566447E+03 -0.10507807787E+03 -0.50435409637E+03  0.55754345777E+03  0.81804857438E+02 0.  0.
        254    2    1    2    0    0 -0.19684566447E+03  0.10507807787E+03  0.91365830771E+03  0.13000728930E+04  0.89756805078E+03 0.  0.
         23    2    4    4    0    0  0.24090624568E+03  0.19687496311E+03  0.74629421626E+03  0.81374523329E+03  0.91818719034E+02 0.  0.
         23    2    4    4    0    0 -0.43775191015E+03 -0.91796885243E+02  0.16736409145E+03  0.48632765970E+03  0.91926331942E+02 0.  0.
          2    1    3    3  502    0  0.17735477510E+03 -0.89368301084E+02 -0.36102187319E+03  0.41204150569E+03  0.00000000000E+00 0. -1.
         -1    1    3    3    0  502  0.19490889364E+02 -0.15709776783E+02 -0.14333222318E+03  0.14550195207E+03  0.00000000000E+00 0.  1.
         13    1    5    5    0    0  0.28343622953E+02  0.20305931652E+01  0.28720646078E+02  0.40402472472E+02  0.00000000000E+00 0. -1.
        -13    1    5    5    0    0  0.21256262273E+03  0.19484436994E+03  0.71757357018E+03  0.77334276082E+03  0.00000000000E+00 0.  1.
          1    1    6    6  503    0  0.37780758071E+01 -0.71369794075E+00  0.67055582348E+01  0.77296657622E+01  0.00000000000E+00 0. -1.
         -1    1    6    6    0  503 -0.44152998596E+03 -0.91083187302E+02  0.16065853321E+03  0.47859799394E+03  0.00000000000E+00 0.  1.
<mgrwt>
<rscale>  0 0.18119626E+04</rscale>
<asrwt>0</asrwt>
<pdfrwt beam="1">  1        2 0.11140863E+00 0.18119626E+04</pdfrwt>
<pdfrwt beam="2">  1       -1 0.17437850E+00 0.18119626E+04</pdfrwt>
<totfact> 0.96566234E+00</totfact>
</mgrwt>
</event>
<event>
12    7  0.1637954E-007  0.1248473E+04  0.7818608E-02  0.9071455E-01
         -1   -1    0    0    0  501 -0.00000000000E+00  0.00000000000E+00  0.53624460071E+03  0.53624460071E+03  0.00000000000E+00 0.  1.
          2   -1    0    0  501    0  0.00000000000E+00 -0.00000000000E+00 -0.72666725764E+03  0.72666725764E+03  0.00000000000E+00 0. -1.
         24    2    1    2    0    0  0.60956580605E+02  0.88755967716E+02  0.22394219345E+03  0.26092675817E+03  0.79619976106E+02 0.  0.
        254    2    1    2    0    0 -0.60956580605E+02 -0.88755967716E+02 -0.41436485038E+03  0.10019851002E+04  0.90591533007E+03 0.  0.
         23    2    4    4    0    0  0.18366775035E+03 -0.30926917588E+03  0.99690519937E+02  0.38410917250E+03  0.90666371767E+02 0.  0.
         23    2    4    4    0    0 -0.24462433095E+03  0.22051320817E+03 -0.51405537031E+03  0.61787592768E+03  0.95134641402E+02 0.  0.
          4    1    3    3  502    0  0.68859990791E+02  0.72431254916E+02  0.12355620944E+03  0.15891545523E+03  0.00000000000E+00 0. -1.
         -3    1    3    3    0  502 -0.79034101861E+01  0.16324712801E+02  0.10038598401E+03  0.10201130293E+03  0.00000000000E+00 0.  1.
         13    1    5    5    0    0  0.12922994857E+03 -0.21520175389E+03  0.25062554796E+02  0.25227030371E+03  0.00000000000E+00 0. -1.
        -13    1    5    5    0    0  0.54437801779E+02 -0.94067421996E+02  0.74627965141E+02  0.13183886879E+03  0.00000000000E+00 0.  1.
          1    1    6    6  503    0 -0.17843504440E+03  0.21036021617E+03 -0.41383198795E+03  0.49734032600E+03  0.00000000000E+00 0. -1.
         -1    1    6    6    0  503 -0.66189286552E+02  0.10152991997E+02 -0.10022338236E+03  0.12053560168E+03  0.00000000000E+00 0.  1.
<mgrwt>
<rscale>  0 0.12484733E+04</rscale>
<asrwt>0</asrwt>
<pdfrwt beam="1">  1        2 0.11179496E+00 0.12484733E+04</pdfrwt>
<pdfrwt beam="2">  1       -1 0.82499170E-01 0.12484733E+04</pdfrwt>
<totfact> 0.64114356E+01</totfact>
</mgrwt>
</event>
<event>
12    7  0.1637954E-007  0.1497677E+04  0.7818608E-02  0.8885999E-01
         -1   -1    0    0    0  501 -0.00000000000E+00  0.00000000000E+00  0.11996293137E+03  0.11996293137E+03  0.00000000000E+00 0.  1.
          2   -1    0    0  501    0  0.00000000000E+00 -0.00000000000E+00 -0.46744336994E+04  0.46744336994E+04  0.00000000000E+00 0. -1.
         24    2    1    2    0    0  0.17469364410E+03 -0.35118838026E+03 -0.23325596697E+04  0.23667509139E+04  0.82608281588E+02 0.  0.
        254    2    1    2    0    0 -0.17469364410E+03  0.35118838026E+03 -0.22219110983E+04  0.24276457168E+04  0.89594846383E+03 0.  0.
         23    2    4    4    0    0 -0.34143154801E+03  0.84933644726E+02 -0.28143685757E+03  0.45975523345E+03  0.91536571426E+02 0.  0.
         23    2    4    4    0    0  0.16673790391E+03  0.26625473554E+03 -0.19404742407E+04  0.19678904834E+04  0.91975881088E+02 0.  0.
          4    1    3    3  502    0  0.10980548919E+03 -0.17001403063E+03 -0.13988536508E+04  0.14134191001E+04  0.00000000000E+00 0. -1.
         -3    1    3    3    0  502  0.64888154902E+02 -0.18117434963E+03 -0.93370601891E+03  0.95333181388E+03  0.00000000000E+00 0.  1.
         13    1    5    5    0    0 -0.19705876936E+03  0.93350761150E+02 -0.18472723253E+03  0.28578081396E+03  0.00000000000E+00 0. -1.
        -13    1    5    5    0    0 -0.14437277864E+03 -0.84171164244E+01 -0.96709625036E+02  0.17397441949E+03  0.00000000000E+00 0.  1.
          1    1    6    6  503    0  0.97531535817E+02  0.74940503085E+02 -0.80300037065E+03  0.81236572721E+03  0.00000000000E+00 0. -1.
         -1    1    6    6    0  503  0.69206368095E+02  0.19131423245E+03 -0.11374738701E+04  0.11555247561E+04  0.00000000000E+00 0.  1.
<mgrwt>
<rscale>  0 0.14976766E+04</rscale>
<asrwt>0</asrwt>
<pdfrwt beam="1">  1        2 0.71914346E+00 0.14976766E+04</pdfrwt>
<pdfrwt beam="2">  1       -1 0.18455840E-01 0.14976766E+04</pdfrwt>
<totfact> 0.21913762E+00</totfact>
</mgrwt>
</event>
<event>
12    7  0.1637954E-007  0.1393510E+04  0.7818608E-02  0.8958530E-01
          2   -1    0    0  501    0  0.00000000000E+00  0.00000000000E+00  0.21449888184E+04  0.21449888184E+04  0.00000000000E+00 0. -1.
         -1   -1    0    0    0  501 -0.00000000000E+00 -0.00000000000E+00 -0.22632642494E+03  0.22632642494E+03  0.00000000000E+00 0.  1.
         24    2    1    2    0    0 -0.17115345025E+03  0.33241921125E+03  0.33116955128E+03  0.50779705842E+03  0.91589002050E+02 0.  0.
        254    2    1    2    0    0  0.17115345025E+03 -0.33241921125E+03  0.15874928422E+04  0.18635181850E+04  0.90153783397E+03 0.  0.
         23    2    4    4    0    0  0.36574410500E+03 -0.37084432174E+03  0.15556206223E+04  0.16429755968E+04  0.90105659230E+02 0.  0.
         23    2    4    4    0    0 -0.19459065475E+03  0.38425110485E+02  0.31872219933E+02  0.22054258819E+03  0.91001004236E+02 0.  0.
          4    1    3    3  502    0 -0.37134103070E+02  0.12463114115E+03  0.16411838531E+03  0.20939605382E+03  0.00000000000E+00 0. -1.
         -3    1    3    3    0  502 -0.13401934718E+03  0.20778807010E+03  0.16705116597E+03  0.29840100460E+03  0.00000000000E+00 0.  1.
         13    1    5    5    0    0  0.25992628304E+03 -0.30985210989E+03  0.12522878469E+04  0.13159767681E+04  0.00000000000E+00 0. -1.
        -13    1    5    5    0    0  0.10581782196E+03 -0.60992211848E+02  0.30333277534E+03  0.32699882866E+03  0.00000000000E+00 0.  1.
          2    1    6    6  503    0 -0.17831005764E+03  0.23419631159E+02  0.55452731644E+02  0.18819660259E+03  0.00000000000E+00 0.  1.
         -2    1    6    6    0  503 -0.16280597105E+02  0.15005479327E+02 -0.23580511711E+02  0.32345985601E+02  0.00000000000E+00 0. -1.
<mgrwt>
<rscale>  0 0.13935102E+04</rscale>
<asrwt>0</asrwt>
<pdfrwt beam="1">  1        2 0.32999827E+00 0.13935102E+04</pdfrwt>
<pdfrwt beam="2">  1       -1 0.34819451E-01 0.13935102E+04</pdfrwt>
<totfact> 0.48228922E+01</totfact>
</mgrwt>
</event>
<event>
12    7  0.1637954E-007  0.2031712E+04  0.7818608E-02  0.8591936E-01
          2   -1    0    0  501    0  0.00000000000E+00  0.00000000000E+00  0.16694253548E+04  0.16694253548E+04  0.00000000000E+00 0. -1.
         -1   -1    0    0    0  501 -0.00000000000E+00 -0.00000000000E+00 -0.61815463674E+03  0.61815463674E+03  0.00000000000E+00 0.  1.
         24    2    1    2    0    0 -0.36913264506E+03 -0.46650231034E+03  0.10522695039E+04  0.12114970517E+04  0.81059744693E+02 0.  0.
        254    2    1    2    0    0  0.36913264506E+03  0.46650231034E+03 -0.99878585715E+00  0.10760829398E+04  0.89669960445E+03 0.  0.
         23    2    4    4    0    0  0.62906682615E+03  0.14622779744E+03 -0.30882888383E+02  0.65295699729E+03  0.91057383097E+02 0.  0.
         23    2    4    4    0    0 -0.25993418109E+03  0.32027451290E+03  0.29884102526E+02  0.42312594254E+03  0.89448094166E+02 0.  0.
          4    1    3    3  502    0 -0.29527842946E+03 -0.36044403209E+03  0.88445184835E+03  0.99968211108E+03  0.00000000000E+00 0. -1.
         -3    1    3    3    0  502 -0.73854215597E+02 -0.10605827826E+03  0.16781765553E+03  0.21181494058E+03  0.00000000000E+00 0.  1.
         13    1    5    5    0    0  0.58369123300E+03  0.11126407750E+03 -0.19303030567E+02  0.59451472430E+03  0.00000000000E+00 0. -1.
        -13    1    5    5    0    0  0.45375593148E+02  0.34963719937E+02 -0.11579857816E+02  0.58442272992E+02  0.00000000000E+00 0.  1.
          3    1    6    6  503    0 -0.20382024790E+03  0.29349083111E+03  0.86687093189E+01  0.35742790591E+03  0.00000000000E+00 0. -1.
         -3    1    6    6    0  503 -0.56113933187E+02  0.26783681796E+02  0.21215393207E+02  0.65698036631E+02  0.00000000000E+00 0.  1.
<mgrwt>
<rscale>  0 0.20317116E+04</rscale>
<asrwt>0</asrwt>
<pdfrwt beam="1">  1        2 0.25683467E+00 0.20317116E+04</pdfrwt>
<pdfrwt beam="2">  1       -1 0.95100714E-01 0.20317116E+04</pdfrwt>
<totfact> 0.11498939E+01</totfact>
</mgrwt>
</event>
<event>
12    7  0.1637954E-007  0.2166243E+04  0.7818608E-02  0.8532611E-01
         -1   -1    0    0    0  501 -0.00000000000E+00  0.00000000000E+00  0.59249411610E+03  0.59249411610E+03  0.00000000000E+00 0.  1.
          2   -1    0    0  501    0  0.00000000000E+00 -0.00000000000E+00 -0.19800233322E+04  0.19800233322E+04  0.00000000000E+00 0. -1.
         24    2    1    2    0    0  0.26847784168E+03  0.17914075502E+03  0.41540623322E+03  0.53214401192E+03  0.80269229725E+02 0.  0.
        254    2    1    2    0    0 -0.26847784168E+03 -0.17914075502E+03 -0.18029354493E+04  0.20403734364E+04  0.89909719377E+03 0.  0.
         23    2    4    4    0    0 -0.16933681451E+03 -0.52256046059E+03 -0.82472741096E+03  0.99496259931E+03  0.89615176859E+02 0.  0.
         23    2    4    4    0    0 -0.99141027174E+02  0.34341970557E+03 -0.97820803834E+03  0.10454108370E+04  0.90701788776E+02 0.  0.
          2    1    3    3  502    0  0.46230759841E+01 -0.77094247919E+01  0.79785813845E+01  0.12019393624E+02  0.00000000000E+00 0. -1.
         -1    1    3    3    0  502  0.26385476570E+03  0.18685017981E+03  0.40742765184E+03  0.52012461830E+03  0.00000000000E+00 0.  1.
         13    1    5    5    0    0 -0.61703375962E+02 -0.83509259868E+02 -0.17401622329E+03  0.20263945583E+03  0.00000000000E+00 0. -1.
        -13    1    5    5    0    0 -0.10763343855E+03 -0.43905120072E+03 -0.65071118767E+03  0.79232314348E+03  0.00000000000E+00 0.  1.
          3    1    6    6  503    0  0.33195289039E+01  0.13576497721E+03 -0.31850219144E+03  0.34624672455E+03  0.00000000000E+00 0. -1.
         -3    1    6    6    0  503 -0.10246055608E+03  0.20765472835E+03 -0.65970584690E+03  0.69916411249E+03  0.00000000000E+00 0.  1.
<mgrwt>
<rscale>  0 0.21662430E+04</rscale>
<asrwt>0</asrwt>
<pdfrwt beam="1">  1        2 0.30461898E+00 0.21662430E+04</pdfrwt>
<pdfrwt beam="2">  1       -1 0.91152940E-01 0.21662430E+04</pdfrwt>
<totfact> 0.83980407E+00</totfact>
</mgrwt>
</event>
<event>
12    7  0.1637954E-007  0.1864802E+04  0.7818608E-02  0.8672578E-01
         -1   -1    0    0    0  501 -0.00000000000E+00  0.00000000000E+00  0.61177536222E+03  0.61177536222E+03  0.00000000000E+00 0.  1.
          2   -1    0    0  501    0  0.00000000000E+00 -0.00000000000E+00 -0.14210637346E+04  0.14210637346E+04  0.00000000000E+00 0. -1.
         24    2    1    2    0    0 -0.10640360844E+03  0.44207483920E+03  0.28234107993E+03  0.54165639806E+03  0.83206230532E+02 0.  0.
        254    2    1    2    0    0  0.10640360844E+03 -0.44207483920E+03 -0.10916294523E+04  0.14911826988E+04  0.90841570252E+03 0.  0.
         23    2    4    4    0    0  0.11004771725E+02  0.19073068111E+03 -0.71060539794E+03  0.74145061397E+03  0.91047699871E+02 0.  0.
         23    2    4    4    0    0  0.95398836713E+02 -0.63280552031E+03 -0.38102405437E+03  0.74973208479E+03  0.85878427897E+02 0.  0.
          2    1    3    3  502    0 -0.39266001094E+02  0.71201601863E+02  0.24224460854E+02  0.84842863303E+02  0.00000000000E+00 0. -1.
         -1    1    3    3    0  502 -0.67137607344E+02  0.37087323734E+03  0.25811661907E+03  0.45681353476E+03  0.00000000000E+00 0.  1.
         13    1    5    5    0    0 -0.31209661912E+01  0.23590853979E+02 -0.25221020466E+03  0.25333033012E+03  0.00000000000E+00 0.  1.
        -13    1    5    5    0    0  0.14125737916E+02  0.16713982713E+03 -0.45839519328E+03  0.48812028385E+03  0.00000000000E+00 0. -1.
          4    1    6    6  503    0 -0.10044046989E+02 -0.19215152134E+03 -0.12182324322E+03  0.22773667387E+03  0.00000000000E+00 0. -1.
         -4    1    6    6    0  503  0.10544288370E+03 -0.44065399897E+03 -0.25920081115E+03  0.52199541093E+03  0.00000000000E+00 0.  1.
<mgrwt>
<rscale>  0 0.18648022E+04</rscale>
<asrwt>0</asrwt>
<pdfrwt beam="1">  1        2 0.21862519E+00 0.18648022E+04</pdfrwt>
<pdfrwt beam="2">  1       -1 0.94119288E-01 0.18648022E+04</pdfrwt>
<totfact> 0.16472050E+01</totfact>
</mgrwt>
</event>
<event>
12    7  0.1637954E-007  0.1952016E+04  0.7818608E-02  0.8629389E-01
          2   -1    0    0  501    0  0.00000000000E+00  0.00000000000E+00  0.15787398075E+04  0.15787398075E+04  0.00000000000E+00 0. -1.
         -1   -1    0    0    0  501 -0.00000000000E+00 -0.00000000000E+00 -0.60338712572E+03  0.60338712572E+03  0.00000000000E+00 0.  1.
         24    2    1    2    0    0 -0.34192442872E+03 -0.38779392153E+03  0.10600151183E+04  0.11821588737E+04  0.81062390259E+02 0.  0.
        254    2    1    2    0    0  0.34192442872E+03  0.38779392153E+03 -0.84662436515E+02  0.99996805952E+03  0.85174641260E+03 0.  0.
         23    2    4    4    0    0  0.34248611263E+03 -0.97043403855E+02 -0.28769937989E+03  0.46656245042E+03  0.90528599794E+02 0.  0.
         23    2    4    4    0    0 -0.56168391392E+00  0.48483732538E+03  0.20303694337E+03  0.53340560909E+03  0.90719324650E+02 0.  0.
          4    1    3    3  502    0 -0.29330394055E+03 -0.36319082874E+03  0.97779577756E+03  0.10835217405E+04  0.00000000000E+00 0. -1.
         -3    1    3    3    0  502 -0.48620488168E+02 -0.24603092787E+02  0.82219340699E+02  0.98637133116E+02  0.00000000000E+00 0.  1.
         13    1    5    5    0    0  0.22682154430E+03 -0.35696122009E+02 -0.22470182807E+03  0.32126801525E+03  0.00000000000E+00 0.  1.
        -13    1    5    5    0    0  0.11566456833E+03 -0.61347281847E+02 -0.62997551817E+02  0.14529443517E+03  0.00000000000E+00 0. -1.
          4    1    6    6  503    0 -0.48475281437E+01  0.29442260867E+03  0.74860977049E+02  0.30382945366E+03  0.00000000000E+00 0. -1.
         -4    1    6    6    0  503  0.42858442298E+01  0.19041471671E+03  0.12817596632E+03  0.22957615544E+03  0.00000000000E+00 0.  1.
<mgrwt>
<rscale>  0 0.19520157E+04</rscale>
<asrwt>0</asrwt>
<pdfrwt beam="1">  1        2 0.24288305E+00 0.19520157E+04</pdfrwt>
<pdfrwt beam="2">  1       -1 0.92828789E-01 0.19520157E+04</pdfrwt>
<totfact> 0.13733657E+01</totfact>
</mgrwt>
</event>
<event>
12    7  0.1637954E-007  0.1323825E+04  0.7818608E-02  0.9010882E-01
         -1   -1    0    0    0  501 -0.00000000000E+00  0.00000000000E+00  0.73926812945E+03  0.73926812945E+03  0.00000000000E+00 0.  1.
          2   -1    0    0  501    0  0.00000000000E+00 -0.00000000000E+00 -0.59265156318E+03  0.59265156318E+03  0.00000000000E+00 0. -1.
         24    2    1    2    0    0  0.79876907603E+02  0.24345740376E+03  0.27097550050E+03  0.38148573600E+03  0.80323203906E+02 0.  0.
        254    2    1    2    0    0 -0.79876907603E+02 -0.24345740376E+03 -0.12435893423E+03  0.95043395662E+03  0.90675671134E+03 0.  0.
         23    2    4    4    0    0  0.14880875439E+03 -0.48148486408E+03 -0.26809805280E+03  0.57807073651E+03  0.91200278350E+02 0.  0.
         23    2    4    4    0    0 -0.22868566200E+03  0.23802746032E+03  0.14373911857E+03  0.37236322011E+03  0.95074863237E+02 0.  0.
          4    1    3    3  502    0 -0.62084931651E+01  0.52368840859E+01 -0.27206652823E+01  0.85657668594E+01  0.00000000000E+00 0. -1.
         -3    1    3    3    0  502  0.86085400769E+02  0.23822051968E+03  0.27369616578E+03  0.37291996914E+03  0.00000000000E+00 0.  1.
         13    1    5    5    0    0  0.10080166071E+03 -0.42966637513E+03 -0.23619214241E+03  0.50056058261E+03  0.00000000000E+00 0. -1.
        -13    1    5    5    0    0  0.48007093680E+02 -0.51818488947E+02 -0.31905910390E+02  0.77510153904E+02  0.00000000000E+00 0.  1.
          2    1    6    6  503    0 -0.19129059285E+03  0.14996227374E+03  0.74378934486E+02  0.25419087386E+03  0.00000000000E+00 0. -1.
         -2    1    6    6    0  503 -0.37395069144E+02  0.88065186577E+02  0.69360184080E+02  0.11817234625E+03  0.00000000000E+00 0.  1.
<mgrwt>
<rscale>  0 0.13238254E+04</rscale>
<asrwt>0</asrwt>
<pdfrwt beam="1">  1        2 0.91177163E-01 0.13238254E+04</pdfrwt>
<pdfrwt beam="2">  1       -1 0.11373356E+00 0.13238254E+04</pdfrwt>
<totfact> 0.39702113E+01</totfact>
</mgrwt>
</event>
<event>
12    7  0.1637954E-007  0.2065464E+04  0.7818608E-02  0.8576611E-01
         -1   -1    0    0    0  501 -0.00000000000E+00  0.00000000000E+00  0.84057506884E+03  0.84057506884E+03  0.00000000000E+00 0.  1.
          2   -1    0    0  501    0  0.00000000000E+00 -0.00000000000E+00 -0.12688164625E+04  0.12688164625E+04  0.00000000000E+00 0. -1.
         24    2    1    2    0    0  0.53573849012E+03  0.10685013853E+02  0.47923261139E+03  0.72305973740E+03  0.77598896399E+02 0.  0.
        254    2    1    2    0    0 -0.53573849012E+03 -0.10685013853E+02 -0.90747400500E+03  0.13863317939E+04  0.90070909494E+03 0.  0.
         23    2    4    4    0    0 -0.38448773367E+03 -0.35126691096E+03 -0.17038926766E+03  0.55551448592E+03  0.91348680665E+02 0.  0.
         23    2    4    4    0    0 -0.15125075645E+03  0.34058189711E+03 -0.73708473734E+03  0.83081730797E+03  0.89948147570E+02 0.  0.
          2    1    3    3  502    0  0.14271023912E+02 -0.82760268239E+01  0.31206395459E+02  0.35298638232E+02  0.00000000000E+00 0. -1.
         -1    1    3    3    0  502  0.52146746620E+03  0.18961040677E+02  0.44802621593E+03  0.68776109917E+03  0.00000000000E+00 0.  1.
         13    1    5    5    0    0 -0.11873144924E+03 -0.16498847579E+03 -0.81708458517E+02  0.21907675909E+03  0.00000000000E+00 0. -1.
        -13    1    5    5    0    0 -0.26575628443E+03 -0.18627843517E+03 -0.88680809145E+02  0.33643772683E+03  0.00000000000E+00 0.  1.
          3    1    6    6  503    0 -0.14498636172E+03  0.33416701335E+03 -0.66546459138E+03  0.75863809572E+03  0.00000000000E+00 0. -1.
         -3    1    6    6    0  503 -0.62643947255E+01  0.64148837599E+01 -0.71620145958E+02  0.72179212257E+02  0.00000000000E+00 0.  1.
<mgrwt>
<rscale>  0 0.20654641E+04</rscale>
<asrwt>0</asrwt>
<pdfrwt beam="1">  1        2 0.19520253E+00 0.20654641E+04</pdfrwt>
<pdfrwt beam="2">  1       -1 0.12931924E+00 0.20654641E+04</pdfrwt>
<totfact> 0.93351959E+00</totfact>
</mgrwt>
</event>
<event>
12    7  0.1637954E-007  0.1308013E+04  0.7818608E-02  0.9023235E-01
         -1   -1    0    0    0  501 -0.00000000000E+00  0.00000000000E+00  0.90751027286E+03  0.90751027286E+03  0.00000000000E+00 0.  1.
          2   -1    0    0  501    0  0.00000000000E+00 -0.00000000000E+00 -0.47131666188E+03  0.47131666188E+03  0.00000000000E+00 0. -1.
         24    2    1    2    0    0 -0.33012644339E+03 -0.27665957600E+02  0.16677103120E+03  0.37979382733E+03  0.81742893258E+02 0.  0.
        254    2    1    2    0    0  0.33012644339E+03  0.27665957600E+02  0.26942257977E+03  0.99903310740E+03  0.90317758462E+03 0.  0.
         23    2    4    4    0    0  0.20630853017E+03  0.44926357228E+03  0.20666845333E+03  0.54388425178E+03  0.93259116093E+02 0.  0.
         23    2    4    4    0    0  0.12381791321E+03 -0.42159761468E+03  0.62754126439E+02  0.45514885562E+03  0.10073219965E+03 0.  0.
          4    1    3    3  502    0 -0.98475674327E+02 -0.15002370301E+02  0.10697919167E+02  0.10018470454E+03  0.00000000000E+00 0. -1.
         -3    1    3    3    0  502 -0.23165076906E+03 -0.12663587298E+02  0.15607311204E+03  0.27960912280E+03  0.00000000000E+00 0.  1.
         13    1    5    5    0    0  0.16171093651E+03  0.24227149533E+03  0.11540337659E+03  0.31331109742E+03  0.00000000000E+00 0.  1.
        -13    1    5    5    0    0  0.44597593659E+02  0.20699207695E+03  0.91265076745E+02  0.23057315436E+03  0.00000000000E+00 0. -1.
          3    1    6    6  503    0  0.35117208871E+02 -0.49610119929E+02  0.38531777877E+02  0.71965827062E+02  0.00000000000E+00 0. -1.
         -3    1    6    6    0  503  0.88700704344E+02 -0.37198749475E+03  0.24222348562E+02  0.38318302856E+03  0.00000000000E+00 0.  1.
<mgrwt>
<rscale>  0 0.13080133E+04</rscale>
<asrwt>0</asrwt>
<pdfrwt beam="1">  1        2 0.72510256E-01 0.13080133E+04</pdfrwt>
<pdfrwt beam="2">  1       -1 0.13961697E+00 0.13080133E+04</pdfrwt>
<totfact> 0.31199547E+01</totfact>
</mgrwt>
</event>
<event>
12    7  0.1637954E-007  0.2154079E+04  0.7818608E-02  0.8537788E-01
         -1   -1    0    0    0  501 -0.00000000000E+00  0.00000000000E+00  0.37799421851E+03  0.37799421851E+03  0.00000000000E+00 0.  1.
          2   -1    0    0  501    0  0.00000000000E+00 -0.00000000000E+00 -0.30688668165E+04  0.30688668165E+04  0.00000000000E+00 0. -1.
         24    2    1    2    0    0  0.13219432776E+03 -0.42853084165E+03  0.11230749423E+03  0.46954847963E+03  0.82150952104E+02 0.  0.
        254    2    1    2    0    0 -0.13219432776E+03  0.42853084165E+03 -0.28031800922E+04  0.29773125553E+04  0.89747278538E+03 0.  0.
         23    2    4    4    0    0  0.31242689369E+03 -0.18182195412E+01 -0.54605056955E+03  0.63514787164E+03  0.87336845117E+02 0.  0.
         23    2    4    4    0    0 -0.44462122144E+03  0.43034906119E+03 -0.22571295226E+04  0.23421646837E+04  0.90627692670E+02 0.  0.
          4    1    3    3  502    0  0.20990556615E+02 -0.26997532446E+02  0.28588018974E+02  0.44572918393E+02  0.00000000000E+00 0. -1.
         -3    1    3    3    0  502  0.11120377114E+03 -0.40153330920E+03  0.83719475253E+02  0.42497556124E+03  0.00000000000E+00 0.  1.
         13    1    5    5    0    0  0.25689693599E+03 -0.32087028822E+02 -0.40659831119E+03  0.48202468796E+03  0.00000000000E+00 0.  1.
        -13    1    5    5    0    0  0.55529957694E+02  0.30268809280E+02 -0.13945225836E+03  0.15312318367E+03  0.00000000000E+00 0. -1.
          1    1    6    6  503    0 -0.25643883536E+03  0.18606277051E+03 -0.11726057417E+04  0.12146540480E+04  0.00000000000E+00 0. -1.
         -1    1    6    6    0  503 -0.18818238608E+03  0.24428629068E+03 -0.10845237810E+04  0.11275106358E+04  0.00000000000E+00 0.  1.
<mgrwt>
<rscale>  0 0.21540788E+04</rscale>
<asrwt>0</asrwt>
<pdfrwt beam="1">  1        2 0.47213334E+00 0.21540788E+04</pdfrwt>
<pdfrwt beam="2">  1       -1 0.58152959E-01 0.21540788E+04</pdfrwt>
<totfact> 0.49359656E+00</totfact>
</mgrwt>
</event>
<event>
12    7  0.1637954E-007  0.1361392E+04  0.7818608E-02  0.8982249E-01
          4   -1    0    0  501    0  0.00000000000E+00  0.00000000000E+00  0.10549463953E+04  0.10549463953E+04  0.00000000000E+00 0. -1.
         -3   -1    0    0    0  501 -0.00000000000E+00 -0.00000000000E+00 -0.43921389053E+03  0.43921389053E+03  0.00000000000E+00 0.  1.
         24    2    1    2    0    0 -0.31576126896E+03  0.54585101031E+02  0.39755074429E+03  0.51665175816E+03  0.78725680001E+02 0.  0.
        254    2    1    2    0    0  0.31576126896E+03 -0.54585101031E+02  0.21818176044E+03  0.97750852763E+03  0.89734883338E+03 0.  0.
         23    2    4    4    0    0 -0.13455856780E+02  0.18299280306E+03  0.45445203403E+03  0.49877852931E+03  0.92660369154E+02 0.  0.
         23    2    4    4    0    0  0.32921712574E+03 -0.23757790409E+03 -0.23627027359E+03  0.47872999832E+03  0.92366621275E+02 0.  0.
          4    1    3    3  502    0 -0.26916089032E+03  0.46418953666E+02  0.28594521498E+03  0.39543263662E+03  0.00000000000E+00 0. -1.
         -3    1    3    3    0  502 -0.46600378635E+02  0.81661473646E+01  0.11160552932E+03  0.12121912153E+03  0.00000000000E+00 0.  1.
         13    1    5    5    0    0  0.76950021574E+01  0.17468526775E+03  0.43513852942E+03  0.46895596341E+03  0.00000000000E+00 0. -1.
        -13    1    5    5    0    0 -0.21150858938E+02  0.83075353039E+01  0.19313504610E+02  0.29822565902E+02  0.00000000000E+00 0.  1.
          3    1    6    6  503    0  0.11147939280E+03 -0.31534783597E+02 -0.53267639157E+02  0.12751289730E+03  0.00000000000E+00 0.  1.
         -3    1    6    6    0  503  0.21773773293E+03 -0.20604312049E+03 -0.18300263443E+03  0.35121710103E+03  0.00000000000E+00 0. -1.
<mgrwt>
<rscale>  0 0.13613921E+04</rscale>
<asrwt>0</asrwt>
<pdfrwt beam="1">  1        4 0.16229944E+00 0.13613921E+04</pdfrwt>
<pdfrwt beam="2">  1       -3 0.67571368E-01 0.13613921E+04</pdfrwt>
<totfact> 0.11303665E+00</totfact>
</mgrwt>
</event>
<event>
12    7  0.1637954E-007  0.4403921E+04  0.7818608E-02  0.7927677E-01
          2   -1    0    0  501    0  0.00000000000E+00  0.00000000000E+00  0.27214046909E+04  0.27214046909E+04  0.00000000000E+00 0. -1.
         -1   -1    0    0    0  501 -0.00000000000E+00 -0.00000000000E+00 -0.17816642870E+04  0.17816642870E+04  0.00000000000E+00 0.  1.
         24    2    1    2    0    0 -0.11903635926E+04  0.15599621753E+04  0.12380082346E+04  0.23215208261E+04  0.79668603678E+02 0.  0.
        254    2    1    2    0    0  0.11903635926E+04 -0.15599621753E+04 -0.29826783072E+03  0.21815481517E+04  0.90539558686E+03 0.  0.
         23    2    4    4    0    0 -0.52375223338E+02 -0.22787017230E+03  0.16325752526E+03  0.29983242319E+03  0.92620100389E+02 0.  0.
         23    2    4    4    0    0  0.12427388159E+04 -0.13320920029E+04 -0.46152535597E+03  0.18817157285E+04  0.94760539786E+02 0.  0.
          4    1    3    3  502    0 -0.42178223926E+03  0.61594096261E+03  0.46462509235E+03  0.87929517411E+03  0.00000000000E+00 0. -1.
         -3    1    3    3    0  502 -0.76858135334E+03  0.94402121264E+03  0.77338314227E+03  0.14422256520E+04  0.00000000000E+00 0.  1.
         13    1    5    5    0    0 -0.32744489718E+02 -0.21648198766E+03  0.16881256432E+03  0.27646760111E+03  0.00000000000E+00 0. -1.
        -13    1    5    5    0    0 -0.19630733619E+02 -0.11388184641E+02 -0.55550390640E+01  0.23364822080E+02  0.00000000000E+00 0.  1.
          3    1    6    6  503    0  0.91213822129E+03 -0.99506402475E+03 -0.38272765605E+03  0.14030784037E+04  0.00000000000E+00 0. -1.
         -3    1    6    6    0  503  0.33060059465E+03 -0.33702797820E+03 -0.78797699925E+02  0.47863732490E+03  0.00000000000E+00 0.  1.
<mgrwt>
<rscale>  0 0.44039208E+04</rscale>
<asrwt>0</asrwt>
<pdfrwt beam="1">  1        2 0.41867765E+00 0.44039208E+04</pdfrwt>
<pdfrwt beam="2">  1       -1 0.27410220E+00 0.44039208E+04</pdfrwt>
<totfact> 0.10873786E-01</totfact>
</mgrwt>
</event>
<event>
12    7  0.1637954E-007  0.2616340E+04  0.7818608E-02  0.8362672E-01
         -1   -1    0    0    0  501 -0.00000000000E+00  0.00000000000E+00  0.22109969145E+04  0.22109969145E+04  0.00000000000E+00 0.  1.
          2   -1    0    0  501    0  0.00000000000E+00 -0.00000000000E+00 -0.77399871682E+03  0.77399871682E+03  0.00000000000E+00 0. -1.
         24    2    1    2    0    0 -0.32110031342E+03  0.14748136136E+03 -0.61621373534E+03  0.71475313346E+03  0.79350557351E+02 0.  0.
        254    2    1    2    0    0  0.32110031342E+03 -0.14748136136E+03  0.20532119330E+04  0.22702424978E+04  0.90192327496E+03 0.  0.
         23    2    4    4    0    0  0.62323529441E+03 -0.11382809541E+03  0.15297148056E+04  0.16582941591E+04  0.92374586011E+02 0.  0.
         23    2    4    4    0    0 -0.30213498099E+03 -0.33653265946E+02  0.52349712736E+03  0.61194833869E+03  0.89517807330E+02 0.  0.
          2    1    3    3  502    0 -0.24335152500E+03  0.14312404788E+03 -0.51174921409E+03  0.58445848093E+03  0.00000000000E+00 0. -1.
         -1    1    3    3    0  502 -0.77748788417E+02  0.43573134810E+01 -0.10446452124E+03  0.13029465254E+03  0.00000000000E+00 0.  1.
         13    1    5    5    0    0  0.34715610647E+03 -0.40229508418E+02  0.94377774749E+03  0.10064055903E+04  0.00000000000E+00 0.  1.
        -13    1    5    5    0    0  0.27607918793E+03 -0.73598586995E+02  0.58593705813E+03  0.65188856878E+03  0.00000000000E+00 0. -1.
          1    1    6    6  503    0 -0.19079496623E+03 -0.12589196264E+02  0.40567295933E+03  0.44847715319E+03  0.00000000000E+00 0. -1.
         -1    1    6    6    0  503 -0.11134001476E+03 -0.21064069682E+02  0.11782416803E+03  0.16347118550E+03  0.00000000000E+00 0.  1.
<mgrwt>
<rscale>  0 0.26163400E+04</rscale>
<asrwt>0</asrwt>
<pdfrwt beam="1">  1        2 0.11907673E+00 0.26163400E+04</pdfrwt>
<pdfrwt beam="2">  1       -1 0.34015337E+00 0.26163400E+04</pdfrwt>
<totfact> 0.65452696E-01</totfact>
</mgrwt>
</event>
<event>
12    7  0.1637954E-007  0.1168532E+04  0.7818608E-02  0.9140856E-01
         -1   -1    0    0    0  501 -0.00000000000E+00  0.00000000000E+00  0.30679105982E+03  0.30679105982E+03  0.00000000000E+00 0.  1.
          2   -1    0    0  501    0  0.00000000000E+00 -0.00000000000E+00 -0.11127004084E+04  0.11127004084E+04  0.00000000000E+00 0. -1.
         24    2    1    2    0    0  0.10370365013E+03  0.19820430742E+03  0.56423133371E+01  0.23750299087E+03  0.79601761558E+02 0.  0.
        254    2    1    2    0    0 -0.10370365013E+03 -0.19820430742E+03 -0.81155166195E+03  0.11819884774E+04  0.82972360827E+03 0.  0.
         23    2    4    4    0    0  0.25089040562E+03 -0.17707862318E+03 -0.74223279765E+03  0.80889081522E+03  0.95351930336E+02 0.  0.
         23    2    4    4    0    0 -0.35459405575E+03 -0.21125684239E+02 -0.69318864297E+02  0.37309766216E+03  0.90628481485E+02 0.  0.
          2    1    3    3  502    0  0.39077474327E+02  0.41757601236E+02 -0.29911158705E+02  0.64540093553E+02  0.00000000000E+00 0. -1.
         -1    1    3    3    0  502  0.64626175802E+02  0.15644670618E+03  0.35553472042E+02  0.17296289732E+03  0.00000000000E+00 0.  1.
         13    1    5    5    0    0 -0.74988499220E+01 -0.13982924220E+02 -0.41829020971E+02  0.44737254221E+02  0.00000000000E+00 0.  1.
        -13    1    5    5    0    0  0.25838925554E+03 -0.16309569896E+03 -0.70040377668E+03  0.76415356100E+03  0.00000000000E+00 0. -1.
          1    1    6    6  503    0 -0.34867615423E+03 -0.18638367709E+02 -0.49994398896E+02  0.35273487098E+03  0.00000000000E+00 0. -1.
         -1    1    6    6    0  503 -0.59179015172E+01 -0.24873165297E+01 -0.19324465401E+02  0.20362791187E+02  0.00000000000E+00 0.  1.
<mgrwt>
<rscale>  0 0.11685316E+04</rscale>
<asrwt>0</asrwt>
<pdfrwt beam="1">  1        2 0.17118468E+00 0.11685316E+04</pdfrwt>
<pdfrwt beam="2">  1       -1 0.47198624E-01 0.11685316E+04</pdfrwt>
<totfact> 0.10796560E+02</totfact>
</mgrwt>
</event>
<event>
12    7  0.1637954E-007  0.2969439E+04  0.7818608E-02  0.8252512E-01
          2   -1    0    0  501    0  0.00000000000E+00  0.00000000000E+00  0.14231406666E+04  0.14231406666E+04  0.00000000000E+00 0. -1.
         -1   -1    0    0    0  501 -0.00000000000E+00 -0.00000000000E+00 -0.15489623820E+04  0.15489623820E+04  0.00000000000E+00 0.  1.
         24    2    1    2    0    0  0.11329059616E+04  0.59711550173E+03  0.36481127921E+03  0.13339929929E+04  0.80169790784E+02 0.  0.
        254    2    1    2    0    0 -0.11329059616E+04 -0.59711550173E+03 -0.49063299461E+03  0.16381100556E+04  0.89591348836E+03 0.  0.
         23    2    4    4    0    0 -0.12451671841E+04 -0.46930673326E+03 -0.53853672357E+03  0.14384877739E+04  0.92385858471E+02 0.  0.
         23    2    4    4    0    0  0.11226122249E+03 -0.12780876846E+03  0.47903728954E+02  0.19962228169E+03  0.92825776202E+02 0.  0.
          4    1    3    3  502    0  0.15513211955E+03  0.68180713600E+02  0.74040821642E+02  0.18492330165E+03  0.00000000000E+00 0. -1.
         -3    1    3    3    0  502  0.97777384210E+03  0.52893478813E+03  0.29077045757E+03  0.11490696913E+04  0.00000000000E+00 0.  1.
         13    1    5    5    0    0 -0.41647740396E+03 -0.11542617592E+03 -0.15425559721E+03  0.45888061559E+03  0.00000000000E+00 0.  1.
        -13    1    5    5    0    0 -0.82868978017E+03 -0.35388055735E+03 -0.38428112635E+03  0.97960715835E+03  0.00000000000E+00 0. -1.
          3    1    6    6  503    0  0.19259736169E+01  0.63268567318E+01  0.23280011848E+02  0.24201186792E+02  0.00000000000E+00 0. -1.
         -3    1    6    6    0  503  0.11033524887E+03 -0.13413562520E+03  0.24623717106E+02  0.17542109489E+03  0.00000000000E+00 0.  1.
<mgrwt>
<rscale>  0 0.29694386E+04</rscale>
<asrwt>0</asrwt>
<pdfrwt beam="1">  1        2 0.21894472E+00 0.29694386E+04</pdfrwt>
<pdfrwt beam="2">  1       -1 0.23830190E+00 0.29694386E+04</pdfrwt>
<totfact> 0.11411230E+00</totfact>
</mgrwt>
</event>
<event>
12    7  0.1783732E-007  0.1593387E+04  0.7818608E-02  0.8824621E-01
         -3   -1    0    0    0  501 -0.00000000000E+00  0.00000000000E+00  0.19433719325E+03  0.19433719325E+03  0.00000000000E+00 0.  1.
          4   -1    0    0  501    0  0.00000000000E+00 -0.00000000000E+00 -0.32660776216E+04  0.32660776216E+04  0.00000000000E+00 0. -1.
         24    2    1    2    0    0  0.17851086859E+03  0.10493139732E+03  0.28220837539E+02  0.22135293957E+03  0.72965607220E+02 0.  0.
        254    2    1    2    0    0 -0.17851086859E+03 -0.10493139732E+03 -0.30999612659E+04  0.32390618753E+04  0.91590679300E+03 0.  0.
         23    2    4    4    0    0  0.30874191990E+03 -0.16046664828E+03 -0.19887479999E+04  0.20211298774E+04  0.93681673893E+02 0.  0.
         23    2    4    4    0    0 -0.48725278850E+03  0.55535250954E+02 -0.11112132660E+04  0.12179319979E+04  0.89799692983E+02 0.  0.
          4    1    3    3  502    0  0.54250943269E+01  0.77489528021E+01 -0.15438709178E+02  0.18106122144E+02  0.00000000000E+00 0. -1.
         -3    1    3    3    0  502  0.17308577426E+03  0.97182444521E+02  0.43659546718E+02  0.20324681743E+03  0.00000000000E+00 0.  1.
         13    1    5    5    0    0  0.43261776714E+02 -0.26851023583E+00 -0.40577895721E+03  0.40807868792E+03  0.00000000000E+00 0. -1.
        -13    1    5    5    0    0  0.26548014319E+03 -0.16019813804E+03 -0.15829690427E+04  0.16130511895E+04  0.00000000000E+00 0.  1.
          2    1    6    6  503    0 -0.61391218603E+02 -0.37460883749E+01 -0.81894236845E+02  0.10241865518E+03  0.00000000000E+00 0. -1.
         -2    1    6    6    0  503 -0.42586156989E+03  0.59281339329E+02 -0.10293190292E+04  0.11155133427E+04  0.00000000000E+00 0.  1.
<mgrwt>
<rscale>  0 0.15933868E+04</rscale>
<asrwt>0</asrwt>
<pdfrwt beam="1">  1        4 0.50247351E+00 0.15933868E+04</pdfrwt>
<pdfrwt beam="2">  1       -3 0.29898028E-01 0.15933868E+04</pdfrwt>
<totfact> 0.28180062E-02</totfact>
</mgrwt>
</event>
<event>
12    7  0.1637954E-007  0.1956300E+04  0.7818608E-02  0.8627329E-01
          2   -1    0    0  501    0  0.00000000000E+00  0.00000000000E+00  0.24452408244E+04  0.24452408244E+04  0.00000000000E+00 0. -1.
         -1   -1    0    0    0  501 -0.00000000000E+00 -0.00000000000E+00 -0.39128165361E+03  0.39128165361E+03  0.00000000000E+00 0.  1.
         24    2    1    2    0    0 -0.12650371627E+03  0.11362824982E+03  0.18950120937E+04  0.19042765574E+04  0.79270438069E+02 0.  0.
        254    2    1    2    0    0  0.12650371627E+03 -0.11362824982E+03  0.15894707711E+03  0.93224592063E+03  0.90272017471E+03 0.  0.
         23    2    4    4    0    0 -0.22425917147E+03  0.28786627806E+03  0.88503698979E+02  0.38665465285E+03  0.92248283457E+02 0.  0.
         23    2    4    4    0    0  0.35076288774E+03 -0.40149452789E+03  0.70443378127E+02  0.54559126779E+03  0.92060320574E+02 0.  0.
          2    1    3    3  502    0 -0.12347158807E+03  0.12478022536E+03  0.17392645086E+04  0.17481007890E+04  0.00000000000E+00 0. -1.
         -1    1    3    3    0  502 -0.30321281995E+01 -0.11151975535E+02  0.15574758514E+03  0.15617576840E+03  0.00000000000E+00 0.  1.
         13    1    5    5    0    0 -0.21465467206E+03  0.29386059509E+03  0.90879811629E+02  0.37508641370E+03  0.00000000000E+00 0.  1.
        -13    1    5    5    0    0 -0.96044994125E+01 -0.59943170261E+01 -0.23761126504E+01  0.11568239144E+02  0.00000000000E+00 0. -1.
          4    1    6    6  503    0  0.27286179213E+03 -0.35742954841E+03  0.75396473840E+02  0.45595401956E+03  0.00000000000E+00 0.  1.
         -4    1    6    6    0  503  0.77901095609E+02 -0.44064979478E+02 -0.49530957124E+01  0.89637248232E+02  0.00000000000E+00 0. -1.
<mgrwt>
<rscale>  0 0.19563005E+04</rscale>
<asrwt>0</asrwt>
<pdfrwt beam="1">  1        2 0.37619089E+00 0.19563005E+04</pdfrwt>
<pdfrwt beam="2">  1       -1 0.60197179E-01 0.19563005E+04</pdfrwt>
<totfact> 0.11126860E+01</totfact>
</mgrwt>
</event>
<event>
12    7  0.1637954E-007  0.1383039E+04  0.7818608E-02  0.8966188E-01
         -1   -1    0    0    0  501 -0.00000000000E+00  0.00000000000E+00  0.25709517137E+03  0.25709517137E+03  0.00000000000E+00 0.  1.
          2   -1    0    0  501    0  0.00000000000E+00 -0.00000000000E+00 -0.18600094756E+04  0.18600094756E+04  0.00000000000E+00 0. -1.
         24    2    1    2    0    0  0.13964262468E+03  0.36431099475E+03 -0.47360868538E+03  0.61862599177E+03  0.78551685496E+02 0.  0.
        254    2    1    2    0    0 -0.13964262468E+03 -0.36431099475E+03 -0.11293056188E+04  0.14984786552E+04  0.90436968980E+03 0.  0.
         23    2    4    4    0    0  0.36629844356E+03 -0.54188929082E+02 -0.36808841973E+03  0.52909787046E+03  0.85699953268E+02 0.  0.
         23    2    4    4    0    0 -0.50594106824E+03 -0.31012206567E+03 -0.76121719910E+03  0.96938078474E+03  0.89974560129E+02 0.  0.
          2    1    3    3  502    0  0.90686995104E+01  0.42965976353E+00 -0.24008309681E+02  0.25667583682E+02  0.00000000000E+00 0. -1.
         -1    1    3    3    0  502  0.13057392517E+03  0.36388133498E+03 -0.44960037570E+03  0.59295840808E+03  0.00000000000E+00 0.  1.
         13    1    5    5    0    0  0.26459466666E+03 -0.18089523762E+02 -0.21300639916E+03  0.34016068935E+03  0.00000000000E+00 0. -1.
        -13    1    5    5    0    0  0.10170377690E+03 -0.36099405320E+02 -0.15508202057E+03  0.18893718111E+03  0.00000000000E+00 0.  1.
          4    1    6    6  503    0 -0.72382044348E+02 -0.58192475629E+02 -0.74437104472E+02  0.11902271668E+03  0.00000000000E+00 0.  1.
         -4    1    6    6    0  503 -0.43355902389E+03 -0.25192959004E+03 -0.68678009463E+03  0.85035806806E+03  0.00000000000E+00 0. -1.
<mgrwt>
<rscale>  0 0.13830393E+04</rscale>
<asrwt>0</asrwt>
<pdfrwt beam="1">  1        2 0.28615530E+00 0.13830393E+04</pdfrwt>
<pdfrwt beam="2">  1       -1 0.39553104E-01 0.13830393E+04</pdfrwt>
<totfact> 0.55173172E+01</totfact>
</mgrwt>
</event>
<event>
12    7  0.1637954E-007  0.1755080E+04  0.7818608E-02  0.8730559E-01
         -1   -1    0    0    0  501 -0.00000000000E+00  0.00000000000E+00  0.25897851211E+03  0.25897851211E+03  0.00000000000E+00 0.  1.
          2   -1    0    0  501    0  0.00000000000E+00 -0.00000000000E+00 -0.29735132644E+04  0.29735132644E+04  0.00000000000E+00 0. -1.
         24    2    1    2    0    0 -0.23056242859E+03 -0.60004709571E+03 -0.81159758661E+03  0.10384775829E+04  0.80805302642E+02 0.  0.
        254    2    1    2    0    0  0.23056242859E+03  0.60004709571E+03 -0.19029371657E+04  0.21940141937E+04  0.88278699295E+03 0.  0.
         23    2    4    4    0    0  0.23466431232E+02  0.55238489887E+03 -0.43917654689E+03  0.71206888360E+03  0.92121147135E+02 0.  0.
         23    2    4    4    0    0  0.20709599736E+03  0.47662196845E+02 -0.14637606188E+04  0.14819453101E+04  0.91685962861E+02 0.  0.
          2    1    3    3  502    0 -0.16816763399E+03 -0.49889671059E+03 -0.62431571864E+03  0.81666908690E+03  0.00000000000E+00 0. -1.
         -1    1    3    3    0  502 -0.62394794602E+02 -0.10115038513E+03 -0.18728186797E+03  0.22180849595E+03  0.00000000000E+00 0.  1.
         13    1    5    5    0    0 -0.87375647669E+01  0.13491794744E+03 -0.15681103097E+03  0.20704805484E+03  0.00000000000E+00 0. -1.
        -13    1    5    5    0    0  0.32203995999E+02  0.41746695143E+03 -0.28236551593E+03  0.50502082876E+03  0.00000000000E+00 0.  1.
          4    1    6    6  503    0  0.45882323824E+02  0.25320348245E+02 -0.16748410424E+03  0.17549140391E+03  0.00000000000E+00 0. -1.
         -4    1    6    6    0  503  0.16121367353E+03  0.22341848600E+02 -0.12962765146E+04  0.13064539062E+04  0.00000000000E+00 0.  1.
<mgrwt>
<rscale>  0 0.17550795E+04</rscale>
<asrwt>0</asrwt>
<pdfrwt beam="1">  1        2 0.45746354E+00 0.17550795E+04</pdfrwt>
<pdfrwt beam="2">  1       -1 0.39842851E-01 0.17550795E+04</pdfrwt>
<totfact> 0.12020069E+01</totfact>
</mgrwt>
</event>
<event>
12    7  0.1637954E-007  0.2322743E+04  0.7818608E-02  0.8469007E-01
          2   -1    0    0  501    0  0.00000000000E+00  0.00000000000E+00  0.29656356583E+04  0.29656356583E+04  0.00000000000E+00 0. -1.
         -1   -1    0    0    0  501 -0.00000000000E+00 -0.00000000000E+00 -0.45480434193E+03  0.45480434193E+03  0.00000000000E+00 0.  1.
         24    2    1    2    0    0 -0.56877995785E+03  0.50867506917E+03  0.19844801864E+04  0.21275643721E+04  0.78151014087E+02 0.  0.
        254    2    1    2    0    0  0.56877995785E+03 -0.50867506917E+03  0.52635113001E+03  0.12928756281E+04  0.90123299500E+03 0.  0.
         23    2    4    4    0    0  0.36997628876E+03 -0.94202128626E+02  0.69209741284E+03  0.79566767674E+03  0.91278297911E+02 0.  0.
         23    2    4    4    0    0  0.19880366909E+03 -0.41447294054E+03 -0.16574628283E+03  0.49720795138E+03  0.91832452632E+02 0.  0.
          4    1    3    3  502    0 -0.22570478447E+03  0.23346637789E+03  0.92875945680E+03  0.98389192899E+03  0.00000000000E+00 0. -1.
         -3    1    3    3    0  502 -0.34307517338E+03  0.27520869128E+03  0.10557207296E+04  0.11436724431E+04  0.00000000000E+00 0.  1.
         13    1    5    5    0    0  0.15015888416E+02 -0.83118090197E+01  0.55648795946E+01  0.18042476520E+02  0.00000000000E+00 0. -1.
        -13    1    5    5    0    0  0.35496040034E+03 -0.85890319607E+02  0.68653253325E+03  0.77762520022E+03  0.00000000000E+00 0.  1.
          3    1    6    6  503    0  0.41540541048E+02 -0.16155693180E+03 -0.91547087652E+02  0.19028170700E+03  0.00000000000E+00 0. -1.
         -3    1    6    6    0  503  0.15726312805E+03 -0.25291600874E+03 -0.74199195177E+02  0.30692624438E+03  0.00000000000E+00 0.  1.
<mgrwt>
<rscale>  0 0.23227432E+04</rscale>
<asrwt>0</asrwt>
<pdfrwt beam="1">  1        2 0.45625163E+00 0.23227432E+04</pdfrwt>
<pdfrwt beam="2">  1       -1 0.69969901E-01 0.23227432E+04</pdfrwt>
<totfact> 0.38918257E+00</totfact>
</mgrwt>
</event>
<event>
12    7  0.1637954E-007  0.2482682E+04  0.7818608E-02  0.8409181E-01
         -1   -1    0    0    0  501 -0.00000000000E+00  0.00000000000E+00  0.12340328926E+04  0.12340328926E+04  0.00000000000E+00 0.  1.
          2   -1    0    0  501    0  0.00000000000E+00 -0.00000000000E+00 -0.12486921959E+04  0.12486921959E+04  0.00000000000E+00 0. -1.
         24    2    1    2    0    0  0.70746058467E+03 -0.81460958331E+03  0.67275576977E+02  0.10843009159E+04  0.84221261324E+02 0.  0.
        254    2    1    2    0    0 -0.70746058467E+03  0.81460958331E+03 -0.81934880303E+02  0.13984241726E+04  0.88588237929E+03 0.  0.
         23    2    4    4    0    0 -0.56455082517E+03  0.98995540383E+03 -0.12277846250E+03  0.11498415525E+04  0.91278197138E+02 0.  0.
         23    2    4    4    0    0 -0.14290975951E+03 -0.17534582052E+03  0.40843582193E+02  0.24858262013E+03  0.94634902056E+02 0.  0.
          4    1    3    3  502    0  0.13331828394E+03 -0.13391715981E+03  0.41310568772E+02  0.19342733420E+03  0.00000000000E+00 0. -1.
         -3    1    3    3    0  502  0.57414230074E+03 -0.68069242349E+03  0.25965008205E+02  0.89087358169E+03  0.00000000000E+00 0.  1.
         13    1    5    5    0    0 -0.56539017655E+03  0.97881087746E+03 -0.12783317486E+03  0.11375755387E+04  0.00000000000E+00 0. -1.
        -13    1    5    5    0    0  0.83935138004E+00  0.11144526362E+02  0.50547123669E+01  0.12266013847E+02  0.00000000000E+00 0.  1.
          2    1    6    6  503    0 -0.15254154840E+03 -0.17719496216E+03  0.33214527915E+02  0.23615711606E+03  0.00000000000E+00 0. -1.
         -2    1    6    6    0  503  0.96317888945E+01  0.18491416366E+01  0.76290542781E+01  0.12425504065E+02  0.00000000000E+00 0.  1.
<mgrwt>
<rscale>  0 0.24826818E+04</rscale>
<asrwt>0</asrwt>
<pdfrwt beam="1">  1        2 0.19210649E+00 0.24826818E+04</pdfrwt>
<pdfrwt beam="2">  1       -1 0.18985121E+00 0.24826818E+04</pdfrwt>
<totfact> 0.31945500E+00</totfact>
</mgrwt>
</event>
<event>
12    7  0.1637954E-007  0.1406314E+04  0.7818608E-02  0.8949261E-01
          2   -1    0    0  501    0  0.00000000000E+00  0.00000000000E+00  0.12630431919E+04  0.12630431919E+04  0.00000000000E+00 0. -1.
         -1   -1    0    0    0  501 -0.00000000000E+00 -0.00000000000E+00 -0.39145896307E+03  0.39145896307E+03  0.00000000000E+00 0.  1.
         24    2    1    2    0    0 -0.29286386764E+03 -0.20675737761E+03  0.29710558985E+02  0.36882576000E+03  0.81436268053E+02 0.  0.
        254    2    1    2    0    0  0.29286386764E+03  0.20675737761E+03  0.84187366989E+03  0.12856763950E+04  0.90315815806E+03 0.  0.
         23    2    4    4    0    0 -0.15237801835E+03 -0.11622207982E+03 -0.64059719261E+02  0.22152829890E+03  0.90799269083E+02 0.  0.
         23    2    4    4    0    0  0.44524188600E+03  0.32297945743E+03  0.90593338915E+03  0.10641480961E+04  0.95602290380E+02 0.  0.
          2    1    3    3  502    0 -0.74636826642E+02 -0.96604079314E+02 -0.35005163911E+01  0.12212803792E+03  0.00000000000E+00 0. -1.
         -1    1    3    3    0  502 -0.21822704100E+03 -0.11015329830E+03  0.33211075376E+02  0.24669772208E+03  0.00000000000E+00 0.  1.
         13    1    5    5    0    0 -0.11049340346E+03 -0.12478199737E+03 -0.64658440334E+02  0.17877374802E+03  0.00000000000E+00 0. -1.
        -13    1    5    5    0    0 -0.41884614895E+02  0.85599175542E+01  0.59872107278E+00  0.42754550874E+02  0.00000000000E+00 0.  1.
          3    1    6    6  503    0  0.31345785310E+03  0.19152816195E+03  0.66471270140E+03  0.75946154471E+03  0.00000000000E+00 0. -1.
         -3    1    6    6    0  503  0.13178403289E+03  0.13145129548E+03  0.24122068775E+03  0.30468655140E+03  0.00000000000E+00 0.  1.
<mgrwt>
<rscale>  0 0.14063137E+04</rscale>
<asrwt>0</asrwt>
<pdfrwt beam="1">  1        2 0.19431434E+00 0.14063137E+04</pdfrwt>
<pdfrwt beam="2">  1       -1 0.60224456E-01 0.14063137E+04</pdfrwt>
<totfact> 0.53880105E+01</totfact>
</mgrwt>
</event>
<event>
12    7  0.1637954E-007  0.2774371E+04  0.7818608E-02  0.8311270E-01
         -1   -1    0    0    0  501 -0.00000000000E+00  0.00000000000E+00  0.11620850702E+04  0.11620850702E+04  0.00000000000E+00 0.  1.
          2   -1    0    0  501    0  0.00000000000E+00 -0.00000000000E+00 -0.16558888152E+04  0.16558888152E+04  0.00000000000E+00 0. -1.
         24    2    1    2    0    0 -0.78626990357E+03 -0.95266375960E+03 -0.11379155589E+03  0.12430483221E+04  0.80199830590E+02 0.  0.
        254    2    1    2    0    0  0.78626990357E+03  0.95266375960E+03 -0.38001218910E+03  0.15749255633E+04  0.90010703036E+03 0.  0.
         23    2    4    4    0    0  0.35392918163E+03  0.10071246412E+03  0.22399714401E+03  0.44083108249E+03  0.93533185181E+02 0.  0.
         23    2    4    4    0    0  0.43234072194E+03  0.85195129548E+03 -0.60400933310E+03  0.11340944809E+04  0.92755093171E+02 0.  0.
          2    1    3    3  502    0 -0.74756918354E+03 -0.90788325468E+03 -0.90816296193E+02  0.11795589379E+04  0.00000000000E+00 0. -1.
         -1    1    3    3    0  502 -0.38700720030E+02 -0.44780504916E+02 -0.22975259701E+02  0.63489384229E+02  0.00000000000E+00 0.  1.
         13    1    5    5    0    0  0.31055875802E+03  0.55312889679E+02  0.17188806794E+03  0.35923775671E+03  0.00000000000E+00 0.  1.
        -13    1    5    5    0    0  0.43370423613E+02  0.45399574442E+02  0.52109076066E+02  0.81593325783E+02  0.00000000000E+00 0. -1.
          4    1    6    6  503    0  0.64068931944E+02  0.79376225574E+02 -0.87955571045E+02  0.13469074098E+03  0.00000000000E+00 0. -1.
         -4    1    6    6    0  503  0.36827179000E+03  0.77257506990E+03 -0.51605376206E+03  0.99940373988E+03  0.00000000000E+00 0.  1.
<mgrwt>
<rscale>  0 0.27743710E+04</rscale>
<asrwt>0</asrwt>
<pdfrwt beam="1">  1        2 0.25475212E+00 0.27743710E+04</pdfrwt>
<pdfrwt beam="2">  1       -1 0.17878232E+00 0.27743710E+04</pdfrwt>
<totfact> 0.21878080E+00</totfact>
</mgrwt>
</event>
<event>
12    7  0.1637954E-007  0.1441942E+04  0.7818608E-02  0.8924006E-01
          2   -1    0    0  501    0  0.00000000000E+00  0.00000000000E+00  0.19734700060E+04  0.19734700060E+04  0.00000000000E+00 0. -1.
         -1   -1    0    0    0  501 -0.00000000000E+00 -0.00000000000E+00 -0.26339359043E+03  0.26339359043E+03  0.00000000000E+00 0.  1.
         24    2    1    2    0    0 -0.17070032723E+03 -0.38489360172E+03  0.37089010153E+03  0.56694243353E+03  0.81133033704E+02 0.  0.
        254    2    1    2    0    0  0.17070032723E+03  0.38489360172E+03  0.13391863140E+04  0.16699211629E+04  0.90439760074E+03 0.  0.
         23    2    4    4    0    0 -0.16137359541E+02  0.42339489357E+03  0.14438161003E+03  0.45679332580E+03  0.91051869333E+02 0.  0.
         23    2    4    4    0    0  0.18683768677E+03 -0.38501291845E+02  0.11948047040E+04  0.12131278371E+04  0.87921543218E+02 0.  0.
          2    1    3    3  502    0 -0.33907833588E+02 -0.12510176325E+03  0.73352513399E+02  0.14893214417E+03  0.00000000000E+00 0. -1.
         -1    1    3    3    0  502 -0.13679249364E+03 -0.25979183847E+03  0.29753758813E+03  0.41801028935E+03  0.00000000000E+00 0.  1.
         13    1    5    5    0    0  0.33630220708E+01  0.37947051739E+03  0.10259660251E+03  0.39310971285E+03  0.00000000000E+00 0. -1.
        -13    1    5    5    0    0 -0.19500381612E+02  0.43924376172E+02  0.41785007519E+02  0.63683612951E+02  0.00000000000E+00 0.  1.
          2    1    6    6  503    0  0.98154130706E+02 -0.40861797422E+02  0.86831089503E+03  0.87479582206E+03  0.00000000000E+00 0. -1.
         -2    1    6    6    0  503  0.88683556062E+02  0.23605055763E+01  0.32649380897E+03  0.33833201503E+03  0.00000000000E+00 0.  1.
<mgrwt>
<rscale>  0 0.14419422E+04</rscale>
<asrwt>0</asrwt>
<pdfrwt beam="1">  1        2 0.30361076E+00 0.14419422E+04</pdfrwt>
<pdfrwt beam="2">  1       -1 0.40522092E-01 0.14419422E+04</pdfrwt>
<totfact> 0.45461786E+01</totfact>
</mgrwt>
</event>
<event>
12    7  0.1637954E-007  0.2525345E+04  0.7818608E-02  0.8394011E-01
          2   -1    0    0  501    0  0.00000000000E+00  0.00000000000E+00  0.31069996894E+04  0.31069996894E+04  0.00000000000E+00 0. -1.
         -1   -1    0    0    0  501 -0.00000000000E+00 -0.00000000000E+00 -0.51314519632E+03  0.51314519632E+03  0.00000000000E+00 0.  1.
         24    2    1    2    0    0 -0.68652472775E+03 -0.76687182070E+03  0.57828896503E+03  0.11834291938E+04  0.81718654951E+02 0.  0.
        254    2    1    2    0    0  0.68652472775E+03  0.76687182070E+03  0.20155655281E+04  0.24367156919E+04  0.90314471376E+03 0.  0.
         23    2    4    4    0    0  0.87365053906E+02  0.18364659835E+03  0.13389613753E+04  0.13572698579E+04  0.89471654134E+02 0.  0.
         23    2    4    4    0    0  0.59915967384E+03  0.58322522235E+03  0.67660415282E+03  0.10794458340E+04  0.90918393493E+02 0.  0.
          4    1    3    3  502    0 -0.92833100763E+02 -0.68256698515E+02  0.53366838405E+02  0.12698417591E+03  0.00000000000E+00 0. -1.
         -3    1    3    3    0  502 -0.59369162699E+03 -0.69861512219E+03  0.52492212662E+03  0.10564450179E+04  0.00000000000E+00 0.  1.
         13    1    5    5    0    0  0.53690535812E+02  0.17501836154E+03  0.10081243110E+04  0.10246115005E+04  0.00000000000E+00 0. -1.
        -13    1    5    5    0    0  0.33674518094E+02  0.86282368096E+01  0.33083706431E+03  0.33265835742E+03  0.00000000000E+00 0.  1.
          4    1    6    6  503    0  0.19631710894E+03  0.14437593217E+03  0.22792598156E+03  0.33366910274E+03  0.00000000000E+00 0.  1.
         -4    1    6    6    0  503  0.40284256490E+03  0.43884929018E+03  0.44867817126E+03  0.74577673130E+03  0.00000000000E+00 0. -1.
<mgrwt>
<rscale>  0 0.25253451E+04</rscale>
<asrwt>0</asrwt>
<pdfrwt beam="1">  1        2 0.47799994E+00 0.25253451E+04</pdfrwt>
<pdfrwt beam="2">  1       -1 0.78945417E-01 0.25253451E+04</pdfrwt>
<totfact> 0.24194276E+00</totfact>
</mgrwt>
</event>
<event>
12    7  0.1637954E-007  0.2885705E+04  0.7818608E-02  0.8277143E-01
         -1   -1    0    0    0  501 -0.00000000000E+00  0.00000000000E+00  0.12192867119E+04  0.12192867119E+04  0.00000000000E+00 0.  1.
          2   -1    0    0  501    0  0.00000000000E+00 -0.00000000000E+00 -0.17074108326E+04  0.17074108326E+04  0.00000000000E+00 0. -1.
         24    2    1    2    0    0 -0.12975032784E+04  0.20486436310E+02 -0.16764415590E+03  0.13109307085E+04  0.80624487302E+02 0.  0.
        254    2    1    2    0    0  0.12975032784E+04 -0.20486436310E+02 -0.32047996481E+03  0.16157668360E+04  0.90777784110E+03 0.  0.
         23    2    4    4    0    0  0.15544596666E+03 -0.28916606650E+03 -0.27476614890E+03  0.43830278364E+03  0.93981014048E+02 0.  0.
         23    2    4    4    0    0  0.11420573117E+04  0.26867963019E+03 -0.45713815915E+02  0.11774640523E+04  0.88590036370E+02 0.  0.
          2    1    3    3  502    0 -0.10918231822E+04 -0.25658030150E+01 -0.11874308983E+03  0.10982642514E+04  0.00000000000E+00 0. -1.
         -1    1    3    3    0  502 -0.20568009624E+03  0.23052239325E+02 -0.48901066077E+02  0.21266645714E+03  0.00000000000E+00 0.  1.
         13    1    5    5    0    0  0.11013559348E+02 -0.76683921380E+02 -0.10449080619E+03  0.13007709586E+03  0.00000000000E+00 0. -1.
        -13    1    5    5    0    0  0.14443240731E+03 -0.21248214512E+03 -0.17027534270E+03  0.30822568778E+03  0.00000000000E+00 0.  1.
          3    1    6    6  503    0  0.57457272848E+03  0.90007542476E+02 -0.27968490221E+02  0.58225201971E+03  0.00000000000E+00 0. -1.
         -3    1    6    6    0  503  0.56748458327E+03  0.17867208772E+03 -0.17745325694E+02  0.59521203261E+03  0.00000000000E+00 0.  1.
<mgrwt>
<rscale>  0 0.28857050E+04</rscale>
<asrwt>0</asrwt>
<pdfrwt beam="1">  1        2 0.26267859E+00 0.28857050E+04</pdfrwt>
<pdfrwt beam="2">  1       -1 0.18758257E+00 0.28857050E+04</pdfrwt>
<totfact> 0.17558034E+00</totfact>
</mgrwt>
</event>
<event>
12    7  0.1637954E-007  0.2196859E+04  0.7818608E-02  0.8519737E-01
         -1   -1    0    0    0  501 -0.00000000000E+00  0.00000000000E+00  0.12257395540E+04  0.12257395540E+04  0.00000000000E+00 0.  1.
          2   -1    0    0  501    0  0.00000000000E+00 -0.00000000000E+00 -0.98434251034E+03  0.98434251034E+03  0.00000000000E+00 0. -1.
         24    2    1    2    0    0 -0.70793621706E+03 -0.29444347160E+02  0.67662845573E+03  0.98296221965E+03  0.79674344265E+02 0.  0.
        254    2    1    2    0    0  0.70793621706E+03  0.29444347160E+02 -0.43523141212E+03  0.12271198447E+04  0.90241679619E+03 0.  0.
         23    2    4    4    0    0  0.71859981098E+03 -0.21352200269E+03 -0.41272172234E+02  0.75637194547E+03  0.91748535281E+02 0.  0.
         23    2    4    4    0    0 -0.10663593917E+02  0.24296634985E+03 -0.39395923988E+03  0.47074789918E+03  0.85166557398E+02 0.  0.
          4    1    3    3  502    0 -0.51845021286E+03 -0.46449286380E+02  0.46003937668E+03  0.69468294028E+03  0.00000000000E+00 0. -1.
         -3    1    3    3    0  502 -0.18948600420E+03  0.17004939220E+02  0.21658907905E+03  0.28827927936E+03  0.00000000000E+00 0.  1.
         13    1    5    5    0    0  0.70651569531E+03 -0.21524829776E+03 -0.51606677288E+02  0.74037794844E+03  0.00000000000E+00 0.  1.
        -13    1    5    5    0    0  0.12084115675E+02  0.17262950700E+01  0.10334505053E+02  0.15993997030E+02  0.00000000000E+00 0. -1.
          2    1    6    6  503    0 -0.15850841582E+02  0.21371734506E+01 -0.16542328308E+02  0.23010113321E+02  0.00000000000E+00 0. -1.
         -2    1    6    6    0  503  0.51872476641E+01  0.24082917640E+03 -0.37741691158E+03  0.44773778586E+03  0.00000000000E+00 0.  1.
<mgrwt>
<rscale>  0 0.21968592E+04</rscale>
<asrwt>0</asrwt>
<pdfrwt beam="1">  1        2 0.15143731E+00 0.21968592E+04</pdfrwt>
<pdfrwt beam="2">  1       -1 0.18857532E+00 0.21968592E+04</pdfrwt>
<totfact> 0.48611577E+00</totfact>
</mgrwt>
</event>
<event>
12    7  0.1637954E-007  0.2452886E+04  0.7818608E-02  0.8419965E-01
          2   -1    0    0  501    0  0.00000000000E+00  0.00000000000E+00  0.82040696262E+03  0.82040696262E+03  0.00000000000E+00 0. -1.
         -1   -1    0    0    0  501 -0.00000000000E+00 -0.00000000000E+00 -0.18334344456E+04  0.18334344456E+04  0.00000000000E+00 0.  1.
         24    2    1    2    0    0  0.55726935984E+03 -0.58211139810E+03 -0.11421861759E+04  0.14001314446E+04  0.79849749547E+02 0.  0.
        254    2    1    2    0    0 -0.55726935984E+03  0.58211139810E+03  0.12915869291E+03  0.12537099636E+04  0.95168476175E+03 0.  0.
         23    2    4    4    0    0 -0.11271180953E+02  0.67806659422E+03  0.10068108006E+03  0.69174484192E+03  0.92048360796E+02 0.  0.
         23    2    4    4    0    0 -0.54599817889E+03 -0.95955196120E+02  0.28477612855E+02  0.56196512172E+03  0.87592308883E+02 0.  0.
          4    1    3    3  502    0  0.89293118665E+02 -0.67471278235E+02 -0.12419242881E+03  0.16718072198E+03  0.00000000000E+00 0. -1.
         -3    1    3    3    0  502  0.46797624118E+03 -0.51464011986E+03 -0.10179937470E+04  0.12329507226E+04  0.00000000000E+00 0.  1.
         13    1    5    5    0    0 -0.79675757333E+01  0.53157978422E+02 -0.15882934830E+02  0.56049268968E+02  0.00000000000E+00 0. -1.
        -13    1    5    5    0    0 -0.33036052195E+01  0.62490861580E+03  0.11656401489E+03  0.63569557295E+03  0.00000000000E+00 0.  1.
          2    1    6    6  503    0 -0.46150978894E+02 -0.26459978840E+02  0.21173949834E+02  0.57257134793E+02  0.00000000000E+00 0. -1.
         -2    1    6    6    0  503 -0.49984720000E+03 -0.69495217281E+02  0.73036630208E+01  0.50470798692E+03  0.00000000000E+00 0.  1.
<mgrwt>
<rscale>  0 0.24528860E+04</rscale>
<asrwt>0</asrwt>
<pdfrwt beam="1">  1        2 0.12621646E+00 0.24528860E+04</pdfrwt>
<pdfrwt beam="2">  1       -1 0.28206683E+00 0.24528860E+04</pdfrwt>
<totfact> 0.14677657E+00</totfact>
</mgrwt>
</event>
<event>
12    7  0.1637954E-007  0.1311270E+04  0.7818608E-02  0.9020675E-01
         -1   -1    0    0    0  501 -0.00000000000E+00  0.00000000000E+00  0.46949429359E+03  0.46949429359E+03  0.00000000000E+00 0.  1.
          2   -1    0    0  501    0  0.00000000000E+00 -0.00000000000E+00 -0.91557548654E+03  0.91557548654E+03  0.00000000000E+00 0. -1.
         24    2    1    2    0    0  0.27859488066E+03  0.16000817493E+03 -0.41469600217E+02  0.33354120161E+03  0.79449870086E+02 0.  0.
        254    2    1    2    0    0 -0.27859488066E+03 -0.16000817493E+03 -0.40461159273E+03  0.10515285785E+04  0.91585156379E+03 0.  0.
         23    2    4    4    0    0  0.31074770529E+03 -0.70034101977E+02 -0.28075397048E+03  0.43501708431E+03  0.94594714043E+02 0.  0.
         23    2    4    4    0    0 -0.58934258594E+03 -0.89974072950E+02 -0.12385762225E+03  0.61651149421E+03  0.96569635458E+02 0.  0.
          2    1    3    3  502    0  0.17629620123E+02 -0.49929703832E+01 -0.14956372194E+02  0.23652194996E+02  0.00000000000E+00 0. -1.
         -1    1    3    3    0  502  0.26096526053E+03  0.16500114531E+03 -0.26513228023E+02  0.30988900661E+03  0.00000000000E+00 0.  1.
         13    1    5    5    0    0  0.29889754766E+03 -0.87011961623E+02 -0.25869967909E+03  0.40476703104E+03  0.00000000000E+00 0. -1.
        -13    1    5    5    0    0  0.11850157628E+02  0.16977859646E+02 -0.22054291392E+02  0.30250053269E+02  0.00000000000E+00 0.  1.
          1    1    6    6  503    0 -0.53390788285E+03 -0.82708202004E+02 -0.81543136140E+02  0.54639505589E+03  0.00000000000E+00 0. -1.
         -1    1    6    6    0  503 -0.55434703092E+02 -0.72658709466E+01 -0.42314486115E+02  0.70116438320E+02  0.00000000000E+00 0.  1.
<mgrwt>
<rscale>  0 0.13112703E+04</rscale>
<asrwt>0</asrwt>
<pdfrwt beam="1">  1        2 0.14085777E+00 0.13112703E+04</pdfrwt>
<pdfrwt beam="2">  1       -1 0.72229892E-01 0.13112703E+04</pdfrwt>
<totfact> 0.61876012E+01</totfact>
</mgrwt>
</event>
<event>
12    7  0.1637954E-007  0.2162007E+04  0.7818608E-02  0.8534410E-01
          2   -1    0    0  501    0  0.00000000000E+00  0.00000000000E+00  0.12726628384E+04  0.12726628384E+04  0.00000000000E+00 0. -1.
         -1   -1    0    0    0  501 -0.00000000000E+00 -0.00000000000E+00 -0.91820772079E+03  0.91820772079E+03  0.00000000000E+00 0.  1.
         24    2    1    2    0    0 -0.46783777177E+03 -0.42326537784E+03  0.75582975461E+03  0.98771127741E+03  0.79178209124E+02 0.  0.
        254    2    1    2    0    0  0.46783777177E+03  0.42326537784E+03 -0.40137463703E+03  0.12031592818E+04  0.94258415925E+03 0.  0.
         23    2    4    4    0    0  0.28360023708E+03  0.62606292964E+03 -0.54318763632E+03  0.88063679589E+03  0.89913690197E+02 0.  0.
         23    2    4    4    0    0  0.18423753469E+03 -0.20279755180E+03  0.14181299930E+03  0.32252248587E+03  0.94018673241E+02 0.  0.
          2    1    3    3  502    0 -0.38786154426E+03 -0.34166535233E+03  0.66182874877E+03  0.83975537104E+03  0.00000000000E+00 0. -1.
         -1    1    3    3    0  502 -0.79976227510E+02 -0.81600025511E+02  0.94001005835E+02  0.14795590636E+03  0.00000000000E+00 0.  1.
         13    1    5    5    0    0  0.45995327344E+02  0.13987987799E+03 -0.16076621848E+03  0.21800854894E+03  0.00000000000E+00 0.  1.
        -13    1    5    5    0    0  0.23760490974E+03  0.48618305165E+03 -0.38242141784E+03  0.66262824696E+03  0.00000000000E+00 0. -1.
          3    1    6    6  503    0  0.16960748059E+03 -0.20969017336E+03  0.11955276846E+03  0.29500767909E+03  0.00000000000E+00 0. -1.
         -3    1    6    6    0  503  0.14630054091E+02  0.68926215640E+01  0.22260230841E+02  0.27514806775E+02  0.00000000000E+00 0.  1.
<mgrwt>
<rscale>  0 0.21620073E+04</rscale>
<asrwt>0</asrwt>
<pdfrwt beam="1">  1        2 0.19579428E+00 0.21620073E+04</pdfrwt>
<pdfrwt beam="2">  1       -1 0.14126273E+00 0.21620073E+04</pdfrwt>
<totfact> 0.73393349E+00</totfact>
</mgrwt>
</event>
<event>
12    7  0.1637954E-007  0.1506001E+04  0.7818608E-02  0.8880472E-01
          2   -1    0    0  501    0  0.00000000000E+00  0.00000000000E+00  0.78823718914E+03  0.78823718914E+03  0.00000000000E+00 0. -1.
         -1   -1    0    0    0  501 -0.00000000000E+00 -0.00000000000E+00 -0.71933930993E+03  0.71933930993E+03  0.00000000000E+00 0.  1.
         24    2    1    2    0    0  0.21763775943E+03  0.29692809524E+03 -0.28020055512E+03  0.46946184859E+03  0.79684302864E+02 0.  0.
        254    2    1    2    0    0 -0.21763775943E+03 -0.29692809524E+03  0.34909843434E+03  0.10381146505E+04  0.90569300682E+03 0.  0.
         23    2    4    4    0    0 -0.27163837960E+03 -0.10067499391E+03 -0.25318278082E+03  0.39585626421E+03  0.93154697889E+02 0.  0.
         23    2    4    4    0    0  0.54000620172E+02 -0.19625310133E+03  0.60228121516E+03  0.64225838627E+03  0.91224041998E+02 0.  0.
          2    1    3    3  502    0  0.40812228060E+02  0.96704090921E+02 -0.47573903222E+02  0.11524146575E+03  0.00000000000E+00 0. -1.
         -1    1    3    3    0  502  0.17682553137E+03  0.20022400432E+03 -0.23262665190E+03  0.35422038284E+03  0.00000000000E+00 0.  1.
         13    1    5    5    0    0 -0.39932544004E+02 -0.10269544380E+02 -0.88289675593E+02  0.97443000922E+02  0.00000000000E+00 0. -1.
        -13    1    5    5    0    0 -0.23170583559E+03 -0.90405449530E+02 -0.16489310523E+03  0.29841326329E+03  0.00000000000E+00 0.  1.
          1    1    6    6  503    0  0.69541353727E+02 -0.98879091534E+02  0.27385256327E+03  0.29934645652E+03  0.00000000000E+00 0.  1.
         -1    1    6    6    0  503 -0.15540733555E+02 -0.97374009797E+02  0.32842865189E+03  0.34291192975E+03  0.00000000000E+00 0. -1.
<mgrwt>
<rscale>  0 0.15060013E+04</rscale>
<asrwt>0</asrwt>
<pdfrwt beam="1">  1        2 0.12126726E+00 0.15060013E+04</pdfrwt>
<pdfrwt beam="2">  1       -1 0.11066759E+00 0.15060013E+04</pdfrwt>
<totfact> 0.29152713E+01</totfact>
</mgrwt>
</event>
<event>
12    7  0.1637954E-007  0.1284170E+04  0.7818608E-02  0.9042213E-01
         -1   -1    0    0    0  501 -0.00000000000E+00  0.00000000000E+00  0.61731256442E+03  0.61731256442E+03  0.00000000000E+00 0.  1.
          2   -1    0    0  501    0  0.00000000000E+00 -0.00000000000E+00 -0.66785197150E+03  0.66785197150E+03  0.00000000000E+00 0. -1.
         24    2    1    2    0    0  0.14572240561E+03 -0.16478744779E+03 -0.24186217782E+03  0.33654914714E+03  0.79862963462E+02 0.  0.
        254    2    1    2    0    0 -0.14572240561E+03  0.16478744779E+03  0.19132277074E+03  0.94861538878E+03  0.90270528457E+03 0.  0.
         23    2    4    4    0    0 -0.38058788532E+03  0.18653478961E+03 -0.20426825323E+03  0.47904970660E+03  0.90115125966E+02 0.  0.
         23    2    4    4    0    0  0.23486547971E+03 -0.21747341817E+02  0.39559102397E+03  0.46956568218E+03  0.91459997834E+02 0.  0.
          4    1    3    3  502    0  0.14922377089E+03 -0.13007836949E+03 -0.19266594841E+03  0.27623954041E+03  0.00000000000E+00 0. -1.
         -3    1    3    3    0  502 -0.35013652871E+01 -0.34709078301E+02 -0.49196229408E+02  0.60309606725E+02  0.00000000000E+00 0.  1.
         13    1    5    5    0    0  0.41580279179E+01 -0.70800543285E+00 -0.63038074204E+01  0.75847515353E+01  0.00000000000E+00 0.  1.
        -13    1    5    5    0    0 -0.38474591324E+03  0.18724279504E+03 -0.19796444581E+03  0.47146495506E+03  0.00000000000E+00 0. -1.
          4    1    6    6  503    0  0.16955249434E+03 -0.77838394031E+01  0.19694480426E+03  0.25999210068E+03  0.00000000000E+00 0. -1.
         -4    1    6    6    0  503  0.65312985368E+02 -0.13963502414E+02  0.19864621971E+03  0.20957358150E+03  0.00000000000E+00 0.  1.
<mgrwt>
<rscale>  0 0.12841704E+04</rscale>
<asrwt>0</asrwt>
<pdfrwt beam="1">  1        2 0.10274646E+00 0.12841704E+04</pdfrwt>
<pdfrwt beam="2">  1       -1 0.94971163E-01 0.12841704E+04</pdfrwt>
<totfact> 0.52241100E+01</totfact>
</mgrwt>
</event>
<event>
12    7  0.1637954E-007  0.2313367E+04  0.7818608E-02  0.8472669E-01
          2   -1    0    0  501    0  0.00000000000E+00  0.00000000000E+00  0.20931833581E+04  0.20931833581E+04  0.00000000000E+00 0. -1.
         -1   -1    0    0    0  501 -0.00000000000E+00 -0.00000000000E+00 -0.63917810424E+03  0.63917810424E+03  0.00000000000E+00 0.  1.
         24    2    1    2    0    0  0.19755054452E+03  0.63622800492E+03  0.14633926915E+04  0.16098217198E+04  0.78711551776E+02 0.  0.
        254    2    1    2    0    0 -0.19755054452E+03 -0.63622800492E+03 -0.93874376072E+01  0.11225397425E+04  0.90343514299E+03 0.  0.
         23    2    4    4    0    0  0.87922988558E+02  0.19759955878E+03  0.74767783183E+01  0.23664724684E+03  0.95760010826E+02 0.  0.
         23    2    4    4    0    0 -0.28547353308E+03 -0.83382756370E+03 -0.16864215925E+02  0.88589249565E+03  0.88077057082E+02 0.  0.
          2    1    3    3  502    0  0.17731221415E+03  0.52768359456E+03  0.11524231968E+04  0.12798315599E+04  0.00000000000E+00 0. -1.
         -1    1    3    3    0  502  0.20238330376E+02  0.10854441036E+03  0.31096949464E+03  0.32999015991E+03  0.00000000000E+00 0.  1.
         13    1    5    5    0    0  0.41576850039E+02  0.16304950101E+03 -0.25356030518E+02  0.17016669040E+03  0.00000000000E+00 0. -1.
        -13    1    5    5    0    0  0.46346138519E+02  0.34550057772E+02  0.32832808836E+02  0.66480556434E+02  0.00000000000E+00 0.  1.
          3    1    6    6  503    0 -0.19411131111E+03 -0.65639588189E+03  0.96687312267E+01  0.68456426961E+03  0.00000000000E+00 0. -1.
         -3    1    6    6    0  503 -0.91362221973E+02 -0.17743168181E+03 -0.26532947152E+02  0.20132822603E+03  0.00000000000E+00 0.  1.
<mgrwt>
<rscale>  0 0.23133672E+04</rscale>
<asrwt>0</asrwt>
<pdfrwt beam="1">  1        2 0.32202820E+00 0.23133672E+04</pdfrwt>
<pdfrwt beam="2">  1       -1 0.98335094E-01 0.23133672E+04</pdfrwt>
<totfact> 0.60494807E+00</totfact>
</mgrwt>
</event>
<event>
12    7  0.1637954E-007  0.1470250E+04  0.7818608E-02  0.8904481E-01
         -3   -1    0    0    0  501 -0.00000000000E+00  0.00000000000E+00  0.29653885861E+03  0.29653885861E+03  0.00000000000E+00 0.  1.
          2   -1    0    0  501    0  0.00000000000E+00 -0.00000000000E+00 -0.18223880437E+04  0.18223880437E+04  0.00000000000E+00 0. -1.
         24    2    1    2    0    0  0.13776906982E+03 -0.27022433649E+03 -0.97214939938E+03  0.10214353120E+04  0.79083078270E+02 0.  0.
        254    2    1    2    0    0 -0.13776906982E+03  0.27022433649E+03 -0.55369978568E+03  0.10974915903E+04  0.89772090844E+03 0.  0.
         23    2    4    4    0    0  0.25579493619E+03 -0.19019325807E+03 -0.24217027605E+03  0.41046231181E+03  0.90710209031E+02 0.  0.
         23    2    4    4    0    0 -0.39356400600E+03  0.46041759456E+03 -0.31152950962E+03  0.68702927847E+03  0.89897752514E+02 0.  0.
          4    1    3    3  502    0  0.89859383849E+02 -0.22042817047E+03 -0.82869002306E+03  0.86220092874E+03  0.00000000000E+00 0. -1.
         -3    1    3    3    0  502  0.47909685967E+02 -0.49796166018E+02 -0.14345937632E+03  0.15923438326E+03  0.00000000000E+00 0.  1.
         13    1    5    5    0    0  0.21668553756E+03 -0.19561547879E+03 -0.21253861396E+03  0.36109652470E+03  0.00000000000E+00 0. -1.
        -13    1    5    5    0    0  0.39109398628E+02  0.54222207215E+01 -0.29631662091E+02  0.49365787109E+02  0.00000000000E+00 0.  1.
          1    1    6    6  503    0 -0.33773658993E+03  0.34795653114E+03 -0.26862375949E+03  0.55434508738E+03  0.00000000000E+00 0. -1.
         -1    1    6    6    0  503 -0.55827416075E+02  0.11246106341E+03 -0.42905750135E+02  0.13268419109E+03  0.00000000000E+00 0.  1.
<mgrwt>
<rscale>  0 0.14702501E+04</rscale>
<asrwt>0</asrwt>
<pdfrwt beam="1">  1        2 0.28036739E+00 0.14702501E+04</pdfrwt>
<pdfrwt beam="2">  1       -3 0.45621363E-01 0.14702501E+04</pdfrwt>
<totfact> 0.24940403E+01</totfact>
</mgrwt>
</event>
<event>
12    7  0.1637954E-007  0.1206971E+04  0.7818608E-02  0.9106777E-01
         -3   -1    0    0    0  501 -0.00000000000E+00  0.00000000000E+00  0.25877103156E+03  0.25877103156E+03  0.00000000000E+00 0.  1.
          2   -1    0    0  501    0  0.00000000000E+00 -0.00000000000E+00 -0.14074007426E+04  0.14074007426E+04  0.00000000000E+00 0. -1.
         24    2    1    2    0    0  0.17923455103E+03  0.10531776682E+03 -0.49391125206E+03  0.54166327110E+03  0.78955164891E+02 0.  0.
        254    2    1    2    0    0 -0.17923455103E+03 -0.10531776682E+03 -0.65471845894E+03  0.11245085030E+04  0.89030683284E+03 0.  0.
         23    2    4    4    0    0 -0.62446322837E+02 -0.66071633995E+02  0.21022434699E+03  0.24598361133E+03  0.89714307219E+02 0.  0.
         23    2    4    4    0    0 -0.11678822820E+03 -0.39246132823E+02 -0.86494280594E+03  0.87852489169E+03  0.92196413126E+02 0.  0.
          4    1    3    3  502    0  0.10563006374E+03  0.96385096500E+02 -0.37716609178E+03  0.40336343163E+03  0.00000000000E+00 0. -1.
         -3    1    3    3    0  502  0.73604487293E+02  0.89326703175E+01 -0.11674516028E+03  0.13829983947E+03  0.00000000000E+00 0.  1.
         13    1    5    5    0    0 -0.59347140903E+02 -0.82486703020E+02  0.13524918584E+03  0.16916997836E+03  0.00000000000E+00 0.  1.
        -13    1    5    5    0    0 -0.30991819340E+01  0.16415069026E+02  0.74975161158E+02  0.76813632972E+02  0.00000000000E+00 0. -1.
          4    1    6    6  503    0 -0.86377112482E+02 -0.68443950612E+02 -0.56664015627E+03  0.57725786840E+03  0.00000000000E+00 0. -1.
         -4    1    6    6    0  503 -0.30411115716E+02  0.29197817790E+02 -0.29830264967E+03  0.30126702329E+03  0.00000000000E+00 0.  1.
<mgrwt>
<rscale>  0 0.12069707E+04</rscale>
<asrwt>0</asrwt>
<pdfrwt beam="1">  1        2 0.21652320E+00 0.12069707E+04</pdfrwt>
<pdfrwt beam="2">  1       -3 0.39810927E-01 0.12069707E+04</pdfrwt>
<totfact> 0.56865569E+01</totfact>
</mgrwt>
</event>
<event>
12    7  0.1637954E-007  0.1227772E+04  0.7818608E-02  0.9088889E-01
          2   -1    0    0  501    0  0.00000000000E+00  0.00000000000E+00  0.42788334581E+04  0.42788334581E+04  0.00000000000E+00 0. -1.
         -1   -1    0    0    0  501 -0.00000000000E+00 -0.00000000000E+00 -0.88074507504E+02  0.88074507504E+02  0.00000000000E+00 0.  1.
         24    2    1    2    0    0  0.44281812743E+02 -0.14025005371E+03  0.15542726520E+03  0.22960226549E+03  0.83238266713E+02 0.  0.
        254    2    1    2    0    0 -0.44281812743E+02  0.14025005371E+03  0.40353316854E+04  0.41373057001E+04  0.90098040408E+03 0.  0.
         23    2    4    4    0    0 -0.35495617205E+03  0.26323367799E+03  0.12183680332E+04  0.12991726791E+04  0.90239306944E+02 0.  0.
         23    2    4    4    0    0  0.31067435930E+03 -0.12298362428E+03  0.28169636521E+04  0.28381330209E+04  0.89840401620E+02 0.  0.
          4    1    3    3  502    0 -0.32339800945E+01  0.17875821740E+01 -0.74585119044E+01  0.83236696901E+01  0.00000000000E+00 0. -1.
         -3    1    3    3    0  502  0.47515792838E+02 -0.14203763588E+03  0.16288577711E+03  0.22127859580E+03  0.00000000000E+00 0.  1.
         13    1    5    5    0    0 -0.11827975625E+03  0.13689379772E+03  0.43429831360E+03  0.47047320624E+03  0.00000000000E+00 0. -1.
        -13    1    5    5    0    0 -0.23667641580E+03  0.12633988027E+03  0.78406971961E+03  0.82869947288E+03  0.00000000000E+00 0.  1.
          3    1    6    6  503    0  0.16418988124E+03 -0.11037521175E+03  0.17280806920E+04  0.17393688173E+04  0.00000000000E+00 0. -1.
         -3    1    6    6    0  503  0.14648447806E+03 -0.12608412530E+02  0.10888829601E+04  0.10987642036E+04  0.00000000000E+00 0.  1.
<mgrwt>
<rscale>  0 0.12277722E+04</rscale>
<asrwt>0</asrwt>
<pdfrwt beam="1">  1        2 0.65828191E+00 0.12277722E+04</pdfrwt>
<pdfrwt beam="2">  1       -1 0.13549928E-01 0.12277722E+04</pdfrwt>
<totfact> 0.90435700E+00</totfact>
</mgrwt>
</event>
<event>
12    7  0.1637954E-007  0.1679375E+04  0.7818608E-02  0.8773216E-01
          2   -1    0    0  501    0  0.00000000000E+00  0.00000000000E+00  0.72635386943E+03  0.72635386943E+03  0.00000000000E+00 0. -1.
         -1   -1    0    0    0  501 -0.00000000000E+00 -0.00000000000E+00 -0.97070511433E+03  0.97070511433E+03  0.00000000000E+00 0.  1.
         24    2    1    2    0    0 -0.46523991436E+03  0.37456494135E+03 -0.83839054511E+01  0.60261283198E+03  0.79529002197E+02 0.  0.
        254    2    1    2    0    0  0.46523991436E+03 -0.37456494135E+03 -0.23596733944E+03  0.10944461518E+04  0.88621934117E+03 0.  0.
         23    2    4    4    0    0  0.52199348976E+03  0.44592237107E+02  0.10665962332E+03  0.54218862247E+03  0.90147413293E+02 0.  0.
         23    2    4    4    0    0 -0.56753575402E+02 -0.41915717846E+03 -0.34262696277E+03  0.55225752931E+03  0.93174215797E+02 0.  0.
          4    1    3    3  502    0 -0.28542145438E+03  0.26318562087E+03 -0.33122674229E+02  0.38965265199E+03  0.00000000000E+00 0. -1.
         -3    1    3    3    0  502 -0.17981845998E+03  0.11137932048E+03  0.24738768778E+02  0.21296017999E+03  0.00000000000E+00 0.  1.
         13    1    5    5    0    0  0.34722857484E+03  0.10845861798E+02  0.10926601604E+03  0.36417630094E+03  0.00000000000E+00 0. -1.
        -13    1    5    5    0    0  0.17476491492E+03  0.33746375309E+02 -0.26063927144E+01  0.17801232153E+03  0.00000000000E+00 0.  1.
          3    1    6    6  503    0 -0.34309630165E+02 -0.38262213520E+03 -0.33280756380E+03  0.50826934158E+03  0.00000000000E+00 0. -1.
         -3    1    6    6    0  503 -0.22443945237E+02 -0.36535043262E+02 -0.98193989686E+01  0.43988187733E+02  0.00000000000E+00 0.  1.
<mgrwt>
<rscale>  0 0.16793754E+04</rscale>
<asrwt>0</asrwt>
<pdfrwt beam="1">  1        2 0.11174675E+00 0.16793754E+04</pdfrwt>
<pdfrwt beam="2">  1       -1 0.14933925E+00 0.16793754E+04</pdfrwt>
<totfact> 0.15019969E+01</totfact>
</mgrwt>
</event>
<event>
12    7  0.1637954E-007  0.1633813E+04  0.7818608E-02  0.8800041E-01
          2   -1    0    0  501    0  0.00000000000E+00  0.00000000000E+00  0.30163302147E+04  0.30163302147E+04  0.00000000000E+00 0. -1.
         -1   -1    0    0    0  501 -0.00000000000E+00 -0.00000000000E+00 -0.22124102286E+03  0.22124102286E+03  0.00000000000E+00 0.  1.
         24    2    1    2    0    0  0.21849819177E+03  0.39781767340E+02  0.19955159869E+04  0.20091813506E+04  0.73495556680E+02 0.  0.
        254    2    1    2    0    0 -0.21849819177E+03 -0.39781767340E+02  0.79957320492E+03  0.12283898869E+04  0.90570434220E+03 0.  0.
         23    2    4    4    0    0  0.22603345487E+03 -0.97006785093E+02 -0.46096918503E+02  0.26688658303E+03  0.92747416318E+02 0.  0.
         23    2    4    4    0    0 -0.44453164664E+03  0.57225017753E+02  0.84567012343E+03  0.96150330391E+03  0.91910599217E+02 0.  0.
          2    1    3    3  502    0  0.14872982002E+03  0.60450128242E+02  0.14391420111E+04  0.14480692337E+04  0.00000000000E+00 0. -1.
         -1    1    3    3    0  502  0.69768371752E+02 -0.20668360902E+02  0.55637397580E+03  0.56111211695E+03  0.00000000000E+00 0.  1.
         13    1    5    5    0    0  0.13840502261E+03 -0.48088751357E+02 -0.71976529274E+02  0.16324551773E+03  0.00000000000E+00 0. -1.
        -13    1    5    5    0    0  0.87628432254E+02 -0.48918033736E+02  0.25879610770E+02  0.10364106530E+03  0.00000000000E+00 0.  1.
          3    1    6    6  503    0 -0.43651302402E+03  0.51473954986E+02  0.84386293241E+03  0.95147140623E+03  0.00000000000E+00 0. -1.
         -3    1    6    6    0  503 -0.80186226145E+01  0.57510627676E+01  0.18071910182E+01  0.10031897675E+02  0.00000000000E+00 0.  1.
<mgrwt>
<rscale>  0 0.16338127E+04</rscale>
<asrwt>0</asrwt>
<pdfrwt beam="1">  1        2 0.46405077E+00 0.16338127E+04</pdfrwt>
<pdfrwt beam="2">  1       -1 0.34037083E-01 0.16338127E+04</pdfrwt>
<totfact> 0.15194040E+01</totfact>
</mgrwt>
</event>
<event>
12    7  0.1637954E-007  0.1526358E+04  0.7818608E-02  0.8867112E-01
         -1   -1    0    0    0  501 -0.00000000000E+00  0.00000000000E+00  0.13655167975E+04  0.13655167975E+04  0.00000000000E+00 0.  1.
          2   -1    0    0  501    0  0.00000000000E+00 -0.00000000000E+00 -0.42653622537E+03  0.42653622537E+03  0.00000000000E+00 0. -1.
         24    2    1    2    0    0  0.47211160587E+03 -0.14076262170E+03  0.38293239711E+03  0.62886477180E+03  0.78295570670E+02 0.  0.
        254    2    1    2    0    0 -0.47211160587E+03  0.14076262170E+03  0.55604817498E+03  0.11631882510E+04  0.89504963572E+03 0.  0.
         23    2    4    4    0    0 -0.68855737467E+03  0.27363513767E+03  0.45305876164E+03  0.87330512378E+03  0.91717778734E+02 0.  0.
         23    2    4    4    0    0  0.21644576880E+03 -0.13287251597E+03  0.10298941334E+03  0.28988312727E+03  0.94453861128E+02 0.  0.
          4    1    3    3  502    0  0.64498781214E+01 -0.63256279858E+01 -0.27657334151E+01  0.94479510223E+01  0.00000000000E+00 0. -1.
         -3    1    3    3    0  502  0.46566172775E+03 -0.13443699371E+03  0.38569813053E+03  0.61941682078E+03  0.00000000000E+00 0.  1.
         13    1    5    5    0    0 -0.83659857283E+02  0.64857333408E+02  0.50344005440E+02  0.11721759382E+03  0.00000000000E+00 0.  1.
        -13    1    5    5    0    0 -0.60489751739E+03  0.20877780426E+03  0.40271475620E+03  0.75608752996E+03  0.00000000000E+00 0. -1.
          1    1    6    6  503    0  0.14233170795E+03 -0.65364282075E+02  0.10678184467E+03  0.18956045688E+03  0.00000000000E+00 0. -1.
         -1    1    6    6    0  503  0.74114060846E+02 -0.67508233896E+02 -0.37924313302E+01  0.10032267039E+03  0.00000000000E+00 0.  1.
<mgrwt>
<rscale>  0 0.15263583E+04</rscale>
<asrwt>0</asrwt>
<pdfrwt beam="1">  1        2 0.65620958E-01 0.15263583E+04</pdfrwt>
<pdfrwt beam="2">  1       -1 0.21007951E+00 0.15263583E+04</pdfrwt>
<totfact> 0.10468792E+01</totfact>
</mgrwt>
</event>
<event>
12    7  0.1637954E-007  0.1639564E+04  0.7818608E-02  0.8796604E-01
         -1   -1    0    0    0  501 -0.00000000000E+00  0.00000000000E+00  0.59572037579E+03  0.59572037579E+03  0.00000000000E+00 0.  1.
          2   -1    0    0  501    0  0.00000000000E+00 -0.00000000000E+00 -0.11281178336E+04  0.11281178336E+04  0.00000000000E+00 0. -1.
         24    2    1    2    0    0  0.22328346734E+03  0.47955339495E+03  0.28559365285E+02  0.53573917801E+03  0.79836483594E+02 0.  0.
        254    2    1    2    0    0 -0.22328346734E+03 -0.47955339495E+03 -0.56095682309E+03  0.11880990314E+04  0.90392465702E+03 0.  0.
         23    2    4    4    0    0  0.28659562252E+03 -0.16377612978E+03 -0.46026782340E+03  0.57354347279E+03  0.90255051882E+02 0.  0.
         23    2    4    4    0    0 -0.50987908987E+03 -0.31577726517E+03 -0.10068899969E+03  0.61455555858E+03  0.88590588895E+02 0.  0.
          4    1    3    3  502    0  0.30521938985E+02  0.14193214971E+03 -0.69780726216E+01  0.14534447832E+03  0.00000000000E+00 0. -1.
         -3    1    3    3    0  502  0.19276152836E+03  0.33762124523E+03  0.35537437906E+02  0.39039469968E+03  0.00000000000E+00 0.  1.
         13    1    5    5    0    0  0.29092812046E+03 -0.14911434066E+03 -0.44012917724E+03  0.54825901774E+03  0.00000000000E+00 0.  1.
        -13    1    5    5    0    0 -0.43324979388E+01 -0.14661789118E+02 -0.20138646152E+02  0.25284455054E+02  0.00000000000E+00 0. -1.
          3    1    6    6  503    0 -0.49158777545E+01 -0.20641236637E+02 -0.10717511042E+01  0.21245591411E+02  0.00000000000E+00 0. -1.
         -3    1    6    6    0  503 -0.50496321211E+03 -0.29513602853E+03 -0.99617248588E+02  0.59330996717E+03  0.00000000000E+00 0.  1.
<mgrwt>
<rscale>  0 0.16395643E+04</rscale>
<asrwt>0</asrwt>
<pdfrwt beam="1">  1        2 0.17355659E+00 0.16395643E+04</pdfrwt>
<pdfrwt beam="2">  1       -1 0.91649288E-01 0.16395643E+04</pdfrwt>
<totfact> 0.26490278E+01</totfact>
</mgrwt>
</event>
<event>
12    7  0.1637954E-007  0.3553028E+04  0.7818608E-02  0.8101337E-01
         -1   -1    0    0    0  501 -0.00000000000E+00  0.00000000000E+00  0.97316799360E+03  0.97316799360E+03  0.00000000000E+00 0.  1.
          2   -1    0    0  501    0  0.00000000000E+00 -0.00000000000E+00 -0.32430182633E+04  0.32430182633E+04  0.00000000000E+00 0. -1.
         24    2    1    2    0    0 -0.60051326152E+03  0.14282850398E+03 -0.28942420259E+04  0.29604020743E+04  0.79544817894E+02 0.  0.
        254    2    1    2    0    0  0.60051326152E+03 -0.14282850398E+03  0.62439175614E+03  0.12557841827E+04  0.89783778576E+03 0.  0.
         23    2    4    4    0    0  0.58557045407E+02 -0.58340068225E+02 -0.21665339056E+03  0.24767025556E+03  0.87002142041E+02 0.  0.
         23    2    4    4    0    0  0.54195621611E+03 -0.84488435754E+02  0.84104514670E+03  0.10081139271E+04  0.89899473450E+02 0.  0.
          2    1    3    3  502    0 -0.41655766496E+03  0.13622385218E+03 -0.20250905057E+04  0.20719721963E+04  0.00000000000E+00 0. -1.
         -1    1    3    3    0  502 -0.18395559656E+03  0.66046518021E+01 -0.86915152018E+03  0.88842987791E+03  0.00000000000E+00 0.  1.
         13    1    5    5    0    0  0.22246268223E+02  0.22053185882E+02 -0.47536614395E+02  0.56929510498E+02  0.00000000000E+00 0. -1.
        -13    1    5    5    0    0  0.36310777183E+02 -0.80393254107E+02 -0.16911677616E+03  0.19074074506E+03  0.00000000000E+00 0.  1.
          4    1    6    6  503    0  0.16898498930E+03 -0.68904973840E+02  0.27118848556E+03  0.32687461928E+03  0.00000000000E+00 0. -1.
         -4    1    6    6    0  503  0.37297122681E+03 -0.15583461914E+02  0.56985666114E+03  0.68123930785E+03  0.00000000000E+00 0.  1.
<mgrwt>
<rscale>  0 0.35530278E+04</rscale>
<asrwt>0</asrwt>
<pdfrwt beam="1">  1        2 0.49892589E+00 0.35530278E+04</pdfrwt>
<pdfrwt beam="2">  1       -1 0.14971815E+00 0.35530278E+04</pdfrwt>
<totfact> 0.39537670E-01</totfact>
</mgrwt>
</event>
<event>
12    7  0.1637954E-007  0.2033653E+04  0.7818608E-02  0.8591047E-01
         -1   -1    0    0    0  501 -0.00000000000E+00  0.00000000000E+00  0.10467279861E+04  0.10467279861E+04  0.00000000000E+00 0.  1.
          2   -1    0    0  501    0  0.00000000000E+00 -0.00000000000E+00 -0.98777895980E+03  0.98777895980E+03  0.00000000000E+00 0. -1.
         24    2    1    2    0    0  0.42514900159E+03 -0.62667940802E+03 -0.28222829647E+03  0.81203728208E+03  0.79202160213E+02 0.  0.
        254    2    1    2    0    0 -0.42514900159E+03  0.62667940802E+03  0.34117732276E+03  0.12224696638E+04  0.89696786975E+03 0.  0.
         23    2    4    4    0    0 -0.21148070664E+03  0.50409144890E+03 -0.22517365118E+03  0.59847190700E+03  0.92914865041E+02 0.  0.
         23    2    4    4    0    0 -0.21366829494E+03  0.12258795911E+03  0.56635097395E+03  0.62399775680E+03  0.89094482543E+02 0.  0.
          2    1    3    3  502    0  0.18763476931E+03 -0.24696693237E+03 -0.15326603349E+03  0.34596235252E+03  0.00000000000E+00 0. -1.
         -1    1    3    3    0  502  0.23751423227E+03 -0.37971247565E+03 -0.12896226298E+03  0.46607492956E+03  0.00000000000E+00 0.  1.
         13    1    5    5    0    0 -0.34569028586E+02  0.13729445723E+03 -0.21688056670E+02  0.14323113323E+03  0.00000000000E+00 0. -1.
        -13    1    5    5    0    0 -0.17691167806E+03  0.36679699167E+03 -0.20348559451E+03  0.45524077377E+03  0.00000000000E+00 0.  1.
          3    1    6    6  503    0 -0.17265647849E+02 -0.13233156722E+02  0.67909575062E+02  0.71308691038E+02  0.00000000000E+00 0. -1.
         -3    1    6    6    0  503 -0.19640264709E+03  0.13582111584E+03  0.49844139888E+03  0.55268906576E+03  0.00000000000E+00 0.  1.
<mgrwt>
<rscale>  0 0.20336528E+04</rscale>
<asrwt>0</asrwt>
<pdfrwt beam="1">  1        2 0.15196599E+00 0.20336528E+04</pdfrwt>
<pdfrwt beam="2">  1       -1 0.16103507E+00 0.20336528E+04</pdfrwt>
<totfact> 0.77810249E+00</totfact>
</mgrwt>
</event>
<event>
12    7  0.1637954E-007  0.3650523E+04  0.7818608E-02  0.8079016E-01
         -1   -1    0    0    0  501 -0.00000000000E+00  0.00000000000E+00  0.23622665038E+04  0.23622665038E+04  0.00000000000E+00 0.  1.
          2   -1    0    0  501    0  0.00000000000E+00 -0.00000000000E+00 -0.14103316420E+04  0.14103316420E+04  0.00000000000E+00 0. -1.
         24    2    1    2    0    0 -0.65456146088E+03  0.80519935234E+03 -0.96299279484E+03  0.14179154928E+04  0.79577123859E+02 0.  0.
        254    2    1    2    0    0  0.65456146088E+03 -0.80519935234E+03  0.19149276566E+04  0.23546826530E+04  0.89486633826E+03 0.  0.
         23    2    4    4    0    0  0.21729772528E+02  0.11981961470E+03  0.22883943299E+02  0.15335530474E+03  0.90361781462E+02 0.  0.
         23    2    4    4    0    0  0.63283168835E+03 -0.92501896704E+03  0.18920437133E+04  0.22013273483E+04  0.99381316560E+02 0.  0.
          2    1    3    3  502    0 -0.45444596363E+03  0.56930267669E+03 -0.72366893321E+03  0.10268025109E+04  0.00000000000E+00 0. -1.
         -1    1    3    3    0  502 -0.20011549725E+03  0.23589667565E+03 -0.23932386163E+03  0.39111298185E+03  0.00000000000E+00 0.  1.
         13    1    5    5    0    0  0.73820569536E+01  0.12921080840E+03  0.32844903844E+02  0.13352421309E+03  0.00000000000E+00 0.  1.
        -13    1    5    5    0    0  0.14347715574E+02 -0.93911936943E+01 -0.99609605446E+01  0.19831091654E+02  0.00000000000E+00 0. -1.
          4    1    6    6  503    0  0.15279727337E+03 -0.24418286544E+03  0.57132550545E+03  0.63983209650E+03  0.00000000000E+00 0. -1.
         -4    1    6    6    0  503  0.48003441498E+03 -0.68083610161E+03  0.13207182078E+04  0.15614952518E+04  0.00000000000E+00 0.  1.
<mgrwt>
<rscale>  0 0.36505228E+04</rscale>
<asrwt>0</asrwt>
<pdfrwt beam="1">  1        2 0.21697410E+00 0.36505228E+04</pdfrwt>
<pdfrwt beam="2">  1       -1 0.36342562E+00 0.36505228E+04</pdfrwt>
<totfact> 0.16677841E-01</totfact>
</mgrwt>
</event>
<event>
12    7  0.1637954E-007  0.2197092E+04  0.7818608E-02  0.8519639E-01
         -1   -1    0    0    0  501 -0.00000000000E+00  0.00000000000E+00  0.10319029959E+04  0.10319029959E+04  0.00000000000E+00 0.  1.
          2   -1    0    0  501    0  0.00000000000E+00 -0.00000000000E+00 -0.11694932026E+04  0.11694932026E+04  0.00000000000E+00 0. -1.
         24    2    1    2    0    0 -0.48958391256E+03 -0.44512741067E+03 -0.68185786699E+03  0.95465147898E+03  0.92727969774E+02 0.  0.
        254    2    1    2    0    0  0.48958391256E+03  0.44512741067E+03  0.54426766032E+03  0.12467447196E+04  0.90571203512E+03 0.  0.
         23    2    4    4    0    0  0.29525463729E+03  0.47781823899E+03  0.75360250670E+03  0.94448112977E+03  0.92963950228E+02 0.  0.
         23    2    4    4    0    0  0.19432927527E+03 -0.32690828316E+02 -0.20933484638E+03  0.30226358980E+03  0.93325464534E+02 0.  0.
          4    1    3    3  502    0 -0.19293306323E+03 -0.11930553855E+03 -0.21163179775E+03  0.31023377674E+03  0.00000000000E+00 0. -1.
         -3    1    3    3    0  502 -0.29665084933E+03 -0.32582187213E+03 -0.47022606924E+03  0.64441770224E+03  0.00000000000E+00 0.  1.
         13    1    5    5    0    0  0.26018041605E+03  0.43572024146E+03  0.62782077628E+03  0.80728241951E+03  0.00000000000E+00 0. -1.
        -13    1    5    5    0    0  0.35074221237E+02  0.42097997526E+02  0.12578173042E+03  0.13719871026E+03  0.00000000000E+00 0.  1.
          2    1    6    6  503    0  0.19089736305E+03 -0.41182269707E+02 -0.21580564994E+03  0.29104958530E+03  0.00000000000E+00 0. -1.
         -2    1    6    6    0  503  0.34319122124E+01  0.84914413905E+01  0.64708035565E+01  0.11214004503E+02  0.00000000000E+00 0.  1.
<mgrwt>
<rscale>  0 0.21970922E+04</rscale>
<asrwt>0</asrwt>
<pdfrwt beam="1">  1        2 0.17992203E+00 0.21970922E+04</pdfrwt>
<pdfrwt beam="2">  1       -1 0.15875431E+00 0.21970922E+04</pdfrwt>
<totfact> 0.61512988E+00</totfact>
</mgrwt>
</event>
<event>
12    7  0.1637954E-007  0.2576049E+04  0.7818608E-02  0.8376383E-01
          2   -1    0    0  501    0  0.00000000000E+00  0.00000000000E+00  0.17656980407E+04  0.17656980407E+04  0.00000000000E+00 0. -1.
         -1   -1    0    0    0  501 -0.00000000000E+00 -0.00000000000E+00 -0.93957563789E+03  0.93957563789E+03  0.00000000000E+00 0.  1.
         24    2    1    2    0    0 -0.34472885325E+02 -0.60504997312E+03  0.13593948008E+04  0.14904538622E+04  0.78896395307E+02 0.  0.
        254    2    1    2    0    0  0.34472885325E+02  0.60504997312E+03 -0.53327239796E+03  0.12148198164E+04  0.90781820101E+03 0.  0.
         23    2    4    4    0    0  0.31178379623E+03  0.71051944693E+03 -0.38188535307E+03  0.86960507745E+03  0.91266356291E+02 0.  0.
         23    2    4    4    0    0 -0.27731091091E+03 -0.10546947381E+03 -0.15138704489E+03  0.34521473894E+03  0.90719498490E+02 0.  0.
          2    1    3    3  502    0 -0.45071181149E+02 -0.44220901054E+03  0.92049898394E+03  0.10222028174E+04  0.00000000000E+00 0. -1.
         -1    1    3    3    0  502  0.10598295824E+02 -0.16284096258E+03  0.43889581684E+03  0.46825104485E+03  0.00000000000E+00 0.  1.
         13    1    5    5    0    0  0.19878281015E+03  0.54886358833E+03 -0.29547131438E+03  0.65426993040E+03  0.00000000000E+00 0. -1.
        -13    1    5    5    0    0  0.11300098608E+03  0.16165585860E+03 -0.86414038688E+02  0.21533514705E+03  0.00000000000E+00 0.  1.
          2    1    6    6  503    0 -0.13172074047E+03 -0.85846073426E+02 -0.44071527728E+02  0.16328564343E+03  0.00000000000E+00 0. -1.
         -2    1    6    6    0  503 -0.14559017043E+03 -0.19623400384E+02 -0.10731551716E+03  0.18192909551E+03  0.00000000000E+00 0.  1.
<mgrwt>
<rscale>  0 0.25760488E+04</rscale>
<asrwt>0</asrwt>
<pdfrwt beam="1">  1        2 0.27164585E+00 0.25760488E+04</pdfrwt>
<pdfrwt beam="2">  1       -1 0.14455010E+00 0.25760488E+04</pdfrwt>
<totfact> 0.35042346E+00</totfact>
</mgrwt>
</event>
<event>
12    7  0.1637954E-007  0.2616427E+04  0.7818608E-02  0.8362643E-01
         -1   -1    0    0    0  501 -0.00000000000E+00  0.00000000000E+00  0.70255395036E+03  0.70255395036E+03  0.00000000000E+00 0.  1.
          2   -1    0    0  501    0  0.00000000000E+00 -0.00000000000E+00 -0.24360008218E+04  0.24360008218E+04  0.00000000000E+00 0. -1.
         24    2    1    2    0    0  0.49626799737E+03  0.93918940585E+02  0.47790910633E+03  0.69987773448E+03  0.79555243037E+02 0.  0.
        254    2    1    2    0    0 -0.49626799737E+03 -0.93918940585E+02 -0.22113559778E+04  0.24386770377E+04  0.89551534942E+03 0.  0.
         23    2    4    4    0    0 -0.75141920295E+02  0.32277879046E+03 -0.38420929403E+03  0.51565148409E+03  0.91908735574E+02 0.  0.
         23    2    4    4    0    0 -0.42112607707E+03 -0.41669773104E+03 -0.18271466837E+04  0.19230255536E+04  0.92618054226E+02 0.  0.
          2    1    3    3  502    0  0.28493384595E+03  0.17866982911E+02  0.24346967339E+03  0.37521195012E+03  0.00000000000E+00 0. -1.
         -1    1    3    3    0  502  0.21133415142E+03  0.76051957673E+02  0.23443943294E+03  0.32466578436E+03  0.00000000000E+00 0.  1.
         13    1    5    5    0    0  0.17842692475E+02  0.60471554463E+02 -0.48238159185E+02  0.79385707627E+02  0.00000000000E+00 0. -1.
        -13    1    5    5    0    0 -0.92984612770E+02  0.26230723599E+03 -0.33597113484E+03  0.43626577647E+03  0.00000000000E+00 0.  1.
          1    1    6    6  503    0 -0.30240716203E+03 -0.24321080396E+03 -0.12453429168E+04  0.13044081291E+04  0.00000000000E+00 0. -1.
         -1    1    6    6    0  503 -0.11871891505E+03 -0.17348692708E+03 -0.58180376697E+03  0.61861742452E+03  0.00000000000E+00 0.  1.
<mgrwt>
<rscale>  0 0.26164266E+04</rscale>
<asrwt>0</asrwt>
<pdfrwt beam="1">  1        2 0.37476936E+00 0.26164266E+04</pdfrwt>
<pdfrwt beam="2">  1       -1 0.10808522E+00 0.26164266E+04</pdfrwt>
<totfact> 0.30284396E+00</totfact>
</mgrwt>
</event>
<event>
12    7  0.1637954E-007  0.1666742E+04  0.7818608E-02  0.8780563E-01
         -1   -1    0    0    0  501 -0.00000000000E+00  0.00000000000E+00  0.54478621823E+03  0.54478621823E+03  0.00000000000E+00 0.  1.
          2   -1    0    0  501    0  0.00000000000E+00 -0.00000000000E+00 -0.12748256407E+04  0.12748256407E+04  0.00000000000E+00 0. -1.
         24    2    1    2    0    0  0.35685899589E+02 -0.44715562716E+02  0.37770001647E+03  0.39057390925E+03  0.81349315722E+02 0.  0.
        254    2    1    2    0    0 -0.35685899589E+02  0.44715562716E+02 -0.11077394389E+04  0.14290379497E+04  0.90099380243E+03 0.  0.
         23    2    4    4    0    0 -0.20957043231E+03 -0.69114772930E+02  0.53916631857E+02  0.24543492925E+03  0.92922996965E+02 0.  0.
         23    2    4    4    0    0  0.17388453273E+03  0.11383033565E+03 -0.11616560708E+04  0.11836030204E+04  0.90984103490E+02 0.  0.
          4    1    3    3  502    0  0.26735164055E+02  0.13024252475E+02  0.54042827130E+02  0.61684903451E+02  0.00000000000E+00 0. -1.
         -3    1    3    3    0  502  0.89507355335E+01 -0.57739815191E+02  0.32365718934E+03  0.32888900580E+03  0.00000000000E+00 0.  1.
         13    1    5    5    0    0 -0.14851056993E+03 -0.42727617477E+02  0.79965618350E+02  0.17399867469E+03  0.00000000000E+00 0. -1.
        -13    1    5    5    0    0 -0.61059862389E+02 -0.26387155453E+02 -0.26048986493E+02  0.71436254558E+02  0.00000000000E+00 0.  1.
          4    1    6    6  503    0  0.77346385659E+02  0.93181669433E+02 -0.78201816399E+03  0.79133917867E+03  0.00000000000E+00 0. -1.
         -4    1    6    6    0  503  0.96538147067E+02  0.20648666213E+02 -0.37963790681E+03  0.39226384174E+03  0.00000000000E+00 0.  1.
<mgrwt>
<rscale>  0 0.16667423E+04</rscale>
<asrwt>0</asrwt>
<pdfrwt beam="1">  1        2 0.19612702E+00 0.16667423E+04</pdfrwt>
<pdfrwt beam="2">  1       -1 0.83813264E-01 0.16667423E+04</pdfrwt>
<totfact> 0.26256506E+01</totfact>
</mgrwt>
</event>
<event>
12    7  0.1637954E-007  0.1487526E+04  0.7818608E-02  0.8892791E-01
         -1   -1    0    0    0  501 -0.00000000000E+00  0.00000000000E+00  0.19937368665E+04  0.19937368665E+04  0.00000000000E+00 0.  1.
          2   -1    0    0  501    0  0.00000000000E+00 -0.00000000000E+00 -0.27746045804E+03  0.27746045804E+03  0.00000000000E+00 0. -1.
         24    2    1    2    0    0  0.19969102402E+03  0.27175022195E+03  0.49138154300E+02  0.34968427037E+03  0.78357147321E+02 0.  0.
        254    2    1    2    0    0 -0.19969102402E+03 -0.27175022195E+03  0.16671382541E+04  0.19215130541E+04  0.89394506018E+03 0.  0.
         23    2    4    4    0    0  0.10372263977E+03 -0.48992805148E+03  0.59797694404E+03  0.78516198282E+03  0.90083472565E+02 0.  0.
         23    2    4    4    0    0 -0.30341366379E+03  0.21817782953E+03  0.10691613101E+04  0.11363510713E+04  0.92338689717E+02 0.  0.
          2    1    3    3  502    0  0.43345289096E+02  0.55972664951E+02 -0.21551584338E+02  0.74001514147E+02  0.00000000000E+00 0. -1.
         -1    1    3    3    0  502  0.15634573492E+03  0.21577755699E+03  0.70689738638E+02  0.27568275622E+03  0.00000000000E+00 0.  1.
         13    1    5    5    0    0  0.42569847699E+02 -0.38505904337E+03  0.45209061471E+03  0.59537264190E+03  0.00000000000E+00 0.  1.
        -13    1    5    5    0    0  0.61152792074E+02 -0.10486900811E+03  0.14588632933E+03  0.18978934092E+03  0.00000000000E+00 0. -1.
          3    1    6    6  503    0 -0.99633780978E+02  0.26283964968E+02  0.34161125267E+03  0.35681365595E+03  0.00000000000E+00 0. -1.
         -3    1    6    6    0  503 -0.20377988281E+03  0.19189386457E+03  0.72755005741E+03  0.77953741536E+03  0.00000000000E+00 0.  1.
<mgrwt>
<rscale>  0 0.14875257E+04</rscale>
<asrwt>0</asrwt>
<pdfrwt beam="1">  1        2 0.42686226E-01 0.14875257E+04</pdfrwt>
<pdfrwt beam="2">  1       -1 0.30672874E+00 0.14875257E+04</pdfrwt>
<totfact> 0.39746928E+00</totfact>
</mgrwt>
</event>
<event>
12    7  0.1637954E-007  0.1551666E+04  0.7818608E-02  0.8850804E-01
          2   -1    0    0  501    0  0.00000000000E+00  0.00000000000E+00  0.16765637629E+04  0.16765637629E+04  0.00000000000E+00 0. -1.
         -1   -1    0    0    0  501 -0.00000000000E+00 -0.00000000000E+00 -0.35901816430E+03  0.35901816430E+03  0.00000000000E+00 0.  1.
         24    2    1    2    0    0  0.25199031743E+03 -0.94949061071E+02 -0.13164085966E+03  0.30975911487E+03  0.78146970758E+02 0.  0.
        254    2    1    2    0    0 -0.25199031743E+03  0.94949061071E+02  0.14491864583E+04  0.17258228124E+04  0.89766839340E+03 0.  0.
         23    2    4    4    0    0 -0.43160062730E+02  0.46831658735E+03  0.92891235560E+03  0.10454731843E+04  0.94619224353E+02 0.  0.
         23    2    4    4    0    0 -0.20883025470E+03 -0.37336752628E+03  0.52027410268E+03  0.68034962810E+03  0.95797127156E+02 0.  0.
          4    1    3    3  502    0  0.39167945529E+02 -0.24656777631E+02  0.61063174456E+01  0.46683741847E+02  0.00000000000E+00 0. -1.
         -3    1    3    3    0  502  0.21282237190E+03 -0.70292283440E+02 -0.13774717710E+03  0.26307537303E+03  0.00000000000E+00 0.  1.
         13    1    5    5    0    0 -0.60302727306E+02  0.41381555768E+03  0.85734551342E+03  0.95389782686E+03  0.00000000000E+00 0.  1.
        -13    1    5    5    0    0  0.17142664576E+02  0.54501029674E+02  0.71566842178E+02  0.91575357404E+02  0.00000000000E+00 0. -1.
          3    1    6    6  503    0 -0.38031079909E+01 -0.15899076577E+02  0.61655306643E+02  0.63785743734E+02  0.00000000000E+00 0. -1.
         -3    1    6    6    0  503 -0.20502714671E+03 -0.35746844970E+03  0.45861879604E+03  0.61656388436E+03  0.00000000000E+00 0.  1.
<mgrwt>
<rscale>  0 0.15516660E+04</rscale>
<asrwt>0</asrwt>
<pdfrwt beam="1">  1        2 0.25793288E+00 0.15516660E+04</pdfrwt>
<pdfrwt beam="2">  1       -1 0.55233565E-01 0.15516660E+04</pdfrwt>
<totfact> 0.36717604E+01</totfact>
</mgrwt>
</event>
<event>
12    7  0.1637954E-007  0.2074312E+04  0.7818608E-02  0.8572644E-01
         -1   -1    0    0    0  501 -0.00000000000E+00  0.00000000000E+00  0.10853340200E+04  0.10853340200E+04  0.00000000000E+00 0.  1.
          2   -1    0    0  501    0  0.00000000000E+00 -0.00000000000E+00 -0.99111700929E+03  0.99111700929E+03  0.00000000000E+00 0. -1.
         24    2    1    2    0    0 -0.10059995174E+03  0.74720401853E+03  0.38450281785E+03  0.85020398570E+03  0.81056799643E+02 0.  0.
        254    2    1    2    0    0  0.10059995174E+03 -0.74720401853E+03 -0.29028580717E+03  0.12262470436E+04  0.92248672965E+03 0.  0.
         23    2    4    4    0    0  0.36975458794E+03 -0.68108491443E+02 -0.30013427762E+03  0.48988560483E+03  0.92466746993E+02 0.  0.
         23    2    4    4    0    0 -0.26915463621E+03 -0.67909552709E+03  0.98484704534E+01  0.73636143873E+03  0.92283384025E+02 0.  0.
          4    1    3    3  502    0 -0.55430143414E+02  0.52484021233E+03  0.30627793151E+03  0.61019334690E+03  0.00000000000E+00 0. -1.
         -3    1    3    3    0  502 -0.45169808324E+02  0.22236380620E+03  0.78224886342E+02  0.24001063880E+03  0.00000000000E+00 0.  1.
         13    1    5    5    0    0  0.15488435182E+03 -0.51986123587E+02 -0.80237301272E+02  0.18201577953E+03  0.00000000000E+00 0.  1.
        -13    1    5    5    0    0  0.21487023613E+03 -0.16122367856E+02 -0.21989697635E+03  0.30786982529E+03  0.00000000000E+00 0. -1.
          2    1    6    6  503    0 -0.21213935795E+03 -0.46329985517E+03  0.40034945908E+02  0.51112880949E+03  0.00000000000E+00 0.  1.
         -2    1    6    6    0  503 -0.57015278253E+02 -0.21579567192E+03 -0.30186475455E+02  0.22523262924E+03  0.00000000000E+00 0. -1.
<mgrwt>
<rscale>  0 0.20743124E+04</rscale>
<asrwt>0</asrwt>
<pdfrwt beam="1">  1        2 0.15247954E+00 0.20743124E+04</pdfrwt>
<pdfrwt beam="2">  1       -1 0.16697446E+00 0.20743124E+04</pdfrwt>
<totfact> 0.69650715E+00</totfact>
</mgrwt>
</event>
<event>
12    7  0.1637954E-007  0.1685849E+04  0.7818608E-02  0.8769477E-01
         -1   -1    0    0    0  501 -0.00000000000E+00  0.00000000000E+00  0.18256698673E+03  0.18256698673E+03  0.00000000000E+00 0.  1.
          2   -1    0    0  501    0  0.00000000000E+00 -0.00000000000E+00 -0.38918410135E+04  0.38918410135E+04  0.00000000000E+00 0. -1.
         24    2    1    2    0    0 -0.13027972873E+03  0.51163201097E+03 -0.64801519839E+03  0.83953245289E+03  0.78427799567E+02 0.  0.
        254    2    1    2    0    0  0.13027972873E+03 -0.51163201097E+03 -0.30612588283E+04  0.32348755473E+04  0.90242676712E+03 0.  0.
         23    2    4    4    0    0 -0.44672709225E+02 -0.63405498043E+03 -0.28504587570E+04  0.29218362349E+04  0.89389535515E+02 0.  0.
         23    2    4    4    0    0  0.17495243796E+03  0.12242296946E+03 -0.21080007136E+03  0.31303931241E+03  0.89225568257E+02 0.  0.
          2    1    3    3  502    0 -0.93767665885E+01  0.65477902663E+02 -0.46199406807E+02  0.80682493009E+02  0.00000000000E+00 0. -1.
         -1    1    3    3    0  502 -0.12090296214E+03  0.44615410831E+03 -0.60181579159E+03  0.75884995989E+03  0.00000000000E+00 0.  1.
         13    1    5    5    0    0 -0.13576529092E+02 -0.34030362441E+03 -0.13272516998E+04  0.13702510549E+04  0.00000000000E+00 0. -1.
        -13    1    5    5    0    0 -0.31096180133E+02 -0.29375135602E+03 -0.15232070572E+04  0.15515851800E+04  0.00000000000E+00 0.  1.
          2    1    6    6  503    0  0.12641767990E+03  0.10485256220E+03 -0.10394684009E+03  0.19437189909E+03  0.00000000000E+00 0. -1.
         -2    1    6    6    0  503  0.48534758054E+02  0.17570407255E+02 -0.10685323127E+03  0.11866741331E+03  0.00000000000E+00 0.  1.
<mgrwt>
<rscale>  0 0.16858490E+04</rscale>
<asrwt>0</asrwt>
<pdfrwt beam="1">  1        2 0.59874475E+00 0.16858490E+04</pdfrwt>
<pdfrwt beam="2">  1       -1 0.28087230E-01 0.16858490E+04</pdfrwt>
<totfact> 0.52639335E+00</totfact>
</mgrwt>
</event>
<event>
12    7  0.1637954E-007  0.2205219E+04  0.7818608E-02  0.8516259E-01
         -3   -1    0    0    0  501 -0.00000000000E+00  0.00000000000E+00  0.52950669561E+03  0.52950669561E+03  0.00000000000E+00 0.  1.
          2   -1    0    0  501    0  0.00000000000E+00 -0.00000000000E+00 -0.22960015924E+04  0.22960015924E+04  0.00000000000E+00 0. -1.
         24    2    1    2    0    0 -0.45838903372E+03 -0.44384561974E+03 -0.15730664432E+04  0.16994263498E+04  0.79952757393E+02 0.  0.
        254    2    1    2    0    0  0.45838903372E+03  0.44384561974E+03 -0.19342845359E+03  0.11260819382E+04  0.90748362213E+03 0.  0.
         23    2    4    4    0    0  0.44536614928E+03  0.15266619892E+03 -0.49997322273E+03  0.69288826958E+03  0.91994322976E+02 0.  0.
         23    2    4    4    0    0  0.13022884439E+02  0.29117942082E+03  0.30654476914E+03  0.43319366860E+03  0.93445216023E+02 0.  0.
          2    1    3    3  502    0 -0.40572479815E+03 -0.40817727593E+03 -0.13521207938E+04  0.14695073805E+04  0.00000000000E+00 0. -1.
         -1    1    3    3    0  502 -0.52664235562E+02 -0.35668343814E+02 -0.22094564939E+03  0.22991896930E+03  0.00000000000E+00 0.  1.
         13    1    5    5    0    0  0.20119160597E+03  0.39644510229E+02 -0.26926373675E+03  0.33845636268E+03  0.00000000000E+00 0. -1.
        -13    1    5    5    0    0  0.24417454330E+03  0.11302168869E+03 -0.23070948598E+03  0.35443190690E+03  0.00000000000E+00 0.  1.
          3    1    6    6  503    0  0.36181424354E+02  0.16367338064E+03  0.12041134125E+03  0.20639031493E+03  0.00000000000E+00 0. -1.
         -3    1    6    6    0  503 -0.23158539915E+02  0.12750604019E+03  0.18613342789E+03  0.22680335366E+03  0.00000000000E+00 0.  1.
<mgrwt>
<rscale>  0 0.22052195E+04</rscale>
<asrwt>0</asrwt>
<pdfrwt beam="1">  1        2 0.35323102E+00 0.22052195E+04</pdfrwt>
<pdfrwt beam="2">  1       -3 0.81462567E-01 0.22052195E+04</pdfrwt>
<totfact> 0.37215648E+00</totfact>
</mgrwt>
</event>
<event>
12    7  0.1637954E-007  0.1670096E+04  0.7818608E-02  0.8778606E-01
         -1   -1    0    0    0  501 -0.00000000000E+00  0.00000000000E+00  0.13845474878E+04  0.13845474878E+04  0.00000000000E+00 0.  1.
          2   -1    0    0  501    0  0.00000000000E+00 -0.00000000000E+00 -0.50363379440E+03  0.50363379440E+03  0.00000000000E+00 0. -1.
         24    2    1    2    0    0  0.11933399116E+03  0.44654422437E+03  0.74821984006E+03  0.88308498829E+03  0.79773565371E+02 0.  0.
        254    2    1    2    0    0 -0.11933399116E+03 -0.44654422437E+03  0.13269385334E+03  0.10050962939E+04  0.88259195302E+03 0.  0.
         23    2    4    4    0    0 -0.43999555641E+03 -0.40883055342E+03  0.23945282715E+03  0.65298875455E+03  0.91203870867E+02 0.  0.
         23    2    4    4    0    0  0.32066156526E+03 -0.37713670947E+02 -0.10675897381E+03  0.35210753935E+03  0.91302137829E+02 0.  0.
          2    1    3    3  502    0  0.22539935806E+02  0.17234190854E+03  0.34047918463E+03  0.38227719957E+03  0.00000000000E+00 0. -1.
         -1    1    3    3    0  502  0.96794055351E+02  0.27420231583E+03  0.40774065543E+03  0.50080778872E+03  0.00000000000E+00 0.  1.
         13    1    5    5    0    0 -0.34817459035E+03 -0.36911899973E+03  0.19720999549E+03  0.54439522743E+03  0.00000000000E+00 0. -1.
        -13    1    5    5    0    0 -0.91820966065E+02 -0.39711553695E+02  0.42242831660E+02  0.10859352712E+03  0.00000000000E+00 0.  1.
          4    1    6    6  503    0  0.25872571056E+03 -0.51922472525E+01 -0.53659895717E+02  0.26428268416E+03  0.00000000000E+00 0. -1.
         -4    1    6    6    0  503  0.61935854693E+02 -0.32521423694E+02 -0.53099078093E+02  0.87824855194E+02  0.00000000000E+00 0.  1.
<mgrwt>
<rscale>  0 0.16700957E+04</rscale>
<asrwt>0</asrwt>
<pdfrwt beam="1">  1        2 0.77482123E-01 0.16700957E+04</pdfrwt>
<pdfrwt beam="2">  1       -1 0.21300730E+00 0.16700957E+04</pdfrwt>
<totfact> 0.81637910E+00</totfact>
</mgrwt>
</event>
<event>
12    7  0.1637954E-007  0.2781620E+04  0.7818608E-02  0.8308997E-01
          2   -1    0    0  501    0  0.00000000000E+00  0.00000000000E+00  0.13149244329E+04  0.13149244329E+04  0.00000000000E+00 0. -1.
         -1   -1    0    0    0  501 -0.00000000000E+00 -0.00000000000E+00 -0.14710749970E+04  0.14710749970E+04  0.00000000000E+00 0.  1.
         24    2    1    2    0    0 -0.56926764782E+03 -0.54072541707E+03  0.90429856137E+03  0.12002962180E+04  0.80656626581E+02 0.  0.
        254    2    1    2    0    0  0.56926764782E+03  0.54072541707E+03 -0.10604491255E+04  0.15857032118E+04  0.87946159478E+03 0.  0.
         23    2    4    4    0    0  0.71348708225E+03  0.48317511968E+03 -0.50732502935E+03  0.10040485028E+04  0.90623935907E+02 0.  0.
         23    2    4    4    0    0 -0.14421943443E+03  0.57550297390E+02 -0.55312409611E+03  0.58165470900E+03  0.90910135905E+02 0.  0.
          2    1    3    3  502    0 -0.55406337581E+03 -0.51181161641E+03  0.88297648649E+03  0.11612858523E+04  0.00000000000E+00 0. -1.
         -1    1    3    3    0  502 -0.15204272012E+02 -0.28913800658E+02  0.21322074880E+02  0.39010365714E+02  0.00000000000E+00 0.  1.
         13    1    5    5    0    0  0.30517603063E+03  0.20725160499E+03 -0.26955297957E+03  0.45688559425E+03  0.00000000000E+00 0. -1.
        -13    1    5    5    0    0  0.40831105162E+03  0.27592351469E+03 -0.23777204978E+03  0.54716290855E+03  0.00000000000E+00 0.  1.
          4    1    6    6  503    0 -0.27420754382E+02  0.45753483900E+02 -0.97359143187E+02  0.11101388121E+03  0.00000000000E+00 0. -1.
         -4    1    6    6    0  503 -0.11679868004E+03  0.11796813490E+02 -0.45576495292E+03  0.47064082778E+03  0.00000000000E+00 0.  1.
<mgrwt>
<rscale>  0 0.27816200E+04</rscale>
<asrwt>0</asrwt>
<pdfrwt beam="1">  1        2 0.20229607E+00 0.27816200E+04</pdfrwt>
<pdfrwt beam="2">  1       -1 0.22631923E+00 0.27816200E+04</pdfrwt>
<totfact> 0.16063671E+00</totfact>
</mgrwt>
</event>
<event>
12    7  0.1637954E-007  0.2375699E+04  0.7818608E-02  0.8448658E-01
          2   -1    0    0  501    0  0.00000000000E+00  0.00000000000E+00  0.10854978335E+04  0.10854978335E+04  0.00000000000E+00 0. -1.
         -1   -1    0    0    0  501 -0.00000000000E+00 -0.00000000000E+00 -0.12998520015E+04  0.12998520015E+04  0.00000000000E+00 0.  1.
         24    2    1    2    0    0  0.52601854168E+03  0.82763108794E+03 -0.35731810576E+03  0.10464490898E+04  0.75569470339E+02 0.  0.
        254    2    1    2    0    0 -0.52601854168E+03 -0.82763108794E+03  0.14296393777E+03  0.13389007452E+04  0.90030427857E+03 0.  0.
         23    2    4    4    0    0 -0.68081233066E+03 -0.28007806001E+03 -0.10417506971E+02  0.74234207684E+03  0.94942536937E+02 0.  0.
         23    2    4    4    0    0  0.15479378898E+03 -0.54755302794E+03  0.15338144474E+03  0.59655866833E+03  0.92633372322E+02 0.  0.
          2    1    3    3  502    0  0.28409632526E+03  0.44344899293E+03 -0.15177501040E+03  0.54808154972E+03  0.00000000000E+00 0. -1.
         -1    1    3    3    0  502  0.24192221642E+03  0.38418209501E+03 -0.20554309536E+03  0.49836754005E+03  0.00000000000E+00 0.  1.
         13    1    5    5    0    0 -0.53583254743E+03 -0.20743413382E+03 -0.45663996546E+02  0.57639451710E+03  0.00000000000E+00 0. -1.
        -13    1    5    5    0    0 -0.14497978323E+03 -0.72643926190E+02  0.35246489575E+02  0.16594755974E+03  0.00000000000E+00 0.  1.
          4    1    6    6  503    0  0.11060949236E+03 -0.43386838859E+03  0.81862773912E+02  0.45516782858E+03  0.00000000000E+00 0. -1.
         -4    1    6    6    0  503  0.44184296619E+02 -0.11368463934E+03  0.71518670827E+02  0.14139083976E+03  0.00000000000E+00 0.  1.
<mgrwt>
<rscale>  0 0.23756991E+04</rscale>
<asrwt>0</asrwt>
<pdfrwt beam="1">  1        2 0.16699967E+00 0.23756991E+04</pdfrwt>
<pdfrwt beam="2">  1       -1 0.19997723E+00 0.23756991E+04</pdfrwt>
<totfact> 0.34397876E+00</totfact>
</mgrwt>
</event>
<event>
12    7  0.1637954E-007  0.1775249E+04  0.7818608E-02  0.8719573E-01
         -1   -1    0    0    0  501 -0.00000000000E+00  0.00000000000E+00  0.34100326989E+03  0.34100326989E+03  0.00000000000E+00 0.  1.
          2   -1    0    0  501    0  0.00000000000E+00 -0.00000000000E+00 -0.23104694903E+04  0.23104694903E+04  0.00000000000E+00 0. -1.
         24    2    1    2    0    0  0.19681799905E+03 -0.22004146299E+03 -0.16004409904E+04  0.16293957929E+04  0.79772903535E+02 0.  0.
        254    2    1    2    0    0 -0.19681799905E+03  0.22004146299E+03 -0.36902523006E+03  0.10220769673E+04  0.90625942007E+03 0.  0.
         23    2    4    4    0    0 -0.24691684374E+03  0.32263429037E+03 -0.61116299623E+03  0.73961146096E+03  0.91891741652E+02 0.  0.
         23    2    4    4    0    0  0.50098844687E+02 -0.10259282738E+03  0.24213776616E+03  0.28246550633E+03  0.90115936402E+02 0.  0.
          2    1    3    3  502    0  0.58385219464E+02 -0.12189255311E+03 -0.77416698022E+03  0.78587603451E+03  0.00000000000E+00 0. -1.
         -1    1    3    3    0  502  0.13843277959E+03 -0.98148909880E+02 -0.82627401016E+03  0.84351975842E+03  0.00000000000E+00 0.  1.
         13    1    5    5    0    0 -0.16439559984E+03  0.22718194604E+03 -0.49062656929E+03  0.56511236082E+03  0.00000000000E+00 0.  1.
        -13    1    5    5    0    0 -0.82521243897E+02  0.95452344336E+02 -0.12053642694E+03  0.17449910015E+03  0.00000000000E+00 0. -1.
          3    1    6    6  503    0  0.10100694378E+02 -0.30610749762E+02  0.65403023762E+01  0.32890995471E+02  0.00000000000E+00 0. -1.
         -3    1    6    6    0  503  0.39998150309E+02 -0.71982077621E+02  0.23559746379E+03  0.24957451086E+03  0.00000000000E+00 0.  1.
<mgrwt>
<rscale>  0 0.17752494E+04</rscale>
<asrwt>0</asrwt>
<pdfrwt beam="1">  1        2 0.35545683E+00 0.17752494E+04</pdfrwt>
<pdfrwt beam="2">  1       -1 0.52462044E-01 0.17752494E+04</pdfrwt>
<totfact> 0.17644483E+01</totfact>
</mgrwt>
</event>
<event>
12    7  0.1637954E-007  0.1539114E+04  0.7818608E-02  0.8858851E-01
          2   -1    0    0  501    0  0.00000000000E+00  0.00000000000E+00  0.27863470493E+04  0.27863470493E+04  0.00000000000E+00 0. -1.
         -1   -1    0    0    0  501 -0.00000000000E+00 -0.00000000000E+00 -0.21254284635E+03  0.21254284635E+03  0.00000000000E+00 0.  1.
         24    2    1    2    0    0 -0.11576181320E+03 -0.35134042361E+03  0.18524504391E+03  0.42087230316E+03  0.77310274950E+02 0.  0.
        254    2    1    2    0    0  0.11576181320E+03  0.35134042361E+03  0.23885591591E+04  0.25780175925E+04  0.89672680361E+03 0.  0.
         23    2    4    4    0    0  0.15614464177E+03 -0.10817567168E+03  0.18543966212E+04  0.18663694215E+04  0.92004694949E+02 0.  0.
         23    2    4    4    0    0 -0.40382828571E+02  0.45951609529E+03  0.53416253790E+03  0.71164817100E+03  0.91256165359E+02 0.  0.
          2    1    3    3  502    0 -0.68907538249E+02 -0.25137993654E+03  0.16540992990E+03  0.30870789791E+03  0.00000000000E+00 0. -1.
         -1    1    3    3    0  502 -0.46854274950E+02 -0.99960487070E+02  0.19835114010E+02  0.11216440525E+03  0.00000000000E+00 0.  1.
         13    1    5    5    0    0  0.17782437196E+01 -0.41171901591E+02  0.28234959984E+03  0.28534117152E+03  0.00000000000E+00 0.  1.
        -13    1    5    5    0    0  0.15436639805E+03 -0.67003770088E+02  0.15720470213E+04  0.15810282500E+04  0.00000000000E+00 0. -1.
          1    1    6    6  503    0 -0.59767103177E+02  0.32104484769E+03  0.41395440692E+03  0.52725719707E+03  0.00000000000E+00 0. -1.
         -1    1    6    6    0  503  0.19384274606E+02  0.13847124759E+03  0.12020813098E+03  0.18439097393E+03  0.00000000000E+00 0.  1.
<mgrwt>
<rscale>  0 0.15391142E+04</rscale>
<asrwt>0</asrwt>
<pdfrwt beam="1">  1        2 0.42866875E+00 0.15391142E+04</pdfrwt>
<pdfrwt beam="2">  1       -1 0.32698902E-01 0.15391142E+04</pdfrwt>
<totfact> 0.22761488E+01</totfact>
</mgrwt>
</event>
<event>
12    7  0.1637954E-007  0.1069915E+04  0.7818608E-02  0.9235021E-01
          2   -1    0    0  501    0  0.00000000000E+00  0.00000000000E+00  0.79178512985E+03  0.79178512985E+03  0.00000000000E+00 0. -1.
         -1   -1    0    0    0  501 -0.00000000000E+00 -0.00000000000E+00 -0.36143573377E+03  0.36143573377E+03  0.00000000000E+00 0.  1.
         24    2    1    2    0    0 -0.49528897195E+02  0.14798609961E+03 -0.49127864267E+02  0.18042697181E+03  0.76074619766E+02 0.  0.
        254    2    1    2    0    0  0.49528897195E+02 -0.14798609961E+03  0.47947726036E+03  0.97279389181E+03  0.83191136271E+03 0.  0.
         23    2    4    4    0    0 -0.68294999553E+02 -0.19558300471E+03  0.68104612301E+03  0.71784709937E+03  0.92540357170E+02 0.  0.
         23    2    4    4    0    0  0.11782389675E+03  0.47596905099E+02 -0.20156886266E+03  0.25494679244E+03  0.90663799628E+02 0.  0.
          4    1    3    3  502    0 -0.57535548024E+02  0.55856142588E+02 -0.13464777571E+02  0.81311427156E+02  0.00000000000E+00 0. -1.
         -3    1    3    3    0  502  0.80066508288E+01  0.92129957026E+02 -0.35663086697E+02  0.99115544652E+02  0.00000000000E+00 0.  1.
         13    1    5    5    0    0 -0.72543231544E+01  0.53949981937E+01  0.59318416459E+01  0.10812860641E+02  0.00000000000E+00 0.  1.
        -13    1    5    5    0    0 -0.61040676398E+02 -0.20097800291E+03  0.67511428137E+03  0.70703423873E+03  0.00000000000E+00 0. -1.
          1    1    6    6  503    0  0.65319699203E+02  0.43885268669E+02 -0.18288005001E+03  0.19909217112E+03  0.00000000000E+00 0. -1.
         -1    1    6    6    0  503  0.52504197544E+02  0.37116364294E+01 -0.18688812650E+02  0.55854621322E+02  0.00000000000E+00 0.  1.
<mgrwt>
<rscale>  0 0.10699148E+04</rscale>
<asrwt>0</asrwt>
<pdfrwt beam="1">  1        2 0.12181310E+00 0.10699148E+04</pdfrwt>
<pdfrwt beam="2">  1       -1 0.55605498E-01 0.10699148E+04</pdfrwt>
<totfact> 0.12966370E+02</totfact>
</mgrwt>
</event>
<event>
12    7  0.1637954E-007  0.1815841E+04  0.7818608E-02  0.8697920E-01
          2   -1    0    0  501    0  0.00000000000E+00  0.00000000000E+00  0.18679653320E+04  0.18679653320E+04  0.00000000000E+00 0. -1.
         -1   -1    0    0    0  501 -0.00000000000E+00 -0.00000000000E+00 -0.44129294788E+03  0.44129294788E+03  0.00000000000E+00 0.  1.
         24    2    1    2    0    0  0.42043902738E+02 -0.16160442823E+03 -0.29830613884E+03  0.35098294304E+03  0.79490835070E+02 0.  0.
        254    2    1    2    0    0 -0.42043902738E+02  0.16160442823E+03  0.17249785229E+04  0.19582753368E+04  0.91181561142E+03 0.  0.
         23    2    4    4    0    0  0.24895413564E+03 -0.28319398626E+03  0.69959183351E+03  0.79972316797E+03  0.89170714781E+02 0.  0.
         23    2    4    4    0    0 -0.29099803837E+03  0.44479841449E+03  0.10253866894E+04  0.11585521689E+04  0.91103113156E+02 0.  0.
          2    1    3    3  502    0 -0.80235573156E+01 -0.55422741589E+02 -0.45158520146E+02  0.71939903385E+02  0.00000000000E+00 0. -1.
         -1    1    3    3    0  502  0.50067460053E+02 -0.10618168664E+03 -0.25314761869E+03  0.27904303966E+03  0.00000000000E+00 0.  1.
         13    1    5    5    0    0  0.59549431607E+02 -0.75437413896E+02  0.26732206184E+03  0.28407397446E+03  0.00000000000E+00 0.  1.
        -13    1    5    5    0    0  0.18940470403E+03 -0.20775657236E+03  0.43226977166E+03  0.51564919350E+03  0.00000000000E+00 0. -1.
          1    1    6    6  503    0 -0.17966682794E+03  0.31278248666E+03  0.76943252436E+03  0.84978789269E+03  0.00000000000E+00 0. -1.
         -1    1    6    6    0  503 -0.11133121043E+03  0.13201592783E+03  0.25595416508E+03  0.30876427617E+03  0.00000000000E+00 0.  1.
<mgrwt>
<rscale>  0 0.18158413E+04</rscale>
<asrwt>0</asrwt>
<pdfrwt beam="1">  1        2 0.28737928E+00 0.18158413E+04</pdfrwt>
<pdfrwt beam="2">  1       -1 0.67891224E-01 0.18158413E+04</pdfrwt>
<totfact> 0.18660203E+01</totfact>
</mgrwt>
</event>
<event>
12    7  0.1663454E-007  0.1355874E+04  0.7818608E-02  0.8986394E-01
         -1   -1    0    0    0  501 -0.00000000000E+00  0.00000000000E+00  0.57184826816E+03  0.57184826816E+03  0.00000000000E+00 0.  1.
          2   -1    0    0  501    0  0.00000000000E+00 -0.00000000000E+00 -0.80370668249E+03  0.80370668249E+03  0.00000000000E+00 0. -1.
         24    2    1    2    0    0  0.13115230419E+03 -0.18726832422E+03  0.22450363554E+03  0.33020899880E+03  0.79785640104E+02 0.  0.
        254    2    1    2    0    0 -0.13115230419E+03  0.18726832422E+03 -0.45636204988E+03  0.10453459519E+04  0.91225626133E+03 0.  0.
         23    2    4    4    0    0  0.18084405464E+03 -0.14662321433E+03 -0.51819671619E+03  0.57508494945E+03  0.89397557751E+02 0.  0.
         23    2    4    4    0    0 -0.31199635883E+03  0.33389153855E+03  0.61834666310E+02  0.47026100240E+03  0.92176987279E+02 0.  0.
          4    1    3    3  502    0 -0.47927333460E+01  0.17295717073E+00 -0.29509410188E+01  0.56310087911E+01  0.00000000000E+00 0. -1.
         -3    1    3    3    0  502  0.13594503754E+03 -0.18744128139E+03  0.22745457656E+03  0.32457799001E+03  0.00000000000E+00 0.  1.
         13    1    5    5    0    0  0.11071213374E+03 -0.12660138807E+03 -0.28689041149E+03  0.33255254656E+03  0.00000000000E+00 0. -1.
        -13    1    5    5    0    0  0.70131920897E+02 -0.20021826258E+02 -0.23130630470E+03  0.24253240289E+03  0.00000000000E+00 0.  1.
          2    1    6    6  503    0 -0.27617076906E+03  0.26452850134E+03  0.78594873052E+02  0.39041359578E+03  0.00000000000E+00 0. -1.
         -2    1    6    6    0  503 -0.35825589775E+02  0.69363037213E+02 -0.16760206742E+02  0.79847406622E+02  0.00000000000E+00 0.  1.
<mgrwt>
<rscale>  0 0.13558736E+04</rscale>
<asrwt>0</asrwt>
<pdfrwt beam="1">  1        2 0.12364718E+00 0.13558736E+04</pdfrwt>
<pdfrwt beam="2">  1       -1 0.87976657E-01 0.13558736E+04</pdfrwt>
<totfact> 0.48485134E+01</totfact>
</mgrwt>
</event>
<event>
12    7  0.1637954E-007  0.1848701E+04  0.7818608E-02  0.8680821E-01
          2   -1    0    0  501    0  0.00000000000E+00  0.00000000000E+00  0.17284298366E+04  0.17284298366E+04  0.00000000000E+00 0. -1.
         -1   -1    0    0    0  501 -0.00000000000E+00 -0.00000000000E+00 -0.49433535012E+03  0.49433535012E+03  0.00000000000E+00 0.  1.
         24    2    1    2    0    0  0.41806335303E+03 -0.14840472677E+03 -0.14438069578E+03  0.47317748684E+03  0.79058324428E+02 0.  0.
        254    2    1    2    0    0 -0.41806335303E+03  0.14840472677E+03  0.13784751823E+04  0.17495876999E+04  0.98186677374E+03 0.  0.
         23    2    4    4    0    0 -0.54913926613E+03 -0.27548858141E+03  0.73017411193E+03  0.95878981319E+03  0.93143867502E+02 0.  0.
         23    2    4    4    0    0  0.13107591310E+03  0.42389330819E+03  0.64830107034E+03  0.79079788669E+03  0.90557098432E+02 0.  0.
          2    1    3    3  502    0  0.35103230770E+02 -0.23435638741E+02 -0.37365457612E+02  0.56370589816E+02  0.00000000000E+00 0. -1.
         -1    1    3    3    0  502  0.38296012226E+03 -0.12496908803E+03 -0.10701523817E+03  0.41680689702E+03  0.00000000000E+00 0.  1.
         13    1    5    5    0    0 -0.13966817592E+03 -0.31871697206E+02  0.14021309327E+03  0.20045626947E+03  0.00000000000E+00 0.  1.
        -13    1    5    5    0    0 -0.40947109021E+03 -0.24361688421E+03  0.58996101866E+03  0.75833354372E+03  0.00000000000E+00 0. -1.
          3    1    6    6  503    0  0.11648945397E+03  0.34362946932E+03  0.58123835351E+03  0.68519269455E+03  0.00000000000E+00 0. -1.
         -3    1    6    6    0  503  0.14586459124E+02  0.80263838863E+02  0.67062716824E+02  0.10560519214E+03  0.00000000000E+00 0.  1.
<mgrwt>
<rscale>  0 0.18487011E+04</rscale>
<asrwt>0</asrwt>
<pdfrwt beam="1">  1        2 0.26591228E+00 0.18487011E+04</pdfrwt>
<pdfrwt beam="2">  1       -1 0.76051593E-01 0.18487011E+04</pdfrwt>
<totfact> 0.17586844E+01</totfact>
</mgrwt>
</event>
<event>
12    7  0.1637954E-007  0.1860995E+04  0.7818608E-02  0.8674519E-01
          2   -1    0    0  501    0  0.00000000000E+00  0.00000000000E+00  0.24784318481E+04  0.24784318481E+04  0.00000000000E+00 0. -1.
         -1   -1    0    0    0  501 -0.00000000000E+00 -0.00000000000E+00 -0.34934425580E+03  0.34934425580E+03  0.00000000000E+00 0.  1.
         24    2    1    2    0    0  0.42474179732E+03 -0.51044815987E+03  0.47163446507E+03  0.81842551543E+03  0.80114526494E+02 0.  0.
        254    2    1    2    0    0 -0.42474179732E+03  0.51044815987E+03  0.16574531272E+04  0.20093505885E+04  0.92161597214E+03 0.  0.
         23    2    4    4    0    0 -0.52550504855E+03  0.37146639179E+03  0.16914336164E+04  0.18124419403E+04  0.99273721603E+02 0.  0.
         23    2    4    4    0    0  0.10076325123E+03  0.13898176808E+03 -0.33980489198E+02  0.19690864819E+03  0.90272794518E+02 0.  0.
          4    1    3    3  502    0  0.88476812375E+00 -0.22486723065E+02  0.14825115602E+02  0.26948461579E+02  0.00000000000E+00 0. -1.
         -3    1    3    3    0  502  0.42385702920E+03 -0.48796143681E+03  0.45680934947E+03  0.79147705385E+03  0.00000000000E+00 0.  1.
         13    1    5    5    0    0 -0.43544363002E+02  0.25859561964E+02  0.73697082114E+02  0.89420849954E+02  0.00000000000E+00 0. -1.
        -13    1    5    5    0    0 -0.48196068555E+03  0.34560682983E+03  0.16177365343E+04  0.17230210903E+04  0.00000000000E+00 0.  1.
          4    1    6    6  503    0  0.52033203381E+01  0.69735280995E+02  0.10657970259E+02  0.70736668624E+02  0.00000000000E+00 0. -1.
         -4    1    6    6    0  503  0.95559930891E+02  0.69246487084E+02 -0.44638459457E+02  0.12617197957E+03  0.00000000000E+00 0.  1.
<mgrwt>
<rscale>  0 0.18609954E+04</rscale>
<asrwt>0</asrwt>
<pdfrwt beam="1">  1        2 0.38129720E+00 0.18609954E+04</pdfrwt>
<pdfrwt beam="2">  1       -1 0.53745272E-01 0.18609954E+04</pdfrwt>
<totfact> 0.13401362E+01</totfact>
</mgrwt>
</event>
<event>
12    7  0.1637954E-007  0.3078943E+04  0.7818608E-02  0.8221541E-01
          2   -1    0    0  501    0  0.00000000000E+00  0.00000000000E+00  0.21410843479E+04  0.21410843479E+04  0.00000000000E+00 0. -1.
         -1   -1    0    0    0  501 -0.00000000000E+00 -0.00000000000E+00 -0.11069026225E+04  0.11069026225E+04  0.00000000000E+00 0.  1.
         24    2    1    2    0    0 -0.94596669658E+03  0.91676451208E+03  0.99813126737E+03  0.16546071870E+04  0.78413996558E+02 0.  0.
        254    2    1    2    0    0  0.94596669658E+03 -0.91676451208E+03  0.36050457959E+02  0.15933797834E+04  0.89568372594E+03 0.  0.
         23    2    4    4    0    0  0.84343161056E+03 -0.93798227292E+03  0.29850291515E+03  0.12995029487E+04  0.91740379538E+02 0.  0.
         23    2    4    4    0    0  0.10253508602E+03  0.21217760840E+02 -0.26245245719E+03  0.29387683471E+03  0.80738246537E+02 0.  0.
          2    1    3    3  502    0 -0.73873671999E+03  0.68954013857E+03  0.73047947686E+03  0.12469153180E+04  0.00000000000E+00 0. -1.
         -1    1    3    3    0  502 -0.20722997659E+03  0.22722437351E+03  0.26765179051E+03  0.40769186903E+03  0.00000000000E+00 0.  1.
         13    1    5    5    0    0  0.24453885770E+03 -0.22539754730E+03  0.52273971030E+02  0.33665393998E+03  0.00000000000E+00 0. -1.
        -13    1    5    5    0    0  0.59889275286E+03 -0.71258472561E+03  0.24622894412E+03  0.96284900869E+03  0.00000000000E+00 0.  1.
          1    1    6    6  503    0  0.44727644596E+01 -0.21509354667E+02 -0.24031821586E+02  0.32560503818E+02  0.00000000000E+00 0. -1.
         -1    1    6    6    0  503  0.98062321557E+02  0.42727115508E+02 -0.23842063560E+03  0.26131633089E+03  0.00000000000E+00 0.  1.
<mgrwt>
<rscale>  0 0.30789426E+04</rscale>
<asrwt>0</asrwt>
<pdfrwt beam="1">  1        2 0.32939759E+00 0.30789426E+04</pdfrwt>
<pdfrwt beam="2">  1       -1 0.17029271E+00 0.30789426E+04</pdfrwt>
<totfact> 0.13196204E+00</totfact>
</mgrwt>
</event>
<event>
12    7  0.1637954E-007  0.1976108E+04  0.7818608E-02  0.8617873E-01
         -1   -1    0    0    0  501 -0.00000000000E+00  0.00000000000E+00  0.38898212287E+03  0.38898212287E+03  0.00000000000E+00 0.  1.
          2   -1    0    0  501    0  0.00000000000E+00 -0.00000000000E+00 -0.25097572167E+04  0.25097572167E+04  0.00000000000E+00 0. -1.
         24    2    1    2    0    0  0.20617394164E+03  0.28297093655E+03  0.18603995828E+03  0.40415584498E+03  0.78427264430E+02 0.  0.
        254    2    1    2    0    0 -0.20617394164E+03 -0.28297093655E+03 -0.23068150521E+04  0.24945834946E+04  0.88259327086E+03 0.  0.
         23    2    4    4    0    0 -0.13232493756E+03 -0.41706199035E+03 -0.46925347915E+03  0.64842626167E+03  0.93846663372E+02 0.  0.
         23    2    4    4    0    0 -0.73849004081E+02  0.13409105379E+03 -0.18375615729E+04  0.18461572329E+04  0.90718841616E+02 0.  0.
          2    1    3    3  502    0  0.13288755072E+03  0.15159962575E+03  0.67383510790E+02  0.21256077999E+03  0.00000000000E+00 0. -1.
         -1    1    3    3    0  502  0.73286390925E+02  0.13137131081E+03  0.11865644749E+03  0.19159506499E+03  0.00000000000E+00 0.  1.
         13    1    5    5    0    0 -0.14026818511E+03 -0.39158777946E+03 -0.41298255906E+03  0.58614908246E+03  0.00000000000E+00 0. -1.
        -13    1    5    5    0    0  0.79432475492E+01 -0.25474210886E+02 -0.56270920095E+02  0.62277179209E+02  0.00000000000E+00 0.  1.
          3    1    6    6  503    0 -0.76527808640E+02  0.71432312693E+02 -0.14268171345E+04  0.14306523743E+04  0.00000000000E+00 0. -1.
         -3    1    6    6    0  503  0.26788045584E+01  0.62658741101E+02 -0.41074443842E+03  0.41550485860E+03  0.00000000000E+00 0.  1.
<mgrwt>
<rscale>  0 0.19761080E+04</rscale>
<asrwt>0</asrwt>
<pdfrwt beam="1">  1        2 0.38611652E+00 0.19761080E+04</pdfrwt>
<pdfrwt beam="2">  1       -1 0.59843400E-01 0.19761080E+04</pdfrwt>
<totfact> 0.10314739E+01</totfact>
</mgrwt>
</event>
<event>
12    7  0.1637954E-007  0.2398475E+04  0.7818608E-02  0.8440075E-01
         -1   -1    0    0    0  501 -0.00000000000E+00  0.00000000000E+00  0.17733689484E+04  0.17733689484E+04  0.00000000000E+00 0.  1.
          2   -1    0    0  501    0  0.00000000000E+00 -0.00000000000E+00 -0.81098244237E+03  0.81098244237E+03  0.00000000000E+00 0. -1.
         24    2    1    2    0    0  0.85810573827E+03  0.28814666563E+03  0.93544940727E+03  0.13041832219E+04  0.80338806397E+02 0.  0.
        254    2    1    2    0    0 -0.85810573827E+03 -0.28814666563E+03  0.26937098769E+02  0.12801681689E+04  0.90483754029E+03 0.  0.
         23    2    4    4    0    0 -0.14472793075E+03 -0.48766272250E+03  0.11328879619E+03  0.52895015201E+03  0.90514126553E+02 0.  0.
         23    2    4    4    0    0 -0.71337780752E+03  0.19951605688E+03 -0.86351697422E+02  0.75121801686E+03  0.90317993728E+02 0.  0.
          4    1    3    3  502    0  0.75044253349E+03  0.27173122091E+03  0.84791924977E+03  0.11644607793E+04  0.00000000000E+00 0. -1.
         -3    1    3    3    0  502  0.10766320478E+03  0.16415444712E+02  0.87530157498E+02  0.13972244258E+03  0.00000000000E+00 0.  1.
         13    1    5    5    0    0 -0.20690587414E+02 -0.61308144027E+02 -0.15661959019E+02  0.66573912998E+02  0.00000000000E+00 0. -1.
        -13    1    5    5    0    0 -0.12403734334E+03 -0.42635457848E+03  0.12895075521E+03  0.46237623901E+03  0.00000000000E+00 0.  1.
          3    1    6    6  503    0 -0.34152410314E+02  0.31530642092E+02 -0.78100228000E+01  0.47133480427E+02  0.00000000000E+00 0. -1.
         -3    1    6    6    0  503 -0.67922539721E+03  0.16798541479E+03 -0.78541674622E+02  0.70408453643E+03  0.00000000000E+00 0.  1.
<mgrwt>
<rscale>  0 0.23984754E+04</rscale>
<asrwt>0</asrwt>
<pdfrwt beam="1">  1        2 0.12476653E+00 0.23984754E+04</pdfrwt>
<pdfrwt beam="2">  1       -1 0.27282599E+00 0.23984754E+04</pdfrwt>
<totfact> 0.17187789E+00</totfact>
</mgrwt>
</event>
<event>
12    7  0.1637954E-007  0.1345983E+04  0.7818608E-02  0.8993875E-01
         -1   -1    0    0    0  501 -0.00000000000E+00  0.00000000000E+00  0.37954999554E+03  0.37954999554E+03  0.00000000000E+00 0.  1.
          2   -1    0    0  501    0  0.00000000000E+00 -0.00000000000E+00 -0.11933014207E+04  0.11933014207E+04  0.00000000000E+00 0. -1.
         24    2    1    2    0    0  0.20094459914E+02  0.12336922702E+03  0.17882768115E+03  0.23212899986E+03  0.79251369308E+02 0.  0.
        254    2    1    2    0    0 -0.20094459914E+02 -0.12336922702E+03 -0.99257910627E+03  0.13407224164E+04  0.89258028322E+03 0.  0.
         23    2    4    4    0    0 -0.22218976536E+03 -0.12638407712E+02 -0.10573101931E+04  0.10843139807E+04  0.91125974144E+02 0.  0.
         23    2    4    4    0    0  0.20209530544E+03 -0.11073081931E+03  0.64731086827E+02  0.25640843563E+03  0.91931199470E+02 0.  0.
          4    1    3    3  502    0  0.45535317768E+01 -0.11426916105E+02  0.15691093971E+02  0.19937890895E+02  0.00000000000E+00 0. -1.
         -3    1    3    3    0  502  0.15540928137E+02  0.13479614312E+03  0.16313658717E+03  0.21219110896E+03  0.00000000000E+00 0.  1.
         13    1    5    5    0    0 -0.11655059764E+03 -0.34372919346E+02 -0.71997367314E+03  0.73015589391E+03  0.00000000000E+00 0.  1.
        -13    1    5    5    0    0 -0.10563916772E+03  0.21734511634E+02 -0.33733651996E+03  0.35415808681E+03  0.00000000000E+00 0. -1.
          2    1    6    6  503    0  0.10651721255E+03 -0.32184436502E+02  0.71911892130E+02  0.13248801739E+03  0.00000000000E+00 0. -1.
         -2    1    6    6    0  503  0.95578092891E+02 -0.78546382804E+02 -0.71808053032E+01  0.12392041824E+03  0.00000000000E+00 0.  1.
<mgrwt>
<rscale>  0 0.13459830E+04</rscale>
<asrwt>0</asrwt>
<pdfrwt beam="1">  1        2 0.18358484E+00 0.13459830E+04</pdfrwt>
<pdfrwt beam="2">  1       -1 0.58392306E-01 0.13459830E+04</pdfrwt>
<totfact> 0.63286255E+01</totfact>
</mgrwt>
</event>
<event>
12    7  0.1637954E-007  0.3614750E+04  0.7818608E-02  0.8087121E-01
          2   -1    0    0  501    0  0.00000000000E+00  0.00000000000E+00  0.29677983655E+04  0.29677983655E+04  0.00000000000E+00 0. -1.
         -1   -1    0    0    0  501 -0.00000000000E+00 -0.00000000000E+00 -0.11006829013E+04  0.11006829013E+04  0.00000000000E+00 0.  1.
         24    2    1    2    0    0  0.15735612767E+04  0.28073786172E+03  0.15123254190E+04  0.22019082108E+04  0.79766894348E+02 0.  0.
        254    2    1    2    0    0 -0.15735612767E+04 -0.28073786172E+03  0.35479004521E+03  0.18665730559E+04  0.89627571559E+03 0.  0.
         23    2    4    4    0    0 -0.40930598716E+03  0.25047151846E+03  0.31896453467E+03  0.58313528248E+03  0.89671682328E+02 0.  0.
         23    2    4    4    0    0 -0.11642552895E+04 -0.53120938018E+03  0.35825510545E+02  0.12834377734E+04  0.90858495863E+02 0.  0.
          4    1    3    3  502    0  0.14353272294E+04  0.27314726504E+03  0.13603334824E+04  0.19963168254E+04  0.00000000000E+00 0. -1.
         -3    1    3    3    0  502  0.13823404727E+03  0.75905966851E+01  0.15199193655E+03  0.20559138542E+03  0.00000000000E+00 0.  1.
         13    1    5    5    0    0 -0.25791638158E+03  0.11490557974E+03  0.21483794136E+03  0.35479500164E+03  0.00000000000E+00 0. -1.
        -13    1    5    5    0    0 -0.15138960558E+03  0.13556593872E+03  0.10412659331E+03  0.22834028084E+03  0.00000000000E+00 0.  1.
          3    1    6    6  503    0 -0.95779241213E+03 -0.42258761761E+03 -0.33403917209E+01  0.10468800110E+04  0.00000000000E+00 0. -1.
         -3    1    6    6    0  503 -0.20646287741E+03 -0.10862176258E+03  0.39165902266E+02  0.23655776240E+03  0.00000000000E+00 0.  1.
<mgrwt>
<rscale>  0 0.36147503E+04</rscale>
<asrwt>0</asrwt>
<pdfrwt beam="1">  1        2 0.45658436E+00 0.36147503E+04</pdfrwt>
<pdfrwt beam="2">  1       -1 0.16933583E+00 0.36147503E+04</pdfrwt>
<totfact> 0.41930524E-01</totfact>
</mgrwt>
</event>
<event>
12    7  0.1637954E-007  0.2103629E+04  0.7818608E-02  0.8559646E-01
          2   -1    0    0  501    0  0.00000000000E+00  0.00000000000E+00  0.29321869661E+04  0.29321869661E+04  0.00000000000E+00 0. -1.
         -1   -1    0    0    0  501 -0.00000000000E+00 -0.00000000000E+00 -0.37729989433E+03  0.37729989433E+03  0.00000000000E+00 0.  1.
         24    2    1    2    0    0 -0.19824741521E+03 -0.67611519586E+03  0.27964521903E+03  0.76198927533E+03  0.77410667784E+02 0.  0.
        254    2    1    2    0    0  0.19824741521E+03  0.67611519586E+03  0.22752418527E+04  0.25474975851E+04  0.90365074111E+03 0.  0.
         23    2    4    4    0    0  0.81165686669E+02 -0.89161380939E+02  0.12516882294E+04  0.12608612026E+04  0.92249271817E+02 0.  0.
         23    2    4    4    0    0  0.11708172854E+03  0.76527657680E+03  0.10235536233E+04  0.12866363825E+04  0.91732168203E+02 0.  0.
          2    1    3    3  502    0 -0.73640259723E+02 -0.29621700624E+03  0.16018279242E+03  0.34471137148E+03  0.00000000000E+00 0. -1.
         -1    1    3    3    0  502 -0.12460715549E+03 -0.37989818961E+03  0.11946242660E+03  0.41727790385E+03  0.00000000000E+00 0.  1.
         13    1    5    5    0    0  0.75147721082E+02 -0.25896608128E+02  0.47762410420E+03  0.48419272940E+03  0.00000000000E+00 0.  1.
        -13    1    5    5    0    0  0.60179655866E+01 -0.63264772811E+02  0.77406412516E+03  0.77666847319E+03  0.00000000000E+00 0. -1.
          4    1    6    6  503    0  0.10263972808E+03  0.37039530089E+03  0.49449212196E+03  0.62629869183E+03  0.00000000000E+00 0. -1.
         -4    1    6    6    0  503  0.14442000461E+02  0.39488127591E+03  0.52906150138E+03  0.66033769064E+03  0.00000000000E+00 0.  1.
<mgrwt>
<rscale>  0 0.21036291E+04</rscale>
<asrwt>0</asrwt>
<pdfrwt beam="1">  1        2 0.45110567E+00 0.21036291E+04</pdfrwt>
<pdfrwt beam="2">  1       -1 0.58046139E-01 0.21036291E+04</pdfrwt>
<totfact> 0.60593786E+00</totfact>
</mgrwt>
</event>
<event>
12    7  0.1637954E-007  0.1507012E+04  0.7818608E-02  0.8879803E-01
          2   -1    0    0  501    0  0.00000000000E+00  0.00000000000E+00  0.69808633875E+03  0.69808633875E+03  0.00000000000E+00 0. -1.
         -1   -1    0    0    0  501 -0.00000000000E+00 -0.00000000000E+00 -0.81332535272E+03  0.81332535272E+03  0.00000000000E+00 0.  1.
         24    2    1    2    0    0 -0.20065384472E+03  0.21849249201E+03  0.33941458270E+03  0.45786361353E+03  0.80224031160E+02 0.  0.
        254    2    1    2    0    0  0.20065384472E+03 -0.21849249201E+03 -0.45465359667E+03  0.10535480779E+04  0.90291346490E+03 0.  0.
         23    2    4    4    0    0 -0.24053980753E+03  0.13469422334E+03  0.47668006254E+02  0.29201948404E+03  0.83673218151E+02 0.  0.
         23    2    4    4    0    0  0.44119365225E+03 -0.35318671535E+03 -0.50232160293E+03  0.76152859389E+03  0.90587592248E+02 0.  0.
          2    1    3    3  502    0 -0.18177485747E+03  0.15802364040E+03  0.29321821964E+03  0.37946079384E+03  0.00000000000E+00 0. -1.
         -1    1    3    3    0  502 -0.18878987250E+02  0.60468851610E+02  0.46196363063E+02  0.78402819687E+02  0.00000000000E+00 0.  1.
         13    1    5    5    0    0 -0.13141028903E+03  0.42172555475E+02 -0.86035161900E+01  0.13827945975E+03  0.00000000000E+00 0.  1.
        -13    1    5    5    0    0 -0.10912951849E+03  0.92521667862E+02  0.56271522444E+02  0.15374002429E+03  0.00000000000E+00 0. -1.
          1    1    6    6  503    0  0.17392697376E+03 -0.19333879653E+03 -0.24971629876E+03  0.36053947400E+03  0.00000000000E+00 0. -1.
         -1    1    6    6    0  503  0.26726667849E+03 -0.15984791881E+03 -0.25260530416E+03  0.40098911989E+03  0.00000000000E+00 0.  1.
<mgrwt>
<rscale>  0 0.15070120E+04</rscale>
<asrwt>0</asrwt>
<pdfrwt beam="1">  1        2 0.10739790E+00 0.15070120E+04</pdfrwt>
<pdfrwt beam="2">  1       -1 0.12512698E+00 0.15070120E+04</pdfrwt>
<totfact> 0.25321558E+01</totfact>
</mgrwt>
</event>
<event>
12    7  0.1637954E-007  0.1567966E+04  0.7818608E-02  0.8840473E-01
          2   -1    0    0  501    0  0.00000000000E+00  0.00000000000E+00  0.81692145539E+03  0.81692145539E+03  0.00000000000E+00 0. -1.
         -1   -1    0    0    0  501 -0.00000000000E+00 -0.00000000000E+00 -0.75237239019E+03  0.75237239019E+03  0.00000000000E+00 0.  1.
         24    2    1    2    0    0  0.40792158964E+03 -0.32000031863E+03 -0.51822186306E+02  0.52726400658E+03  0.80756216030E+02 0.  0.
        254    2    1    2    0    0 -0.40792158964E+03  0.32000031863E+03  0.11637125151E+03  0.10420298390E+04  0.89637251741E+03 0.  0.
         23    2    4    4    0    0 -0.27096166528E+03  0.60038955031E+02  0.48271330323E+03  0.56388586819E+03  0.89051889707E+02 0.  0.
         23    2    4    4    0    0 -0.13695992435E+03  0.25996136360E+03 -0.36634205172E+03  0.47814397080E+03  0.89873391558E+02 0.  0.
          2    1    3    3  502    0  0.12338735465E+03 -0.13133441973E+03  0.92643400983E+01  0.18044111807E+03  0.00000000000E+00 0. -1.
         -1    1    3    3    0  502  0.28453423498E+03 -0.18866589891E+03 -0.61086526405E+02  0.34682288851E+03  0.00000000000E+00 0.  1.
         13    1    5    5    0    0 -0.20249844667E+03  0.49387848268E+01  0.31420891933E+03  0.37384121962E+03  0.00000000000E+00 0. -1.
        -13    1    5    5    0    0 -0.68463218618E+02  0.55100170204E+02  0.16850438390E+03  0.19004464858E+03  0.00000000000E+00 0.  1.
          3    1    6    6  503    0 -0.28796796218E+02  0.14767799597E+03 -0.16160505392E+03  0.22080362184E+03  0.00000000000E+00 0. -1.
         -3    1    6    6    0  503 -0.10816312813E+03  0.11228336764E+03 -0.20473699780E+03  0.25734034896E+03  0.00000000000E+00 0.  1.
<mgrwt>
<rscale>  0 0.15679657E+04</rscale>
<asrwt>0</asrwt>
<pdfrwt beam="1">  1        2 0.12568022E+00 0.15679657E+04</pdfrwt>
<pdfrwt beam="2">  1       -1 0.11574960E+00 0.15679657E+04</pdfrwt>
<totfact> 0.24845389E+01</totfact>
</mgrwt>
</event>
<event>
12    7  0.1637954E-007  0.2285387E+04  0.7818608E-02  0.8483705E-01
         -1   -1    0    0    0  501 -0.00000000000E+00  0.00000000000E+00  0.53938631763E+03  0.53938631763E+03  0.00000000000E+00 0.  1.
          2   -1    0    0  501    0  0.00000000000E+00 -0.00000000000E+00 -0.24208048354E+04  0.24208048354E+04  0.00000000000E+00 0. -1.
         24    2    1    2    0    0  0.29381897248E+03 -0.64250557643E+03  0.60482617447E+02  0.71361270337E+03  0.80261691168E+02 0.  0.
        254    2    1    2    0    0 -0.29381897248E+03  0.64250557643E+03 -0.19419011352E+04  0.22465784497E+04  0.88147133088E+03 0.  0.
         23    2    4    4    0    0  0.18136824398E+03  0.30548395988E+03 -0.22494050540E+03  0.43116095588E+03  0.95323917430E+02 0.  0.
         23    2    4    4    0    0 -0.47518721646E+03  0.33702161654E+03 -0.17169606298E+04  0.18154174938E+04  0.91653759629E+02 0.  0.
          2    1    3    3  502    0  0.96599543349E+02 -0.14684975925E+03  0.37119313623E+02  0.17965012388E+03  0.00000000000E+00 0. -1.
         -1    1    3    3    0  502  0.19721942913E+03 -0.49565581718E+03  0.23363303823E+02  0.53396257949E+03  0.00000000000E+00 0.  1.
         13    1    5    5    0    0  0.54435505956E+01  0.74213837552E+02 -0.25242234677E+02  0.78577963442E+02  0.00000000000E+00 0. -1.
        -13    1    5    5    0    0  0.17592469338E+03  0.23127012233E+03 -0.19969827073E+03  0.35258299244E+03  0.00000000000E+00 0.  1.
          2    1    6    6  503    0 -0.50237906342E+02  0.75309080645E+02 -0.27774667112E+03  0.29212757176E+03  0.00000000000E+00 0. -1.
         -2    1    6    6    0  503 -0.42494931012E+03  0.26171253590E+03 -0.14392139587E+04  0.15232899220E+04  0.00000000000E+00 0.  1.
<mgrwt>
<rscale>  0 0.22853875E+04</rscale>
<asrwt>0</asrwt>
<pdfrwt beam="1">  1        2 0.37243151E+00 0.22853875E+04</pdfrwt>
<pdfrwt beam="2">  1       -1 0.82982511E-01 0.22853875E+04</pdfrwt>
<totfact> 0.57602596E+00</totfact>
</mgrwt>
</event>
<event>
12    7  0.1637954E-007  0.1686763E+04  0.7818608E-02  0.8768950E-01
         -1   -1    0    0    0  501 -0.00000000000E+00  0.00000000000E+00  0.54378304769E+03  0.54378304769E+03  0.00000000000E+00 0.  1.
          2   -1    0    0  501    0  0.00000000000E+00 -0.00000000000E+00 -0.13080449661E+04  0.13080449661E+04  0.00000000000E+00 0. -1.
         24    2    1    2    0    0 -0.14190518308E+03  0.57553579674E+03 -0.35674147675E+03  0.69643260062E+03  0.79845799272E+02 0.  0.
        254    2    1    2    0    0  0.14190518308E+03 -0.57553579674E+03 -0.40752044164E+03  0.11553954131E+04  0.90414994114E+03 0.  0.
         23    2    4    4    0    0 -0.33245266463E+03 -0.26142386689E+02 -0.88447624875E+02  0.35693933410E+03  0.91512334017E+02 0.  0.
         23    2    4    4    0    0  0.47435784771E+03 -0.54939341005E+03 -0.31907281677E+03  0.79845607905E+03  0.94213380612E+02 0.  0.
          2    1    3    3  502    0  0.99041373394E+01  0.25492963844E+02 -0.19863587719E+02  0.33801557051E+02  0.00000000000E+00 0. -1.
         -1    1    3    3    0  502 -0.15180932042E+03  0.55004283289E+03 -0.33687788904E+03  0.66263104357E+03  0.00000000000E+00 0.  1.
         13    1    5    5    0    0 -0.21927901662E+03 -0.22505807771E+02 -0.12879476678E+02  0.22080688267E+03  0.00000000000E+00 0. -1.
        -13    1    5    5    0    0 -0.11317364801E+03 -0.36365789175E+01 -0.75568148197E+02  0.13613245143E+03  0.00000000000E+00 0.  1.
          4    1    6    6  503    0  0.44862653967E+03 -0.49762051123E+03 -0.26902316423E+03  0.72198712467E+03  0.00000000000E+00 0. -1.
         -4    1    6    6    0  503  0.25731308038E+02 -0.51772898815E+02 -0.50049652536E+02  0.76468954380E+02  0.00000000000E+00 0.  1.
<mgrwt>
<rscale>  0 0.16867634E+04</rscale>
<asrwt>0</asrwt>
<pdfrwt beam="1">  1        2 0.20123769E+00 0.16867634E+04</pdfrwt>
<pdfrwt beam="2">  1       -1 0.83658931E-01 0.16867634E+04</pdfrwt>
<totfact> 0.25166069E+01</totfact>
</mgrwt>
</event>
<event>
12    7  0.1637954E-007  0.1303606E+04  0.7818608E-02  0.9026710E-01
          2   -1    0    0  501    0  0.00000000000E+00  0.00000000000E+00  0.68267476496E+03  0.68267476496E+03  0.00000000000E+00 0. -1.
         -1   -1    0    0    0  501 -0.00000000000E+00 -0.00000000000E+00 -0.62232764553E+03  0.62232764553E+03  0.00000000000E+00 0.  1.
         24    2    1    2    0    0 -0.44473839884E+02  0.98058617276E+01  0.34596383098E+03  0.35762488891E+03  0.78297582735E+02 0.  0.
        254    2    1    2    0    0  0.44473839884E+02 -0.98058617276E+01 -0.28561671155E+03  0.94737752159E+03  0.90214920336E+03 0.  0.
         23    2    4    4    0    0  0.98189608218E+02 -0.24768389512E+03 -0.52397486882E+03  0.59456230086E+03  0.89253321439E+02 0.  0.
         23    2    4    4    0    0 -0.53715768334E+02  0.23787803339E+03  0.23835815727E+03  0.35281522073E+03  0.90513127803E+02 0.  0.
          2    1    3    3  502    0 -0.48239263194E+02 -0.46254953335E+01  0.33647708323E+03  0.33994889213E+03  0.00000000000E+00 0. -1.
         -1    1    3    3    0  502  0.37654233100E+01  0.14431357061E+02  0.94867477530E+01  0.17675996783E+02  0.00000000000E+00 0.  1.
         13    1    5    5    0    0  0.88827128261E+02 -0.10591945483E+03 -0.23775875613E+03  0.27502439118E+03  0.00000000000E+00 0.  1.
        -13    1    5    5    0    0  0.93624799570E+01 -0.14176444029E+03 -0.28621611268E+03  0.31953790968E+03  0.00000000000E+00 0. -1.
          3    1    6    6  503    0  0.74154864329E+01  0.15685103430E+03  0.16352462898E+03  0.22671025712E+03  0.00000000000E+00 0. -1.
         -3    1    6    6    0  503 -0.61131254766E+02  0.81026999095E+02  0.74833528281E+02  0.12610496361E+03  0.00000000000E+00 0.  1.
<mgrwt>
<rscale>  0 0.13036064E+04</rscale>
<asrwt>0</asrwt>
<pdfrwt beam="1">  1        2 0.10502689E+00 0.13036064E+04</pdfrwt>
<pdfrwt beam="2">  1       -1 0.95742714E-01 0.13036064E+04</pdfrwt>
<totfact> 0.49834263E+01</totfact>
</mgrwt>
</event>
<event>
12    7  0.1637954E-007  0.2009206E+04  0.7818608E-02  0.8602329E-01
         -1   -1    0    0    0  501 -0.00000000000E+00  0.00000000000E+00  0.31376178921E+03  0.31376178921E+03  0.00000000000E+00 0.  1.
          2   -1    0    0  501    0  0.00000000000E+00 -0.00000000000E+00 -0.32165400681E+04  0.32165400681E+04  0.00000000000E+00 0. -1.
         24    2    1    2    0    0 -0.61592331858E+02  0.56839080718E+02 -0.25592661852E+04  0.25619308898E+04  0.81376784154E+02 0.  0.
        254    2    1    2    0    0  0.61592331858E+02 -0.56839080718E+02 -0.34351209366E+03  0.96837096747E+03  0.90150844462E+03 0.  0.
         23    2    4    4    0    0  0.32885699149E+03  0.24520046141E+03 -0.35881286096E+03  0.55252434777E+03  0.90919186955E+02 0.  0.
         23    2    4    4    0    0 -0.26726465963E+03 -0.30203954213E+03  0.15300767302E+02  0.41584661971E+03  0.10017990988E+03 0.  0.
          4    1    3    3  502    0 -0.79178215507E+02  0.31222860933E+02 -0.17501878726E+04  0.17522561589E+04  0.00000000000E+00 0. -1.
         -3    1    3    3    0  502  0.17585883649E+02  0.25616219785E+02 -0.80907831258E+03  0.80967473093E+03  0.00000000000E+00 0.  1.
         13    1    5    5    0    0  0.21603816939E+03  0.20137838122E+03 -0.28685678170E+03  0.41171902587E+03  0.00000000000E+00 0. -1.
        -13    1    5    5    0    0  0.11281882210E+03  0.43822080195E+02 -0.71956079261E+02  0.14080532190E+03  0.00000000000E+00 0.  1.
          1    1    6    6  503    0 -0.25549100432E+03 -0.30864151549E+03  0.20945415256E+02  0.40121558892E+03  0.00000000000E+00 0. -1.
         -1    1    6    6    0  503 -0.11773655305E+02  0.66019733535E+01 -0.56446479547E+01  0.14631030789E+02  0.00000000000E+00 0.  1.
<mgrwt>
<rscale>  0 0.20092062E+04</rscale>
<asrwt>0</asrwt>
<pdfrwt beam="1">  1        2 0.49485232E+00 0.20092062E+04</pdfrwt>
<pdfrwt beam="2">  1       -1 0.48271044E-01 0.20092062E+04</pdfrwt>
<totfact> 0.57559926E+00</totfact>
</mgrwt>
</event>
<event>
12    7  0.1637954E-007  0.2972724E+04  0.7818608E-02  0.8251563E-01
         -1   -1    0    0    0  501 -0.00000000000E+00  0.00000000000E+00  0.63030560869E+03  0.63030560869E+03  0.00000000000E+00 0.  1.
          2   -1    0    0  501    0  0.00000000000E+00 -0.00000000000E+00 -0.35050815400E+04  0.35050815400E+04  0.00000000000E+00 0. -1.
         24    2    1    2    0    0 -0.48625936746E+03 -0.97457770150E+03 -0.19882028295E+03  0.11098103349E+04  0.76808892093E+02 0.  0.
        254    2    1    2    0    0  0.48625936746E+03  0.97457770150E+03 -0.26759556484E+04  0.30255768138E+04  0.89840222354E+03 0.  0.
         23    2    4    4    0    0 -0.97931186930E+02  0.45678202497E+02 -0.10642000644E+04  0.10735989487E+04  0.91738269428E+02 0.  0.
         23    2    4    4    0    0  0.58419055439E+03  0.92889949900E+03 -0.16117555840E+04  0.19519778651E+04  0.91261383409E+02 0.  0.
          2    1    3    3  502    0 -0.32314761669E+03 -0.58253464577E+03 -0.14536935127E+03  0.68183813620E+03  0.00000000000E+00 0. -1.
         -3    1    3    3    0  502 -0.16311175077E+03 -0.39204305573E+03 -0.53450931681E+02  0.42797219873E+03  0.00000000000E+00 0.  1.
         13    1    5    5    0    0 -0.19420244285E+00 -0.15054118860E+02 -0.36589049930E+02  0.39565424097E+02  0.00000000000E+00 0.  1.
        -13    1    5    5    0    0 -0.97736984487E+02  0.60732321357E+02 -0.10276110144E+04  0.10340335246E+04  0.00000000000E+00 0. -1.
          4    1    6    6  503    0  0.21581893174E+03  0.26527048158E+03 -0.48676099967E+03  0.59488024887E+03  0.00000000000E+00 0. -1.
         -4    1    6    6    0  503  0.36837162265E+03  0.66362901742E+03 -0.11249945843E+04  0.13570976162E+04  0.00000000000E+00 0.  1.
<mgrwt>
<rscale>  0 0.29727244E+04</rscale>
<asrwt>0</asrwt>
<pdfrwt beam="1">  1        2 0.53924331E+00 0.29727244E+04</pdfrwt>
<pdfrwt beam="2">  1       -1 0.96970094E-01 0.29727244E+04</pdfrwt>
<totfact> 0.80287290E-01</totfact>
</mgrwt>
</event>
<event>
12    7  0.1637954E-007  0.2233357E+04  0.7818608E-02  0.8504671E-01
         -1   -1    0    0    0  501 -0.00000000000E+00  0.00000000000E+00  0.48192663956E+03  0.48192663956E+03  0.00000000000E+00 0.  1.
          2   -1    0    0  501    0  0.00000000000E+00 -0.00000000000E+00 -0.25874713721E+04  0.25874713721E+04  0.00000000000E+00 0. -1.
         24    2    1    2    0    0 -0.28665298204E+03  0.19872832357E+03 -0.20678659140E+04  0.20985417869E+04  0.78392056422E+02 0.  0.
        254    2    1    2    0    0  0.28665298204E+03 -0.19872832357E+03 -0.37678818593E+02  0.97085622478E+03  0.90525092495E+03 0.  0.
         23    2    4    4    0    0  0.16757608187E+03  0.29143220767E+03 -0.23674212028E+03  0.42121562463E+03  0.91440122676E+02 0.  0.
         23    2    4    4    0    0  0.11907690018E+03 -0.49016053124E+03  0.19906330169E+03  0.54964060015E+03  0.89676846052E+02 0.  0.
          4    1    3    3  502    0 -0.26908346736E+03  0.16270545765E+03 -0.17342655459E+04  0.17625424710E+04  0.00000000000E+00 0. -1.
         -3    1    3    3    0  502 -0.17569514681E+02  0.36022865918E+02 -0.33360036801E+03  0.33599931585E+03  0.00000000000E+00 0.  1.
         13    1    5    5    0    0  0.11445408763E+03  0.24570454607E+03 -0.22012992539E+03  0.34918139439E+03  0.00000000000E+00 0. -1.
        -13    1    5    5    0    0  0.53121994237E+02  0.45727661604E+02 -0.16612194887E+02  0.72034230241E+02  0.00000000000E+00 0.  1.
          3    1    6    6  503    0  0.68243682881E+02 -0.41897075670E+03  0.17270305103E+03  0.45827943338E+03  0.00000000000E+00 0. -1.
         -3    1    6    6    0  503  0.50833217296E+02 -0.71189774534E+02  0.26360250659E+02  0.91361166771E+02  0.00000000000E+00 0.  1.
<mgrwt>
<rscale>  0 0.22333575E+04</rscale>
<asrwt>0</asrwt>
<pdfrwt beam="1">  1        2 0.39807253E+00 0.22333575E+04</pdfrwt>
<pdfrwt beam="2">  1       -1 0.74142559E-01 0.22333575E+04</pdfrwt>
<totfact> 0.58806322E+00</totfact>
</mgrwt>
</event>
<event>
12    7  0.1637954E-007  0.1970190E+04  0.7818608E-02  0.8620686E-01
         -1   -1    0    0    0  501 -0.00000000000E+00  0.00000000000E+00  0.43986778893E+03  0.43986778893E+03  0.00000000000E+00 0.  1.
          2   -1    0    0  501    0  0.00000000000E+00 -0.00000000000E+00 -0.22061444279E+04  0.22061444279E+04  0.00000000000E+00 0. -1.
         24    2    1    2    0    0  0.26242245271E+03  0.46894567437E+03  0.52806301270E+02  0.54614950394E+03  0.81946238515E+02 0.  0.
        254    2    1    2    0    0 -0.26242245271E+03 -0.46894567437E+03 -0.18190829403E+04  0.20998627129E+04  0.90088016977E+03 0.  0.
         23    2    4    4    0    0  0.11921369206E+03 -0.29244419456E+03 -0.15687663629E+04  0.16027859212E+04  0.90328825168E+02 0.  0.
         23    2    4    4    0    0 -0.38163614478E+03 -0.17650147981E+03 -0.25031657740E+03  0.49707679170E+03  0.87338585679E+02 0.  0.
          2    1    3    3  502    0  0.73896870330E+02  0.71807771939E+02  0.22670866357E+02  0.10550389442E+03  0.00000000000E+00 0. -1.
         -1    1    3    3    0  502  0.18852558238E+03  0.39713790243E+03  0.30135434914E+02  0.44064560953E+03  0.00000000000E+00 0.  1.
         13    1    5    5    0    0  0.15642014917E+02 -0.72644978891E+02 -0.57324202352E+03  0.57803839243E+03  0.00000000000E+00 0. -1.
        -13    1    5    5    0    0  0.10357167715E+03 -0.21979921567E+03 -0.99552433934E+03  0.10247475288E+04  0.00000000000E+00 0.  1.
          2    1    6    6  503    0 -0.18800444107E+03 -0.11958221164E+03 -0.16826579024E+03  0.27921130237E+03  0.00000000000E+00 0. -1.
         -2    1    6    6    0  503 -0.19363170370E+03 -0.56919268169E+02 -0.82050787161E+02  0.21786548933E+03  0.00000000000E+00 0.  1.
<mgrwt>
<rscale>  0 0.19701897E+04</rscale>
<asrwt>0</asrwt>
<pdfrwt beam="1">  1        2 0.33940683E+00 0.19701897E+04</pdfrwt>
<pdfrwt beam="2">  1       -1 0.67671969E-01 0.19701897E+04</pdfrwt>
<totfact> 0.12011658E+01</totfact>
</mgrwt>
</event>
<event>
12    7  0.1637954E-007  0.2751433E+04  0.7818608E-02  0.8318507E-01
         -1   -1    0    0    0  501 -0.00000000000E+00  0.00000000000E+00  0.85355787226E+03  0.85355787226E+03  0.00000000000E+00 0.  1.
          2   -1    0    0  501    0  0.00000000000E+00 -0.00000000000E+00 -0.22173019918E+04  0.22173019918E+04  0.00000000000E+00 0. -1.
         24    2    1    2    0    0 -0.66477039914E+03 -0.35145424354E+03  0.47253228066E+03  0.89171083288E+03  0.80135412484E+02 0.  0.
        254    2    1    2    0    0  0.66477039914E+03  0.35145424354E+03 -0.18362764002E+04  0.21791490312E+04  0.90074397768E+03 0.  0.
         23    2    4    4    0    0  0.58617021395E+03  0.55485226501E+03 -0.89432343582E+03  0.12078831449E+04  0.87810752093E+02 0.  0.
         23    2    4    4    0    0  0.78600185190E+02 -0.20339802147E+03 -0.94195296443E+03  0.97126588633E+03  0.92375811203E+02 0.  0.
          2    1    3    3  502    0 -0.49434031554E+03 -0.23926472835E+03  0.30852990106E+03  0.62992908938E+03  0.00000000000E+00 0. -1.
         -1    1    3    3    0  502 -0.17043008360E+03 -0.11218951520E+03  0.16400237960E+03  0.26178174350E+03  0.00000000000E+00 0.  1.
         13    1    5    5    0    0  0.52178423480E+03  0.46218565805E+03 -0.73867083069E+03  0.10156322988E+04  0.00000000000E+00 0.  1.
        -13    1    5    5    0    0  0.64385979151E+02  0.92666606965E+02 -0.15565260512E+03  0.19225084613E+03  0.00000000000E+00 0. -1.
          4    1    6    6  503    0  0.66193189157E+01 -0.54523258816E+02 -0.42435004953E+03  0.42788966531E+03  0.00000000000E+00 0. -1.
         -4    1    6    6    0  503  0.71980866275E+02 -0.14887476265E+03 -0.51760291490E+03  0.54337622102E+03  0.00000000000E+00 0.  1.
<mgrwt>
<rscale>  0 0.27514328E+04</rscale>
<asrwt>0</asrwt>
<pdfrwt beam="1">  1        2 0.34112337E+00 0.27514328E+04</pdfrwt>
<pdfrwt beam="2">  1       -1 0.13131660E+00 0.27514328E+04</pdfrwt>
<totfact> 0.24796932E+00</totfact>
</mgrwt>
</event>
<event>
12    7  0.1637954E-007  0.3631369E+04  0.7818608E-02  0.8083344E-01
         -1   -1    0    0    0  501 -0.00000000000E+00  0.00000000000E+00  0.12913229945E+04  0.12913229945E+04  0.00000000000E+00 0.  1.
          2   -1    0    0  501    0  0.00000000000E+00 -0.00000000000E+00 -0.25529704878E+04  0.25529704878E+04  0.00000000000E+00 0. -1.
         24    2    1    2    0    0 -0.11035750112E+04 -0.10533423377E+04 -0.13967152051E+04  0.20699088463E+04  0.79381243949E+02 0.  0.
        254    2    1    2    0    0  0.11035750112E+04  0.10533423377E+04  0.13506771173E+03  0.17743846360E+04  0.89598530349E+03 0.  0.
         23    2    4    4    0    0  0.29617698385E+02  0.15128388757E+03  0.30751561299E+03  0.35834783332E+03  0.10041560992E+03 0.  0.
         23    2    4    4    0    0  0.10739573128E+04  0.90205845014E+03 -0.17244790126E+03  0.14160368027E+04  0.91258921496E+02 0.  0.
          2    1    3    3  502    0 -0.10332773371E+04 -0.10107657172E+04 -0.13238227891E+04  0.19600551439E+04  0.00000000000E+00 0. -1.
         -1    1    3    3    0  502 -0.70297674113E+02 -0.42576620545E+02 -0.72892416001E+02  0.10985370232E+03  0.00000000000E+00 0.  1.
         13    1    5    5    0    0 -0.11022622832E+02 -0.22327702961E+01 -0.10700159916E+01  0.11297274517E+02  0.00000000000E+00 0.  1.
        -13    1    5    5    0    0  0.40640321218E+02  0.15351665786E+03  0.30858562898E+03  0.34705055880E+03  0.00000000000E+00 0. -1.
          2    1    6    6  503    0  0.94017903517E+03  0.77445543177E+03 -0.12064179876E+03  0.12240393284E+04  0.00000000000E+00 0. -1.
         -2    1    6    6    0  503  0.13377827767E+03  0.12760301837E+03 -0.51806102507E+02  0.19199747428E+03  0.00000000000E+00 0.  1.
<mgrwt>
<rscale>  0 0.36313686E+04</rscale>
<asrwt>0</asrwt>
<pdfrwt beam="1">  1        2 0.39276469E+00 0.36313686E+04</pdfrwt>
<pdfrwt beam="2">  1       -1 0.19866508E+00 0.36313686E+04</pdfrwt>
<totfact> 0.46044247E-01</totfact>
</mgrwt>
</event>
<event>
12    7  0.1637954E-007  0.2524575E+04  0.7818608E-02  0.8394283E-01
          2   -1    0    0  501    0  0.00000000000E+00  0.00000000000E+00  0.17669894164E+04  0.17669894164E+04  0.00000000000E+00 0. -1.
         -1   -1    0    0    0  501 -0.00000000000E+00 -0.00000000000E+00 -0.90174262865E+03  0.90174262865E+03  0.00000000000E+00 0.  1.
         24    2    1    2    0    0  0.52154943338E+03  0.86901921816E+03 -0.73991499036E+02  0.10193594136E+04  0.80066592052E+02 0.  0.
        254    2    1    2    0    0 -0.52154943338E+03 -0.86901921816E+03  0.93923828677E+03  0.16493726314E+04  0.90058497933E+03 0.  0.
         23    2    4    4    0    0 -0.10146445346E+03 -0.73336887787E+03  0.93770114181E+03  0.11981375231E+04  0.90139595124E+02 0.  0.
         23    2    4    4    0    0 -0.42008497992E+03 -0.13565034030E+03  0.15371449624E+01  0.45123510832E+03  0.93479168741E+02 0.  0.
          4    1    3    3  502    0  0.11371083902E+03  0.25913619551E+03 -0.19921083967E+02  0.28368745535E+03  0.00000000000E+00 0. -1.
         -3    1    3    3    0  502  0.40783859437E+03  0.60988302265E+03 -0.54070415069E+02  0.73567195825E+03  0.00000000000E+00 0.  1.
         13    1    5    5    0    0 -0.11145854743E+03 -0.71475476247E+03  0.92146156710E+03  0.11714899905E+04  0.00000000000E+00 0. -1.
        -13    1    5    5    0    0  0.99940939666E+01 -0.18614115396E+02  0.16239574708E+02  0.26647532585E+02  0.00000000000E+00 0.  1.
          1    1    6    6  503    0 -0.42515696200E+03 -0.13286220435E+03  0.11562424643E+01  0.44543478151E+03  0.00000000000E+00 0. -1.
         -1    1    6    6    0  503  0.50719820851E+01 -0.27881359489E+01  0.38090249814E+00  0.58003268058E+01  0.00000000000E+00 0.  1.
<mgrwt>
<rscale>  0 0.25245750E+04</rscale>
<asrwt>0</asrwt>
<pdfrwt beam="1">  1        2 0.27184452E+00 0.25245750E+04</pdfrwt>
<pdfrwt beam="2">  1       -1 0.13872964E+00 0.25245750E+04</pdfrwt>
<totfact> 0.39148652E+00</totfact>
</mgrwt>
</event>
<event>
12    7  0.1637954E-007  0.2140135E+04  0.7818608E-02  0.8543767E-01
         -3   -1    0    0    0  501 -0.00000000000E+00  0.00000000000E+00  0.32734028815E+04  0.32734028815E+04  0.00000000000E+00 0.  1.
          2   -1    0    0  501    0  0.00000000000E+00 -0.00000000000E+00 -0.34980246218E+03  0.34980246218E+03  0.00000000000E+00 0. -1.
         24    2    1    2    0    0 -0.24034953739E+03  0.72030506905E+03  0.45172680336E+03  0.88773413722E+03  0.86066839716E+02 0.  0.
        254    2    1    2    0    0  0.24034953739E+03 -0.72030506905E+03  0.24718736160E+04  0.27354712065E+04  0.89220863896E+03 0.  0.
         23    2    4    4    0    0  0.41354343192E+03 -0.49971406880E+03  0.78214596904E+03  0.10201408803E+04  0.90569190230E+02 0.  0.
         23    2    4    4    0    0 -0.17319389453E+03 -0.22059100024E+03  0.16897276470E+04  0.17153303261E+04  0.92315179696E+02 0.  0.
          4    1    3    3  502    0 -0.13473287494E+03  0.47907957041E+03  0.25614556539E+03  0.55971486763E+03  0.00000000000E+00 0. -1.
         -1    1    3    3    0  502 -0.10561666245E+03  0.24122549864E+03  0.19558123797E+03  0.32801926960E+03  0.00000000000E+00 0.  1.
         13    1    5    5    0    0  0.29449415421E+03 -0.28905336635E+03  0.50810276649E+03  0.65455868857E+03  0.00000000000E+00 0. -1.
        -13    1    5    5    0    0  0.11904927771E+03 -0.21066070245E+03  0.27404320255E+03  0.36558219178E+03  0.00000000000E+00 0.  1.
          1    1    6    6  503    0  0.41028458557E+01 -0.32404626717E+02  0.11623600337E+03  0.12073815327E+03  0.00000000000E+00 0. -1.
         -1    1    6    6    0  503 -0.17729674038E+03 -0.18818637353E+03  0.15734916436E+04  0.15945921729E+04  0.00000000000E+00 0.  1.
<mgrwt>
<rscale>  0 0.21401349E+04</rscale>
<asrwt>0</asrwt>
<pdfrwt beam="1">  1        2 0.53815766E-01 0.21401349E+04</pdfrwt>
<pdfrwt beam="2">  1       -3 0.50360042E+00 0.21401349E+04</pdfrwt>
<totfact> 0.15291004E-01</totfact>
</mgrwt>
</event>
<event>
12    7  0.1637954E-007  0.1868115E+04  0.7818608E-02  0.8670892E-01
          2   -1    0    0  501    0  0.00000000000E+00  0.00000000000E+00  0.12216858960E+04  0.12216858960E+04  0.00000000000E+00 0. -1.
         -1   -1    0    0    0  501 -0.00000000000E+00 -0.00000000000E+00 -0.71414744373E+03  0.71414744373E+03  0.00000000000E+00 0.  1.
         24    2    1    2    0    0 -0.58763142922E+03 -0.32822055460E+03 -0.51977561302E+02  0.67964396312E+03  0.78580027079E+02 0.  0.
        254    2    1    2    0    0  0.58763142922E+03  0.32822055460E+03  0.55951601356E+03  0.12561893766E+04  0.90106278991E+03 0.  0.
         23    2    4    4    0    0  0.15180699987E+03  0.55231042278E+02 -0.23987896237E+03  0.30121505206E+03  0.84218511984E+02 0.  0.
         23    2    4    4    0    0  0.43582442935E+03  0.27298951232E+03  0.79939497592E+03  0.95497432453E+03  0.92072938033E+02 0.  0.
          4    1    3    3  502    0 -0.43841941179E+03 -0.22024569626E+03 -0.99724065981E+01  0.49073332499E+03  0.00000000000E+00 0. -1.
         -3    1    3    3    0  502 -0.14921201743E+03 -0.10797485834E+03 -0.42005154704E+02  0.18891063813E+03  0.00000000000E+00 0.  1.
         13    1    5    5    0    0  0.29603223862E+02  0.90344746941E+01 -0.35167539745E+01  0.31150283378E+02  0.00000000000E+00 0. -1.
        -13    1    5    5    0    0  0.12220377601E+03  0.46196567583E+02 -0.23636220839E+03  0.27006476868E+03  0.00000000000E+00 0.  1.
          1    1    6    6  503    0 -0.29389537956E+01  0.18297924321E+01 -0.18336843389E+00  0.34668737703E+01  0.00000000000E+00 0. -1.
         -1    1    6    6    0  503  0.43876338315E+03  0.27115971989E+03  0.79957834436E+03  0.95150745076E+03  0.00000000000E+00 0.  1.
<mgrwt>
<rscale>  0 0.18681155E+04</rscale>
<asrwt>0</asrwt>
<pdfrwt beam="1">  1        2 0.18795168E+00 0.18681155E+04</pdfrwt>
<pdfrwt beam="2">  1       -1 0.10986884E+00 0.18681155E+04</pdfrwt>
<totfact> 0.15064840E+01</totfact>
</mgrwt>
</event>
<event>
12    7  0.1637954E-007  0.2258813E+04  0.7818608E-02  0.8494340E-01
          2   -1    0    0  501    0  0.00000000000E+00  0.00000000000E+00  0.13454238558E+04  0.13454238558E+04  0.00000000000E+00 0. -1.
         -1   -1    0    0    0  501 -0.00000000000E+00 -0.00000000000E+00 -0.94807223123E+03  0.94807223123E+03  0.00000000000E+00 0.  1.
         24    2    1    2    0    0 -0.33874025236E+03  0.83549208434E+03 -0.13211887972E+03  0.91458088978E+03  0.78808781256E+02 0.  0.
        254    2    1    2    0    0  0.33874025236E+03 -0.83549208434E+03  0.52947050433E+03  0.13789151973E+04  0.89904178147E+03 0.  0.
         23    2    4    4    0    0 -0.28284784499E+02 -0.24565472346E+03 -0.22530172523E+03  0.34889621310E+03  0.99103117646E+02 0.  0.
         23    2    4    4    0    0  0.36702503686E+03 -0.58983736087E+03  0.75477222956E+03  0.10300189842E+04  0.92965043601E+02 0.  0.
          4    1    3    3  502    0 -0.11291647884E+03  0.29088555404E+03 -0.83486781586E+02  0.32300863679E+03  0.00000000000E+00 0. -1.
         -3    1    3    3    0  502 -0.22582377353E+03  0.54460653029E+03 -0.48632098131E+02  0.59157225298E+03  0.00000000000E+00 0.  1.
         13    1    5    5    0    0 -0.57675912810E+02 -0.21757060310E+03 -0.18158983154E+03  0.28920294806E+03  0.00000000000E+00 0.  1.
        -13    1    5    5    0    0  0.29391128312E+02 -0.28084120368E+02 -0.43711893692E+02  0.59693265034E+02  0.00000000000E+00 0. -1.
          3    1    6    6  503    0  0.15394884789E+03 -0.33460388507E+03  0.38827837899E+03  0.53518231217E+03  0.00000000000E+00 0. -1.
         -3    1    6    6    0  503  0.21307618897E+03 -0.25523347580E+03  0.36649385057E+03  0.49483667203E+03  0.00000000000E+00 0.  1.
<mgrwt>
<rscale>  0 0.22588130E+04</rscale>
<asrwt>0</asrwt>
<pdfrwt beam="1">  1        2 0.20698829E+00 0.22588130E+04</pdfrwt>
<pdfrwt beam="2">  1       -1 0.14585727E+00 0.22588130E+04</pdfrwt>
<totfact> 0.60658481E+00</totfact>
</mgrwt>
</event>
<event>
12    7  0.1637954E-007  0.2007889E+04  0.7818608E-02  0.8602941E-01
          2   -1    0    0  501    0  0.00000000000E+00  0.00000000000E+00  0.98558799112E+03  0.98558799112E+03  0.00000000000E+00 0. -1.
         -1   -1    0    0    0  501 -0.00000000000E+00 -0.00000000000E+00 -0.10226430898E+04  0.10226430898E+04  0.00000000000E+00 0.  1.
         24    2    1    2    0    0 -0.27188180137E+03 -0.76577392744E+02 -0.72767056342E+03  0.78456944097E+03  0.79126151415E+02 0.  0.
        254    2    1    2    0    0  0.27188180137E+03  0.76577392744E+02  0.69061546474E+03  0.12236616399E+04  0.96985270940E+03 0.  0.
         23    2    4    4    0    0 -0.24777653863E+03 -0.24236187644E+03  0.41305965110E+03  0.54741132440E+03  0.94384270239E+02 0.  0.
         23    2    4    4    0    0  0.51965834000E+03  0.31893926918E+03  0.27755581364E+03  0.67625031554E+03  0.92250809356E+02 0.  0.
          4    1    3    3  502    0 -0.14310284513E+03 -0.72467605761E+02 -0.33758611717E+03  0.37375709314E+03  0.00000000000E+00 0. -1.
         -3    1    3    3    0  502 -0.12877895624E+03 -0.41097869836E+01 -0.39008444625E+03  0.41081234783E+03  0.00000000000E+00 0.  1.
         13    1    5    5    0    0 -0.22742292130E+03 -0.23774608050E+03  0.34719286661E+03  0.47831712341E+03  0.00000000000E+00 0. -1.
        -13    1    5    5    0    0 -0.20353617325E+02 -0.46157959348E+01  0.65866784492E+02  0.69094200984E+02  0.00000000000E+00 0.  1.
          4    1    6    6  503    0  0.25422061638E+03  0.11685615273E+03  0.16135012033E+03  0.32298195546E+03  0.00000000000E+00 0. -1.
         -4    1    6    6    0  503  0.26543772362E+03  0.20208311645E+03  0.11620569331E+03  0.35326836008E+03  0.00000000000E+00 0.  1.
<mgrwt>
<rscale>  0 0.20078892E+04</rscale>
<asrwt>0</asrwt>
<pdfrwt beam="1">  1        2 0.15162892E+00 0.20078892E+04</pdfrwt>
<pdfrwt beam="2">  1       -1 0.15732971E+00 0.20078892E+04</pdfrwt>
<totfact> 0.83474515E+00</totfact>
</mgrwt>
</event>
<event>
12    7  0.1637954E-007  0.2633936E+04  0.7818608E-02  0.8356765E-01
          2   -1    0    0  501    0  0.00000000000E+00  0.00000000000E+00  0.23804650481E+04  0.23804650481E+04  0.00000000000E+00 0. -1.
         -1   -1    0    0    0  501 -0.00000000000E+00 -0.00000000000E+00 -0.72859887413E+03  0.72859887413E+03  0.00000000000E+00 0.  1.
         24    2    1    2    0    0 -0.11157916683E+04 -0.33935309180E+03  0.74922535733E+03  0.13885711975E+04  0.81484762410E+02 0.  0.
        254    2    1    2    0    0  0.11157916683E+04  0.33935309180E+03  0.90264081666E+03  0.17204927247E+04  0.88610563922E+03 0.  0.
         23    2    4    4    0    0  0.12100544969E+04  0.15433937861E+03  0.84432414444E+03  0.14864050282E+04  0.92000640338E+02 0.  0.
         23    2    4    4    0    0 -0.94262828526E+02  0.18501371319E+03  0.58316672222E+02  0.23408769651E+03  0.90998134547E+02 0.  0.
          4    1    3    3  502    0 -0.51995443146E+03 -0.14987852348E+03  0.39506777924E+03  0.66999606924E+03  0.00000000000E+00 0. -1.
         -3    1    3    3    0  502 -0.59583723688E+03 -0.18947456832E+03  0.35415757809E+03  0.71857512830E+03  0.00000000000E+00 0.  1.
         13    1    5    5    0    0  0.78302375768E+03  0.56013856289E+02  0.53305969890E+03  0.94890273462E+03  0.00000000000E+00 0. -1.
        -13    1    5    5    0    0  0.42703073918E+03  0.98325522321E+02  0.31126444554E+03  0.53750229358E+03  0.00000000000E+00 0.  1.
          2    1    6    6  503    0 -0.86197655965E+02  0.14197519416E+03  0.80979626030E+02  0.18478282248E+03  0.00000000000E+00 0. -1.
         -2    1    6    6    0  503 -0.80651725606E+01  0.43038519025E+02 -0.22662953808E+02  0.49304874034E+02  0.00000000000E+00 0.  1.
<mgrwt>
<rscale>  0 0.26339356E+04</rscale>
<asrwt>0</asrwt>
<pdfrwt beam="1">  1        2 0.36622539E+00 0.26339356E+04</pdfrwt>
<pdfrwt beam="2">  1       -1 0.11209214E+00 0.26339356E+04</pdfrwt>
<totfact> 0.29856518E+00</totfact>
</mgrwt>
</event>
<event>
12    7  0.1637954E-007  0.1450479E+04  0.7818608E-02  0.8918068E-01
         -1   -1    0    0    0  501 -0.00000000000E+00  0.00000000000E+00  0.18042140015E+03  0.18042140015E+03  0.00000000000E+00 0.  1.
          2   -1    0    0  501    0  0.00000000000E+00 -0.00000000000E+00 -0.29152441028E+04  0.29152441028E+04  0.00000000000E+00 0. -1.
         24    2    1    2    0    0  0.77362917590E+01 -0.39929923349E+03 -0.11849809659E+04  0.12528460201E+04  0.77094309145E+02 0.  0.
        254    2    1    2    0    0 -0.77362917590E+01  0.39929923349E+03 -0.15498417367E+04  0.18428194828E+04  0.91349576313E+03 0.  0.
         23    2    4    4    0    0  0.34083348508E+03  0.18363364681E+03 -0.23400217417E+03  0.46162099349E+03  0.91913782037E+02 0.  0.
         23    2    4    4    0    0 -0.34856977683E+03  0.21566558668E+03 -0.13158395626E+04  0.13811984893E+04  0.90900923540E+02 0.  0.
          2    1    3    3  502    0 -0.68096567856E+01 -0.59987937585E+02 -0.10983264681E+03  0.12533209640E+03  0.00000000000E+00 0. -1.
         -1    1    3    3    0  502  0.14545948545E+02 -0.33931129591E+03 -0.10751483191E+04  0.11275139237E+04  0.00000000000E+00 0.  1.
         13    1    5    5    0    0  0.34138400918E+02  0.28619782140E+02 -0.64653821847E+02  0.78515215254E+02  0.00000000000E+00 0. -1.
        -13    1    5    5    0    0  0.30669508416E+03  0.15501386467E+03 -0.16934835232E+03  0.38310577824E+03  0.00000000000E+00 0.  1.
          3    1    6    6  503    0 -0.10713125736E+03  0.59188693988E+02 -0.54086498397E+03  0.55454065557E+03  0.00000000000E+00 0. -1.
         -3    1    6    6    0  503 -0.24143851948E+03  0.15647689270E+03 -0.77497457861E+03  0.82665783377E+03  0.00000000000E+00 0.  1.
<mgrwt>
<rscale>  0 0.14504791E+04</rscale>
<asrwt>0</asrwt>
<pdfrwt beam="1">  1        2 0.44849908E+00 0.14504791E+04</pdfrwt>
<pdfrwt beam="2">  1       -1 0.27757139E-01 0.14504791E+04</pdfrwt>
<totfact> 0.25563102E+01</totfact>
</mgrwt>
</event>
<event>
12    7  0.1637954E-007  0.1960762E+04  0.7818608E-02  0.8625189E-01
         -1   -1    0    0    0  501 -0.00000000000E+00  0.00000000000E+00  0.71271382155E+03  0.71271382155E+03  0.00000000000E+00 0.  1.
          2   -1    0    0  501    0  0.00000000000E+00 -0.00000000000E+00 -0.13485732168E+04  0.13485732168E+04  0.00000000000E+00 0. -1.
         24    2    1    2    0    0  0.53211364142E+03  0.46389741884E+03  0.73167540200E+02  0.71389514544E+03  0.77117100281E+02 0.  0.
        254    2    1    2    0    0 -0.53211364142E+03 -0.46389741884E+03 -0.70902693541E+03  0.13473918929E+04  0.90244112012E+03 0.  0.
         23    2    4    4    0    0 -0.89139643552E+02 -0.40382056798E+03  0.84709304218E+02  0.43198525795E+03  0.91753308855E+02 0.  0.
         23    2    4    4    0    0 -0.44297399787E+03 -0.60076850856E+02 -0.79373623963E+03  0.91540663494E+03  0.90093831001E+02 0.  0.
          4    1    3    3  502    0  0.28354987071E+03  0.27131052508E+03  0.74503422392E+02  0.39945048523E+03  0.00000000000E+00 0. -1.
         -3    1    3    3    0  502  0.24856377071E+03  0.19258689375E+03 -0.13358821914E+01  0.31444466021E+03  0.00000000000E+00 0.  1.
         13    1    5    5    0    0 -0.99548084803E+02 -0.37210681016E+03  0.95594026333E+02  0.39687720673E+03  0.00000000000E+00 0.  1.
        -13    1    5    5    0    0  0.10408441251E+02 -0.31713757821E+02 -0.10884722115E+02  0.35108051212E+02  0.00000000000E+00 0. -1.
          3    1    6    6  503    0 -0.44885450706E+02  0.64080835861E+01 -0.40225281330E+02  0.60612213937E+02  0.00000000000E+00 0. -1.
         -3    1    6    6    0  503 -0.39808854716E+03 -0.66484934442E+02 -0.75351095830E+03  0.85479442100E+03  0.00000000000E+00 0.  1.
<mgrwt>
<rscale>  0 0.19607619E+04</rscale>
<asrwt>0</asrwt>
<pdfrwt beam="1">  1        2 0.20747280E+00 0.19607619E+04</pdfrwt>
<pdfrwt beam="2">  1       -1 0.10964828E+00 0.19607619E+04</pdfrwt>
<totfact> 0.12655286E+01</totfact>
</mgrwt>
</event>
<event>
12    7  0.1637954E-007  0.2208793E+04  0.7818608E-02  0.8514777E-01
          2   -1    0    0  501    0  0.00000000000E+00  0.00000000000E+00  0.15985305916E+04  0.15985305916E+04  0.00000000000E+00 0. -1.
         -1   -1    0    0    0  501 -0.00000000000E+00 -0.00000000000E+00 -0.76300788608E+03  0.76300788608E+03  0.00000000000E+00 0.  1.
         24    2    1    2    0    0 -0.76404720541E+02 -0.24206911679E+03 -0.59458178617E+03  0.65133837724E+03  0.79240410107E+02 0.  0.
        254    2    1    2    0    0  0.76404720541E+02  0.24206911679E+03  0.14301044917E+04  0.17102001004E+04  0.90285679251E+03 0.  0.
         23    2    4    4    0    0 -0.46260154307E+02  0.32689921531E+03  0.14872701223E+04  0.15262508014E+04  0.92010831898E+02 0.  0.
         23    2    4    4    0    0  0.12266487485E+03 -0.84830098514E+02 -0.57165630629E+02  0.18394929905E+03  0.91250304981E+02 0.  0.
          4    1    3    3  502    0  0.15248743551E+02 -0.26248246515E+02 -0.88899751212E+02  0.93939663564E+02  0.00000000000E+00 0. -1.
         -3    1    3    3    0  502 -0.91653464092E+02 -0.21582087028E+03 -0.50568203496E+03  0.55739871368E+03  0.00000000000E+00 0.  1.
         13    1    5    5    0    0 -0.40670239275E+02  0.28165433691E+03  0.13899405217E+04  0.14187733743E+04  0.00000000000E+00 0.  1.
        -13    1    5    5    0    0 -0.55899150317E+01  0.45244878398E+02  0.97329600601E+02  0.10747742705E+03  0.00000000000E+00 0. -1.
          2    1    6    6  503    0  0.13379605680E+03 -0.89520500067E+02 -0.45816864870E+02  0.16737529643E+03  0.00000000000E+00 0.  1.
         -2    1    6    6    0  503 -0.11131181956E+02  0.46904015530E+01 -0.11348765759E+02  0.16574002616E+02  0.00000000000E+00 0. -1.
<mgrwt>
<rscale>  0 0.22087928E+04</rscale>
<asrwt>0</asrwt>
<pdfrwt beam="1">  1        2 0.24592778E+00 0.22087928E+04</pdfrwt>
<pdfrwt beam="2">  1       -1 0.11738583E+00 0.22087928E+04</pdfrwt>
<totfact> 0.75931208E+00</totfact>
</mgrwt>
</event>
<event>
12    7  0.1637954E-007  0.3506071E+04  0.7818608E-02  0.8112353E-01
          2   -1    0    0  501    0  0.00000000000E+00  0.00000000000E+00  0.11786047219E+04  0.11786047219E+04  0.00000000000E+00 0. -1.
         -1   -1    0    0    0  501 -0.00000000000E+00 -0.00000000000E+00 -0.26074339638E+04  0.26074339638E+04  0.00000000000E+00 0.  1.
         24    2    1    2    0    0 -0.11054472634E+04  0.41590257819E+03  0.54508330573E+03  0.13031960769E+04  0.78839063858E+02 0.  0.
        254    2    1    2    0    0  0.11054472634E+04 -0.41590257819E+03 -0.19739125476E+04  0.24828426087E+04  0.93444532587E+03 0.  0.
         23    2    4    4    0    0  0.47877242001E+03 -0.28484969230E+03 -0.16800494912E+04  0.17724981936E+04  0.93921115473E+02 0.  0.
         23    2    4    4    0    0  0.62667484342E+03 -0.13105288589E+03 -0.29386305641E+03  0.71034441510E+03  0.91309768786E+02 0.  0.
          2    1    3    3  502    0 -0.10510045823E+04  0.37622967753E+03  0.51140051364E+03  0.12278802415E+04  0.00000000000E+00 0. -1.
         -1    1    3    3    0  502 -0.54442681142E+02  0.39672900661E+02  0.33682792086E+02  0.75315835383E+02  0.00000000000E+00 0.  1.
         13    1    5    5    0    0  0.31916401262E+03 -0.18744769737E+03 -0.12477928572E+04  0.13015334497E+04  0.00000000000E+00 0.  1.
        -13    1    5    5    0    0  0.15960840739E+03 -0.97401994933E+02 -0.43225663400E+03  0.47096474387E+03  0.00000000000E+00 0. -1.
          2    1    6    6  503    0  0.29271271975E+03 -0.43074513959E+02 -0.89742988620E+02  0.30917625080E+03  0.00000000000E+00 0. -1.
         -2    1    6    6    0  503  0.33396212367E+03 -0.87978371930E+02 -0.20412006779E+03  0.40116816430E+03  0.00000000000E+00 0.  1.
<mgrwt>
<rscale>  0 0.35060713E+04</rscale>
<asrwt>0</asrwt>
<pdfrwt beam="1">  1        2 0.18132380E+00 0.35060713E+04</pdfrwt>
<pdfrwt beam="2">  1       -1 0.40114368E+00 0.35060713E+04</pdfrwt>
<totfact> 0.12814232E-01</totfact>
</mgrwt>
</event>
<event>
12    7  0.1637954E-007  0.1433433E+04  0.7818608E-02  0.8929967E-01
         -1   -1    0    0    0  501 -0.00000000000E+00  0.00000000000E+00  0.54587908050E+03  0.54587908050E+03  0.00000000000E+00 0.  1.
          2   -1    0    0  501    0  0.00000000000E+00 -0.00000000000E+00 -0.94101942392E+03  0.94101942392E+03  0.00000000000E+00 0. -1.
         24    2    1    2    0    0 -0.23266527978E+03 -0.14330913004E+03  0.22158904034E+03  0.36059364321E+03  0.79091298883E+02 0.  0.
        254    2    1    2    0    0  0.23266527978E+03  0.14330913004E+03 -0.61672938375E+03  0.11263048612E+04  0.90196278662E+03 0.  0.
         23    2    4    4    0    0 -0.55426602689E+02  0.49227299973E+02  0.20961159024E+03  0.24146762325E+03  0.94202754556E+02 0.  0.
         23    2    4    4    0    0  0.28809188247E+03  0.94081830072E+02 -0.82634097399E+03  0.88483723797E+03  0.90825155656E+02 0.  0.
          4    1    3    3  502    0 -0.10641303363E+02  0.13611876789E+00  0.36197696147E+02  0.37729684228E+02  0.00000000000E+00 0. -1.
         -3    1    3    3    0  502 -0.22202397642E+03 -0.14344524881E+03  0.18539134419E+03  0.32286395899E+03  0.00000000000E+00 0.  1.
         13    1    5    5    0    0 -0.80646821647E+02  0.40685205792E+02  0.18157107993E+03  0.20279855246E+03  0.00000000000E+00 0.  1.
        -13    1    5    5    0    0  0.25220218958E+02  0.85420941808E+01  0.28040510304E+02  0.38669070785E+02  0.00000000000E+00 0. -1.
          4    1    6    6  503    0  0.11289918410E+03  0.77426148429E+02 -0.42782930420E+03  0.44919811639E+03  0.00000000000E+00 0. -1.
         -4    1    6    6    0  503  0.17519269837E+03  0.16655681643E+02 -0.39851166979E+03  0.43563912158E+03  0.00000000000E+00 0.  1.
<mgrwt>
<rscale>  0 0.14334334E+04</rscale>
<asrwt>0</asrwt>
<pdfrwt beam="1">  1        2 0.14477222E+00 0.14334334E+04</pdfrwt>
<pdfrwt beam="2">  1       -1 0.83981397E-01 0.14334334E+04</pdfrwt>
<totfact> 0.42869529E+01</totfact>
</mgrwt>
</event>
<event>
12    7  0.1637954E-007  0.4590239E+04  0.7818608E-02  0.7895026E-01
          2   -1    0    0  501    0  0.00000000000E+00  0.00000000000E+00  0.21529992669E+04  0.21529992669E+04  0.00000000000E+00 0. -1.
         -1   -1    0    0    0  501 -0.00000000000E+00 -0.00000000000E+00 -0.24466211247E+04  0.24466211247E+04  0.00000000000E+00 0.  1.
         24    2    1    2    0    0 -0.71591371422E+03 -0.40724872864E+03 -0.21942105920E+04  0.23450407438E+04  0.79195925400E+02 0.  0.
        254    2    1    2    0    0  0.71591371422E+03  0.40724872864E+03  0.19005887342E+04  0.22545796479E+04  0.89022911588E+03 0.  0.
         23    2    4    4    0    0 -0.15417984592E+03  0.23510305588E+03  0.69188258225E+03  0.75259197791E+03  0.92996267753E+02 0.  0.
         23    2    4    4    0    0  0.87009356013E+03  0.17214567277E+03  0.12087061520E+04  0.15019876700E+04  0.91101387946E+02 0.  0.
          4    1    3    3  502    0 -0.29191858199E+03 -0.20022936797E+03 -0.10136253460E+04  0.10736594433E+04  0.00000000000E+00 0. -1.
         -3    1    3    3    0  502 -0.42399513223E+03 -0.20701936067E+03 -0.11805852461E+04  0.12713813004E+04  0.00000000000E+00 0.  1.
         13    1    5    5    0    0 -0.16190443095E+03  0.21662149027E+03  0.59379815430E+03  0.65248307476E+03  0.00000000000E+00 0.  1.
        -13    1    5    5    0    0  0.77245850308E+01  0.18481565610E+02  0.98084427956E+02  0.10010890314E+03  0.00000000000E+00 0. -1.
          3    1    6    6  503    0  0.25031476578E+03  0.56688260320E+02  0.28363487177E+03  0.38251768758E+03  0.00000000000E+00 0. -1.
         -3    1    6    6    0  503  0.61977879435E+03  0.11545741245E+03  0.92507128022E+03  0.11194699824E+04  0.00000000000E+00 0.  1.
<mgrwt>
<rscale>  0 0.45902390E+04</rscale>
<asrwt>0</asrwt>
<pdfrwt beam="1">  1        2 0.33123066E+00 0.45902390E+04</pdfrwt>
<pdfrwt beam="2">  1       -1 0.37640325E+00 0.45902390E+04</pdfrwt>
<totfact> 0.48602179E-02</totfact>
</mgrwt>
</event>
<event>
12    7  0.1637954E-007  0.1365594E+04  0.7818608E-02  0.8979107E-01
          2   -1    0    0  501    0  0.00000000000E+00  0.00000000000E+00  0.14345338968E+04  0.14345338968E+04  0.00000000000E+00 0. -1.
         -1   -1    0    0    0  501 -0.00000000000E+00 -0.00000000000E+00 -0.32499169157E+03  0.32499169157E+03  0.00000000000E+00 0.  1.
         24    2    1    2    0    0  0.88139753865E+02 -0.25143768845E+03  0.10904761105E+02  0.27847303772E+03  0.80242080830E+02 0.  0.
        254    2    1    2    0    0 -0.88139753865E+02  0.25143768845E+03  0.10986374442E+04  0.14810525507E+04  0.95682960698E+03 0.  0.
         23    2    4    4    0    0  0.78470503263E+00  0.46059454756E+03  0.13815398531E+03  0.48984204612E+03  0.93331417455E+02 0.  0.
         23    2    4    4    0    0 -0.88924458897E+02 -0.20915685911E+03  0.96048345885E+03  0.99121050456E+03  0.91190122988E+02 0.  0.
          4    1    3    3  502    0  0.28197023627E+02 -0.33233149221E+02  0.27570824040E+02  0.51571937008E+02  0.00000000000E+00 0. -1.
         -3    1    3    3    0  502  0.59942730238E+02 -0.21820453923E+03 -0.16666062935E+02  0.22690110071E+03  0.00000000000E+00 0.  1.
         13    1    5    5    0    0  0.41112292089E+01  0.32290907006E+03  0.51213545717E+02  0.32697094213E+03  0.00000000000E+00 0.  1.
        -13    1    5    5    0    0 -0.33265241762E+01  0.13768547750E+03  0.86940439594E+02  0.16287110399E+03  0.00000000000E+00 0. -1.
          1    1    6    6  503    0 -0.20826229338E+02 -0.15851223999E+03  0.64358006771E+03  0.66314038152E+03  0.00000000000E+00 0. -1.
         -1    1    6    6    0  503 -0.68098229559E+02 -0.50644619118E+02  0.31690339114E+03  0.32807012304E+03  0.00000000000E+00 0.  1.
<mgrwt>
<rscale>  0 0.13655938E+04</rscale>
<asrwt>0</asrwt>
<pdfrwt beam="1">  1        2 0.22069752E+00 0.13655938E+04</pdfrwt>
<pdfrwt beam="2">  1       -1 0.49998723E-01 0.13655938E+04</pdfrwt>
<totfact> 0.61706213E+01</totfact>
</mgrwt>
</event>
<event>
12    7  0.2086969E-007  0.2130018E+04  0.7818608E-02  0.8548134E-01
         -1   -1    0    0    0  501 -0.00000000000E+00  0.00000000000E+00  0.90558177110E+03  0.90558177110E+03  0.00000000000E+00 0.  1.
          2   -1    0    0  501    0  0.00000000000E+00 -0.00000000000E+00 -0.12525036715E+04  0.12525036715E+04  0.00000000000E+00 0. -1.
         24    2    1    2    0    0 -0.16632864461E+03  0.55875092751E+03 -0.76929034315E+03  0.96852291269E+03  0.79757026867E+02 0.  0.
        254    2    1    2    0    0  0.16632864461E+03 -0.55875092751E+03  0.42236844275E+03  0.11895625299E+04  0.94699318590E+03 0.  0.
         23    2    4    4    0    0  0.53077958630E+03 -0.44660077997E+03  0.16006484428E+03  0.71776578738E+03  0.91584634400E+02 0.  0.
         23    2    4    4    0    0 -0.36445094169E+03 -0.11215014754E+03  0.26230359846E+03  0.47179674253E+03  0.91579713949E+02 0.  0.
          2    1    3    3  502    0 -0.10077479242E+03  0.42510959859E+03 -0.53191511920E+03  0.68833670804E+03  0.00000000000E+00 0. -1.
         -1    1    3    3    0  502 -0.65553852192E+02  0.13364132892E+03 -0.23737522394E+03  0.28018620465E+03  0.00000000000E+00 0.  1.
         13    1    5    5    0    0 -0.27146809592E+01 -0.44677013384E+01 -0.28863291090E+01  0.59716617189E+01  0.00000000000E+00 0.  1.
        -13    1    5    5    0    0  0.53349426726E+03 -0.44213307864E+03  0.16295117339E+03  0.71179412567E+03  0.00000000000E+00 0. -1.
          4    1    6    6  503    0 -0.33344627427E+03 -0.12719668361E+03  0.24740229539E+03  0.43425028487E+03  0.00000000000E+00 0. -1.
         -4    1    6    6    0  503 -0.31004667420E+02  0.15046536074E+02  0.14901303070E+02  0.37546457660E+02  0.00000000000E+00 0.  1.
<mgrwt>
<rscale>  0 0.21300183E+04</rscale>
<asrwt>0</asrwt>
<pdfrwt beam="1">  1        2 0.19269287E+00 0.21300183E+04</pdfrwt>
<pdfrwt beam="2">  1       -1 0.13932027E+00 0.21300183E+04</pdfrwt>
<totfact> 0.78426287E+00</totfact>
</mgrwt>
</event>
<event>
12    7  0.1637954E-007  0.1720682E+04  0.7818608E-02  0.8749656E-01
          2   -1    0    0  501    0  0.00000000000E+00  0.00000000000E+00  0.16295595958E+04  0.16295595958E+04  0.00000000000E+00 0. -1.
         -1   -1    0    0    0  501 -0.00000000000E+00 -0.00000000000E+00 -0.45422506116E+03  0.45422506116E+03  0.00000000000E+00 0.  1.
         24    2    1    2    0    0  0.38261032875E+03 -0.35947801284E+03  0.37162332599E+02  0.53235328761E+03  0.80024236808E+02 0.  0.
        254    2    1    2    0    0 -0.38261032875E+03  0.35947801284E+03  0.11381722021E+04  0.15514313694E+04  0.91426923111E+03 0.  0.
         23    2    4    4    0    0 -0.86249347869E+02  0.58879326124E+03  0.41316492834E+03  0.73014110264E+03  0.91018224945E+02 0.  0.
         23    2    4    4    0    0 -0.29636098089E+03 -0.22931524840E+03  0.72500727372E+03  0.82129026673E+03  0.92015439643E+02 0.  0.
          2    1    3    3  502    0  0.84924828610E+02 -0.54261589213E+02  0.32795724443E+02  0.10598163105E+03  0.00000000000E+00 0. -1.
         -1    1    3    3    0  502  0.29768550014E+03 -0.30521642363E+03  0.43666081553E+01  0.42637165656E+03  0.00000000000E+00 0.  1.
         13    1    5    5    0    0 -0.40966332010E+01  0.18645940845E+03  0.87334876515E+02  0.20593997683E+03  0.00000000000E+00 0. -1.
        -13    1    5    5    0    0 -0.82152714668E+02  0.40233385279E+03  0.32583005182E+03  0.52420112581E+03  0.00000000000E+00 0.  1.
          4    1    6    6  503    0 -0.70407537895E+02 -0.49050842828E+02  0.94274208498E+02  0.12747875495E+03  0.00000000000E+00 0. -1.
         -4    1    6    6    0  503 -0.22595344299E+03 -0.18026440557E+03  0.63073306522E+03  0.69381151178E+03  0.00000000000E+00 0.  1.
<mgrwt>
<rscale>  0 0.17206822E+04</rscale>
<asrwt>0</asrwt>
<pdfrwt beam="1">  1        2 0.25070147E+00 0.17206822E+04</pdfrwt>
<pdfrwt beam="2">  1       -1 0.69880779E-01 0.17206822E+04</pdfrwt>
<totfact> 0.24055775E+01</totfact>
</mgrwt>
</event>
<event>
12    7  0.1637954E-007  0.2002042E+04  0.7818608E-02  0.8605666E-01
         -1   -1    0    0    0  501 -0.00000000000E+00  0.00000000000E+00  0.31177127319E+03  0.31177127319E+03  0.00000000000E+00 0.  1.
          2   -1    0    0  501    0  0.00000000000E+00 -0.00000000000E+00 -0.32140339370E+04  0.32140339370E+04  0.00000000000E+00 0. -1.
         24    2    1    2    0    0  0.55894284143E+02 -0.46219410727E+03 -0.18775803424E+02  0.47244482101E+03  0.78128191505E+02 0.  0.
        254    2    1    2    0    0 -0.55894284143E+02  0.46219410727E+03 -0.28834868604E+04  0.30533603892E+04  0.88981213098E+03 0.  0.
         23    2    4    4    0    0  0.30102118730E+03 -0.10124689077E+03 -0.10078469698E+04  0.10605795895E+04  0.90602776256E+02 0.  0.
         23    2    4    4    0    0 -0.35691547144E+03  0.56344099805E+03 -0.18756398906E+04  0.19927807997E+04  0.91081855280E+02 0.  0.
          2    1    3    3  502    0 -0.10732199507E+02 -0.11860432403E+02  0.44945811012E+01  0.16614789265E+02  0.00000000000E+00 0. -1.
         -1    1    3    3    0  502  0.66626483650E+02 -0.45033367487E+03 -0.23270384525E+02  0.45583003174E+03  0.00000000000E+00 0.  1.
         13    1    5    5    0    0  0.23249636755E+03 -0.70567524561E+02 -0.62758039972E+03  0.67297213505E+03  0.00000000000E+00 0.  1.
        -13    1    5    5    0    0  0.68524819751E+02 -0.30679366213E+02 -0.38026657009E+03  0.38760745447E+03  0.00000000000E+00 0. -1.
          3    1    6    6  503    0 -0.18474887970E+03  0.30583387445E+03 -0.87075975210E+03  0.94121679394E+03  0.00000000000E+00 0. -1.
         -3    1    6    6    0  503 -0.17216659174E+03  0.25760712360E+03 -0.10048801385E+04  0.10515640058E+04  0.00000000000E+00 0.  1.
<mgrwt>
<rscale>  0 0.20020424E+04</rscale>
<asrwt>0</asrwt>
<pdfrwt beam="1">  1        2 0.49446680E+00 0.20020424E+04</pdfrwt>
<pdfrwt beam="2">  1       -1 0.47964807E-01 0.20020424E+04</pdfrwt>
<totfact> 0.58515381E+00</totfact>
</mgrwt>
</event>
<event>
12    7  0.1637954E-007  0.1493129E+04  0.7818608E-02  0.8889035E-01
          2   -1    0    0  501    0  0.00000000000E+00  0.00000000000E+00  0.85962989943E+03  0.85962989943E+03  0.00000000000E+00 0. -1.
         -3   -1    0    0    0  501 -0.00000000000E+00 -0.00000000000E+00 -0.64837038546E+03  0.64837038546E+03  0.00000000000E+00 0.  1.
         24    2    1    2    0    0  0.78903687734E+02 -0.33678784231E+03 -0.25686609335E+03  0.43774754479E+03  0.77400777737E+02 0.  0.
        254    2    1    2    0    0 -0.78903687734E+02  0.33678784231E+03  0.46812560732E+03  0.10702527401E+04  0.89813556927E+03 0.  0.
         23    2    4    4    0    0 -0.12370432427E+03 -0.15586814330E+03  0.52043432749E+03  0.56452785447E+03  0.90786404812E+02 0.  0.
         23    2    4    4    0    0  0.44800636537E+02  0.49265598561E+03 -0.52308720173E+02  0.50572488562E+03  0.91128703181E+02 0.  0.
          2    1    3    3  502    0  0.14484893081E+02 -0.17435640941E+03 -0.16427877833E+03  0.23999476377E+03  0.00000000000E+00 0. -1.
         -1    1    3    3    0  502  0.64418794653E+02 -0.16243143290E+03 -0.92587315027E+02  0.19775278102E+03  0.00000000000E+00 0.  1.
         13    1    5    5    0    0 -0.11407935690E+03 -0.11086400812E+03  0.47029246045E+03  0.49646744740E+03  0.00000000000E+00 0. -1.
        -13    1    5    5    0    0 -0.96249673673E+01 -0.45004135182E+02  0.50141867042E+02  0.68060407071E+02  0.00000000000E+00 0.  1.
          2    1    6    6  503    0  0.70877563475E+02  0.31066297608E+03 -0.22135982353E+02  0.31941370576E+03  0.00000000000E+00 0. -1.
         -2    1    6    6    0  503 -0.26076926938E+02  0.18199300953E+03 -0.30172737821E+02  0.18631117987E+03  0.00000000000E+00 0.  1.
<mgrwt>
<rscale>  0 0.14931290E+04</rscale>
<asrwt>0</asrwt>
<pdfrwt beam="1">  1        2 0.13225075E+00 0.14931290E+04</pdfrwt>
<pdfrwt beam="2">  1       -3 0.99749291E-01 0.14931290E+04</pdfrwt>
<totfact> 0.16811116E+01</totfact>
</mgrwt>
</event>
<event>
12    7  0.1637954E-007  0.1265163E+04  0.7818608E-02  0.9057656E-01
          2   -1    0    0  501    0  0.00000000000E+00  0.00000000000E+00  0.10076862830E+04  0.10076862830E+04  0.00000000000E+00 0. -1.
         -1   -1    0    0    0  501 -0.00000000000E+00 -0.00000000000E+00 -0.39710734165E+03  0.39710734165E+03  0.00000000000E+00 0.  1.
         24    2    1    2    0    0 -0.12517266246E+03 -0.13126848639E+03 -0.12044468066E+03  0.23236423421E+03  0.81157903461E+02 0.  0.
        254    2    1    2    0    0  0.12517266246E+03  0.13126848639E+03  0.73102362202E+03  0.11724293905E+04  0.89849625971E+03 0.  0.
         23    2    4    4    0    0  0.59581215777E+02  0.23486756238E+03  0.90464844464E+03  0.94102749344E+03  0.91821794175E+02 0.  0.
         23    2    4    4    0    0  0.65591446685E+02 -0.10359907599E+03 -0.17362482262E+03  0.23140189702E+03  0.91467220847E+02 0.  0.
          4    1    3    3  502    0 -0.43583112800E+02 -0.20902335244E+02  0.20799576996E+01  0.48381004165E+02  0.00000000000E+00 0. -1.
         -3    1    3    3    0  502 -0.81589549662E+02 -0.11036615114E+03 -0.12252463836E+03  0.18398323005E+03  0.00000000000E+00 0.  1.
         13    1    5    5    0    0  0.23528836292E+02  0.97272054680E+02  0.54795569805E+03  0.55701966373E+03  0.00000000000E+00 0. -1.
        -13    1    5    5    0    0  0.36052379485E+02  0.13759550770E+03  0.35669274659E+03  0.38400782971E+03  0.00000000000E+00 0.  1.
          4    1    6    6  503    0 -0.44933599592E+01  0.11575017218E+02 -0.38777675591E+02  0.40717065606E+02  0.00000000000E+00 0. -1.
         -4    1    6    6    0  503  0.70084806644E+02 -0.11517409321E+03 -0.13484714703E+03  0.19068483141E+03  0.00000000000E+00 0.  1.
<mgrwt>
<rscale>  0 0.12651634E+04</rscale>
<asrwt>0</asrwt>
<pdfrwt beam="1">  1        2 0.15502866E+00 0.12651634E+04</pdfrwt>
<pdfrwt beam="2">  1       -1 0.61093438E-01 0.12651634E+04</pdfrwt>
<totfact> 0.75845292E+01</totfact>
</mgrwt>
</event>
<event>
12    7  0.1637954E-007  0.1323119E+04  0.7818608E-02  0.9011430E-01
          2   -1    0    0  501    0  0.00000000000E+00  0.00000000000E+00  0.24310700032E+03  0.24310700032E+03  0.00000000000E+00 0. -1.
         -1   -1    0    0    0  501 -0.00000000000E+00 -0.00000000000E+00 -0.18002802834E+04  0.18002802834E+04  0.00000000000E+00 0.  1.
         24    2    1    2    0    0  0.23137514669E+03  0.20378922885E+03 -0.66963669333E+03  0.74203100489E+03  0.84452370321E+02 0.  0.
        254    2    1    2    0    0 -0.23137514669E+03 -0.20378922885E+03 -0.88753658976E+03  0.13013562788E+04  0.90041238219E+03 0.  0.
         23    2    4    4    0    0  0.32003427099E+03 -0.19392261195E+03 -0.28503681456E+03  0.47942684621E+03  0.92607781393E+02 0.  0.
         23    2    4    4    0    0 -0.55140941769E+03 -0.98666168959E+01 -0.60249977519E+03  0.82192943262E+03  0.91718684372E+02 0.  0.
          4    1    3    3  502    0  0.86839468985E+01  0.44322776377E+02 -0.11181626620E+03  0.12059351901E+03  0.00000000000E+00 0. -1.
         -3    1    3    3    0  502  0.22269119979E+03  0.15946645247E+03 -0.55782042713E+03  0.62143748588E+03  0.00000000000E+00 0.  1.
         13    1    5    5    0    0  0.30320581139E+03 -0.14964590313E+03 -0.25043642340E+03  0.42076841915E+03  0.00000000000E+00 0. -1.
        -13    1    5    5    0    0  0.16828459599E+02 -0.44276708827E+02 -0.34600391165E+02  0.58658427065E+02  0.00000000000E+00 0.  1.
          2    1    6    6  503    0 -0.52085527449E+03  0.12801890454E+02 -0.55997083001E+03  0.76486693995E+03  0.00000000000E+00 0. -1.
         -2    1    6    6    0  503 -0.30554143193E+02 -0.22668507349E+02 -0.42528945178E+02  0.57062492670E+02  0.00000000000E+00 0.  1.
<mgrwt>
<rscale>  0 0.13231186E+04</rscale>
<asrwt>0</asrwt>
<pdfrwt beam="1">  1        2 0.37401077E-01 0.13231186E+04</pdfrwt>
<pdfrwt beam="2">  1       -1 0.27696620E+00 0.13231186E+04</pdfrwt>
<totfact> 0.72755413E+00</totfact>
</mgrwt>
</event>
<event>
12    7  0.2010590E-007  0.1617831E+04  0.7818608E-02  0.8809668E-01
          2   -1    0    0  501    0  0.00000000000E+00  0.00000000000E+00  0.12253802523E+04  0.12253802523E+04  0.00000000000E+00 0. -1.
         -1   -1    0    0    0  501 -0.00000000000E+00 -0.00000000000E+00 -0.53399265108E+03  0.53399265108E+03  0.00000000000E+00 0.  1.
         24    2    1    2    0    0 -0.27869731732E+02  0.10736924112E+03  0.83350020569E+03  0.84497631241E+03  0.83411628455E+02 0.  0.
        254    2    1    2    0    0  0.27869731732E+02 -0.10736924112E+03 -0.14211260443E+03  0.91439659101E+03  0.89644869202E+03 0.  0.
         23    2    4    4    0    0  0.18430422112E+03 -0.39337092556E+03 -0.30469054944E+03  0.53850756526E+03  0.91898508858E+02 0.  0.
         23    2    4    4    0    0 -0.15643448939E+03  0.28600168444E+03  0.16257794501E+03  0.37588902574E+03  0.92694436180E+02 0.  0.
          4    1    3    3  502    0 -0.31406943962E+02  0.11055867817E+03  0.83211679689E+03  0.84001665526E+03  0.00000000000E+00 0. -1.
         -3    1    3    3    0  502  0.35372122295E+01 -0.31894370569E+01  0.13834087968E+01  0.49596571450E+01  0.00000000000E+00 0.  1.
         13    1    5    5    0    0  0.29030419281E+02 -0.16349036039E+03 -0.12732922325E+03  0.20924768643E+03  0.00000000000E+00 0.  1.
        -13    1    5    5    0    0  0.15527380184E+03 -0.22988056517E+03 -0.17736132619E+03  0.32925987883E+03  0.00000000000E+00 0. -1.
          1    1    6    6  503    0 -0.73365339482E+02  0.72566365331E+02  0.17199947409E+02  0.10461447608E+03  0.00000000000E+00 0. -1.
         -1    1    6    6    0  503 -0.83069149906E+02  0.21343531911E+03  0.14537799760E+03  0.27127454966E+03  0.00000000000E+00 0.  1.
<mgrwt>
<rscale>  0 0.16178307E+04</rscale>
<asrwt>0</asrwt>
<pdfrwt beam="1">  1        2 0.18852004E+00 0.16178307E+04</pdfrwt>
<pdfrwt beam="2">  1       -1 0.82152716E-01 0.16178307E+04</pdfrwt>
<totfact> 0.29436476E+01</totfact>
</mgrwt>
</event>
<event>
12    7  0.1637954E-007  0.1768659E+04  0.7818608E-02  0.8723146E-01
          2   -1    0    0  501    0  0.00000000000E+00  0.00000000000E+00  0.12517725329E+04  0.12517725329E+04  0.00000000000E+00 0. -1.
         -1   -1    0    0    0  501 -0.00000000000E+00 -0.00000000000E+00 -0.62474514396E+03  0.62474514396E+03  0.00000000000E+00 0.  1.
         24    2    1    2    0    0 -0.33709732362E+03 -0.25174173677E+03 -0.29649313070E+03  0.52100754124E+03  0.80821864926E+02 0.  0.
        254    2    1    2    0    0  0.33709732362E+03  0.25174173677E+03  0.92352051963E+03  0.13555101356E+04  0.89861508441E+03 0.  0.
         23    2    4    4    0    0  0.18258153110E+03  0.37767554409E+03  0.23944763562E+02  0.42964461360E+03  0.89701227356E+02 0.  0.
         23    2    4    4    0    0  0.15451579252E+03 -0.12593380733E+03  0.89957575607E+03  0.92586552200E+03  0.90862368229E+02 0.  0.
          2    1    3    3  502    0 -0.19268443301E+03 -0.10675055124E+03 -0.18680949603E+03  0.28882652012E+03  0.00000000000E+00 0. -1.
         -1    1    3    3    0  502 -0.14441289061E+03 -0.14499118552E+03 -0.10968363467E+03  0.23218102112E+03  0.00000000000E+00 0.  1.
         13    1    5    5    0    0  0.64533073829E+01 -0.47004364938E+01  0.67054808354E+00  0.80117984337E+01  0.00000000000E+00 0. -1.
        -13    1    5    5    0    0  0.17612822372E+03  0.38237598059E+03  0.23274215478E+02  0.42163281517E+03  0.00000000000E+00 0.  1.
          3    1    6    6  503    0  0.10887207363E+02 -0.43345701156E+01  0.23132451901E+03  0.23162114083E+03  0.00000000000E+00 0. -1.
         -3    1    6    6    0  503  0.14362858515E+03 -0.12159923721E+03  0.66825123706E+03  0.69424438117E+03  0.00000000000E+00 0.  1.
<mgrwt>
<rscale>  0 0.17686592E+04</rscale>
<asrwt>0</asrwt>
<pdfrwt beam="1">  1        2 0.19258039E+00 0.17686592E+04</pdfrwt>
<pdfrwt beam="2">  1       -1 0.96114638E-01 0.17686592E+04</pdfrwt>
<totfact> 0.19859723E+01</totfact>
</mgrwt>
</event>
<event>
12    7  0.1637954E-007  0.1883897E+04  0.7818608E-02  0.8662913E-01
          4   -1    0    0  501    0  0.00000000000E+00  0.00000000000E+00  0.14100463713E+04  0.14100463713E+04  0.00000000000E+00 0. -1.
         -3   -1    0    0    0  501 -0.00000000000E+00 -0.00000000000E+00 -0.62924699672E+03  0.62924699672E+03  0.00000000000E+00 0.  1.
         24    2    1    2    0    0  0.23079405992E+03 -0.36088034641E+03  0.93965238229E+03  0.10358186443E+04  0.80455837213E+02 0.  0.
        254    2    1    2    0    0 -0.23079405992E+03  0.36088034641E+03 -0.15885300768E+03  0.10034747238E+04  0.89343534780E+03 0.  0.
         23    2    4    4    0    0 -0.28227847034E+03  0.61549385659E+03 -0.22626102340E+03  0.71947315983E+03  0.89071626712E+02 0.  0.
         23    2    4    4    0    0  0.51484410415E+02 -0.25461351018E+03  0.67408015716E+02  0.28400156395E+03  0.92921276675E+02 0.  0.
          2    1    3    3  502    0  0.22848437602E+03 -0.36526614919E+03  0.93068312332E+03  0.10255708390E+04  0.00000000000E+00 0. -1.
         -1    1    3    3    0  502  0.23096838992E+01  0.43858027778E+01  0.89692589749E+01  0.10247805242E+02  0.00000000000E+00 0.  1.
         13    1    5    5    0    0 -0.20806704258E+02  0.20735441051E+02 -0.27022866920E+02  0.39913817084E+02  0.00000000000E+00 0. -1.
        -13    1    5    5    0    0 -0.26147176608E+03  0.59475841554E+03 -0.19923815648E+03  0.67955934275E+03  0.00000000000E+00 0.  1.
          3    1    6    6  503    0  0.21104882831E+02 -0.36188530776E+01 -0.28321082139E+01  0.21599375312E+02  0.00000000000E+00 0. -1.
         -3    1    6    6    0  503  0.30379527584E+02 -0.25099465711E+03  0.70240123930E+02  0.26240218864E+03  0.00000000000E+00 0.  1.
<mgrwt>
<rscale>  0 0.18838975E+04</rscale>
<asrwt>0</asrwt>
<pdfrwt beam="1">  1        4 0.21693021E+00 0.18838975E+04</pdfrwt>
<pdfrwt beam="2">  1       -3 0.96807231E-01 0.18838975E+04</pdfrwt>
<totfact> 0.20601083E-01</totfact>
</mgrwt>
</event>
<event>
12    7  0.1637954E-007  0.1426994E+04  0.7818608E-02  0.8934508E-01
          2   -1    0    0  501    0  0.00000000000E+00  0.00000000000E+00  0.11852554319E+04  0.11852554319E+04  0.00000000000E+00 0. -1.
         -1   -1    0    0    0  501 -0.00000000000E+00 -0.00000000000E+00 -0.42950878354E+03  0.42950878354E+03  0.00000000000E+00 0.  1.
         24    2    1    2    0    0 -0.19968536015E+03  0.67450724637E+02 -0.13880380236E+03  0.26483954406E+03  0.80309683307E+02 0.  0.
        254    2    1    2    0    0  0.19968536015E+03 -0.67450724637E+02  0.89455045075E+03  0.13499246714E+04  0.98876299800E+03 0.  0.
         23    2    4    4    0    0 -0.85520566214E+02 -0.14629220384E+03  0.10031471214E+04  0.10217355161E+04  0.94467674323E+02 0.  0.
         23    2    4    4    0    0  0.28520592637E+03  0.78841479205E+02 -0.10859667062E+03  0.32818915536E+03  0.91413814848E+02 0.  0.
          4    1    3    3  502    0  0.10534836370E+00  0.20187377378E+02 -0.10728334887E+02  0.22861287653E+02  0.00000000000E+00 0. -1.
         -3    1    3    3    0  502 -0.19979070852E+03  0.47263347259E+02 -0.12807546748E+03  0.24197825640E+03  0.00000000000E+00 0.  1.
         13    1    5    5    0    0 -0.46288065655E+02 -0.14308299076E+03  0.86961628656E+03  0.88252354820E+03  0.00000000000E+00 0. -1.
        -13    1    5    5    0    0 -0.39232500559E+02 -0.32092130782E+01  0.13353083481E+03  0.13921196785E+03  0.00000000000E+00 0.  1.
          3    1    6    6  503    0  0.94957405837E+02 -0.22280599618E+01 -0.69573015925E+02  0.11773817444E+03  0.00000000000E+00 0. -1.
         -3    1    6    6    0  503  0.19024852053E+03  0.81069539167E+02 -0.39023654698E+02  0.21045098092E+03  0.00000000000E+00 0.  1.
<mgrwt>
<rscale>  0 0.14269935E+04</rscale>
<asrwt>0</asrwt>
<pdfrwt beam="1">  1        2 0.18234699E+00 0.14269935E+04</pdfrwt>
<pdfrwt beam="2">  1       -1 0.66078275E-01 0.14269935E+04</pdfrwt>
<totfact> 0.49701061E+01</totfact>
</mgrwt>
</event>
<event>
12    7  0.1637954E-007  0.1757804E+04  0.7818608E-02  0.8729066E-01
          2   -1    0    0  501    0  0.00000000000E+00  0.00000000000E+00  0.27351069195E+04  0.27351069195E+04  0.00000000000E+00 0. -1.
         -1   -1    0    0    0  501 -0.00000000000E+00 -0.00000000000E+00 -0.28242735249E+03  0.28242735249E+03  0.00000000000E+00 0.  1.
         24    2    1    2    0    0  0.32117983664E+03 -0.21899132384E+03  0.24456294352E+02  0.39734533498E+03  0.78559006598E+02 0.  0.
        254    2    1    2    0    0 -0.32117983664E+03  0.21899132384E+03  0.24282232726E+04  0.26201889370E+04  0.90443801137E+03 0.  0.
         23    2    4    4    0    0 -0.33283861069E+03  0.49391060765E+03  0.10432804123E+04  0.12048389172E+04  0.92051987882E+02 0.  0.
         23    2    4    4    0    0  0.11658774056E+02 -0.27491928381E+03  0.13849428603E+04  0.14153500198E+04  0.97120608896E+02 0.  0.
          2    1    3    3  502    0  0.44788243623E+02 -0.67051647742E+02  0.13477612392E+02  0.81753019929E+02  0.00000000000E+00 0. -1.
         -1    1    3    3    0  502  0.27639159301E+03 -0.15193967610E+03  0.10978681960E+02  0.31559231505E+03  0.00000000000E+00 0.  1.
         13    1    5    5    0    0 -0.31346035711E+03  0.42280045013E+03  0.94885302958E+03  0.10850528503E+04  0.00000000000E+00 0.  1.
        -13    1    5    5    0    0 -0.19378253582E+02  0.71110157518E+02  0.94427382734E+02  0.11978606690E+03  0.00000000000E+00 0. -1.
          1    1    6    6  503    0  0.50907263318E+02 -0.10249078237E+03  0.58616647186E+03  0.59723282115E+03  0.00000000000E+00 0. -1.
         -1    1    6    6    0  503 -0.39248489262E+02 -0.17242850144E+03  0.79877638846E+03  0.81811719869E+03  0.00000000000E+00 0.  1.
<mgrwt>
<rscale>  0 0.17578043E+04</rscale>
<asrwt>0</asrwt>
<pdfrwt beam="1">  1        2 0.42078566E+00 0.17578043E+04</pdfrwt>
<pdfrwt beam="2">  1       -1 0.43450364E-01 0.17578043E+04</pdfrwt>
<totfact> 0.14303000E+01</totfact>
</mgrwt>
</event>
<event>
12    7  0.1637954E-007  0.1800649E+04  0.7818608E-02  0.8705955E-01
         -1   -1    0    0    0  501 -0.00000000000E+00  0.00000000000E+00  0.67203549718E+03  0.67203549718E+03  0.00000000000E+00 0.  1.
          2   -1    0    0  501    0  0.00000000000E+00 -0.00000000000E+00 -0.12061625530E+04  0.12061625530E+04  0.00000000000E+00 0. -1.
         24    2    1    2    0    0 -0.13445584102E+03 -0.70799234919E+02 -0.88031196061E+03  0.89683054550E+03  0.79151591943E+02 0.  0.
        254    2    1    2    0    0  0.13445584102E+03  0.70799234919E+02  0.34618490481E+03  0.98136750465E+03  0.90561983526E+03 0.  0.
         23    2    4    4    0    0  0.18502788844E+03 -0.30566489476E+03 -0.10623017530E+03  0.38346315081E+03  0.89959938288E+02 0.  0.
         23    2    4    4    0    0 -0.50572047422E+02  0.37646412968E+03  0.45241508011E+03  0.59790435384E+03  0.92344131952E+02 0.  0.
          2    1    3    3  502    0 -0.12842740018E+03 -0.46177719212E+02 -0.59767035293E+03  0.61305450789E+03  0.00000000000E+00 0. -1.
         -1    1    3    3    0  502 -0.60284408456E+01 -0.24621515707E+02 -0.28264160768E+03  0.28377603761E+03  0.00000000000E+00 0.  1.
         13    1    5    5    0    0  0.18141970533E+03 -0.27277979516E+03 -0.71137198851E+02  0.33523488361E+03  0.00000000000E+00 0.  1.
        -13    1    5    5    0    0  0.36081831120E+01 -0.32885099601E+02 -0.35092976451E+02  0.48228267202E+02  0.00000000000E+00 0. -1.
          1    1    6    6  503    0 -0.28244438652E+02  0.34090261669E+02  0.28978217413E+02  0.52911542596E+02  0.00000000000E+00 0. -1.
         -1    1    6    6    0  503 -0.22327608770E+02  0.34237386801E+03  0.42343686270E+03  0.54499281124E+03  0.00000000000E+00 0.  1.
<mgrwt>
<rscale>  0 0.18006488E+04</rscale>
<asrwt>0</asrwt>
<pdfrwt beam="1">  1        2 0.18556347E+00 0.18006488E+04</pdfrwt>
<pdfrwt beam="2">  1       -1 0.10339008E+00 0.18006488E+04</pdfrwt>
<totfact> 0.17842877E+01</totfact>
</mgrwt>
</event>
<event>
12    7  0.1637954E-007  0.2667976E+04  0.7818608E-02  0.8345471E-01
          2   -1    0    0  501    0  0.00000000000E+00  0.00000000000E+00  0.24305209343E+04  0.24305209343E+04  0.00000000000E+00 0. -1.
         -1   -1    0    0    0  501 -0.00000000000E+00 -0.00000000000E+00 -0.73215736123E+03  0.73215736123E+03  0.00000000000E+00 0.  1.
         24    2    1    2    0    0 -0.54136122309E+03  0.10452343725E+04  0.63915257062E+03  0.13417167977E+04  0.78109470384E+02 0.  0.
        254    2    1    2    0    0  0.54136122309E+03 -0.10452343725E+04  0.10592110024E+04  0.18209614978E+04  0.89910286475E+03 0.  0.
         23    2    4    4    0    0  0.65618335337E+03 -0.32271061297E+03  0.44153387250E+03  0.85918956747E+03  0.92389497937E+02 0.  0.
         23    2    4    4    0    0 -0.11482213028E+03 -0.72252375956E+03  0.61767712991E+03  0.96177193031E+03  0.90859806248E+02 0.  0.
          4    1    3    3  502    0 -0.25759510095E+03  0.54152513997E+03  0.36332669291E+03  0.70114976933E+03  0.00000000000E+00 0. -1.
         -3    1    3    3    0  502 -0.28376612214E+03  0.50370923256E+03  0.27582587772E+03  0.64056702839E+03  0.00000000000E+00 0.  1.
         13    1    5    5    0    0  0.38487140199E+02 -0.33422394531E+02  0.55854385734E+02  0.75617648883E+02  0.00000000000E+00 0.  1.
        -13    1    5    5    0    0  0.61769621317E+03 -0.28928821844E+03  0.38567948677E+03  0.78357191859E+03  0.00000000000E+00 0. -1.
          1    1    6    6  503    0 -0.12260725989E+03 -0.71672159102E+03  0.60573776549E+03  0.94638291391E+03  0.00000000000E+00 0. -1.
         -1    1    6    6    0  503  0.77851296143E+01 -0.58021685424E+01  0.11939364421E+02  0.15389016398E+02  0.00000000000E+00 0.  1.
<mgrwt>
<rscale>  0 0.26679759E+04</rscale>
<asrwt>0</asrwt>
<pdfrwt beam="1">  1        2 0.37392629E+00 0.26679759E+04</pdfrwt>
<pdfrwt beam="2">  1       -1 0.11263959E+00 0.26679759E+04</pdfrwt>
<totfact> 0.27542320E+00</totfact>
</mgrwt>
</event>
<event>
12    7  0.1637954E-007  0.1540996E+04  0.7818608E-02  0.8857639E-01
          2   -1    0    0  501    0  0.00000000000E+00  0.00000000000E+00  0.88303295219E+03  0.88303295219E+03  0.00000000000E+00 0. -1.
         -1   -1    0    0    0  501 -0.00000000000E+00 -0.00000000000E+00 -0.67230501079E+03  0.67230501079E+03  0.00000000000E+00 0.  1.
         24    2    1    2    0    0  0.25525553769E+03 -0.91815014612E+02  0.49706033187E+03  0.57297864709E+03  0.87465250617E+02 0.  0.
        254    2    1    2    0    0 -0.25525553769E+03  0.91815014612E+02 -0.28633239047E+03  0.98235931589E+03  0.89969895034E+03 0.  0.
         23    2    4    4    0    0 -0.40947472920E+03 -0.28515231903E+03 -0.70130402050E+02  0.51207777392E+03  0.91235817248E+02 0.  0.
         23    2    4    4    0    0  0.15421919151E+03  0.37696733364E+03 -0.21620198842E+03  0.47028154197E+03  0.92376941179E+02 0.  0.
          2    1    3    3  502    0  0.19027918292E+03 -0.35517795470E+02  0.39231785339E+03  0.43747111829E+03  0.00000000000E+00 0. -1.
         -1    1    3    3    0  502  0.64976354767E+02 -0.56297219142E+02  0.10474247849E+03  0.13550752880E+03  0.00000000000E+00 0.  1.
         13    1    5    5    0    0 -0.20064761202E+03 -0.86130132344E+02 -0.19857943654E+02  0.21925373847E+03  0.00000000000E+00 0.  1.
        -13    1    5    5    0    0 -0.20882711717E+03 -0.19902218669E+03 -0.50272458395E+02  0.29282403544E+03  0.00000000000E+00 0. -1.
          3    1    6    6  503    0  0.14021725140E+03  0.37689850820E+03 -0.20085390955E+03  0.44950601336E+03  0.00000000000E+00 0. -1.
         -3    1    6    6    0  503  0.14001940111E+02  0.68825443166E-01 -0.15348078874E+02  0.20775528608E+02  0.00000000000E+00 0.  1.
<mgrwt>
<rscale>  0 0.15409964E+04</rscale>
<asrwt>0</asrwt>
<pdfrwt beam="1">  1        2 0.13585122E+00 0.15409964E+04</pdfrwt>
<pdfrwt beam="2">  1       -1 0.10343154E+00 0.15409964E+04</pdfrwt>
<totfact> 0.29197727E+01</totfact>
</mgrwt>
</event>
<event>
12    7  0.1637954E-007  0.2283943E+04  0.7818608E-02  0.8484279E-01
          2   -1    0    0  501    0  0.00000000000E+00  0.00000000000E+00  0.28796791896E+04  0.28796791896E+04  0.00000000000E+00 0. -1.
         -1   -1    0    0    0  501 -0.00000000000E+00 -0.00000000000E+00 -0.45286269042E+03  0.45286269042E+03  0.00000000000E+00 0.  1.
         24    2    1    2    0    0  0.34289478065E+03  0.21915167788E+03  0.22988320481E+04  0.23359636539E+04  0.80579887735E+02 0.  0.
        254    2    1    2    0    0 -0.34289478065E+03 -0.21915167788E+03  0.12798445112E+03  0.99657822618E+03  0.90065745578E+03 0.  0.
         23    2    4    4    0    0 -0.43518331959E+03 -0.43186288238E+03  0.30455007182E+03  0.69098623976E+03  0.93921065092E+02 0.  0.
         23    2    4    4    0    0  0.92288538936E+02  0.21271120449E+03 -0.17656562070E+03  0.30559198643E+03  0.91911984086E+02 0.  0.
          2    1    3    3  502    0  0.26647910594E+03  0.13320320697E+03  0.17546849165E+04  0.17797958772E+04  0.00000000000E+00 0. -1.
         -1    1    3    3    0  502  0.76415674705E+02  0.85948470910E+02  0.54414713160E+03  0.55616777669E+03  0.00000000000E+00 0.  1.
         13    1    5    5    0    0  0.42924065908E+01 -0.76766600772E+01  0.80396748807E+00  0.88318870013E+01  0.00000000000E+00 0.  1.
        -13    1    5    5    0    0 -0.43947572618E+03 -0.42418622230E+03  0.30374610433E+03  0.68215435276E+03  0.00000000000E+00 0. -1.
          3    1    6    6  503    0  0.43697176072E+02  0.16908241751E+03 -0.16301332342E+03  0.23889673652E+03  0.00000000000E+00 0. -1.
         -3    1    6    6    0  503  0.48591362865E+02  0.43628786984E+02 -0.13552297284E+02  0.66695249909E+02  0.00000000000E+00 0.  1.
<mgrwt>
<rscale>  0 0.22839433E+04</rscale>
<asrwt>0</asrwt>
<pdfrwt beam="1">  1        2 0.44302756E+00 0.22839433E+04</pdfrwt>
<pdfrwt beam="2">  1       -1 0.69671185E-01 0.22839433E+04</pdfrwt>
<totfact> 0.44515870E+00</totfact>
</mgrwt>
</event>
<event>
12    7  0.1637954E-007  0.1768900E+04  0.7818608E-02  0.8723015E-01
         -1   -1    0    0    0  501 -0.00000000000E+00  0.00000000000E+00  0.22271190160E+03  0.22271190160E+03  0.00000000000E+00 0.  1.
          2   -1    0    0  501    0  0.00000000000E+00 -0.00000000000E+00 -0.35123929230E+04  0.35123929230E+04  0.00000000000E+00 0. -1.
         24    2    1    2    0    0 -0.46374105336E+03  0.30423588375E+03 -0.19425722998E+04  0.20218370252E+04  0.81379229974E+02 0.  0.
        254    2    1    2    0    0  0.46374105336E+03 -0.30423588375E+03 -0.13471087217E+04  0.17132677994E+04  0.90164816146E+03 0.  0.
         23    2    4    4    0    0  0.45600417070E+03  0.22467155829E+03 -0.74791612243E+03  0.90864434239E+03  0.88537573800E+02 0.  0.
         23    2    4    4    0    0  0.77368826649E+01 -0.52890744204E+03 -0.59919259923E+03  0.80462345704E+03  0.92650931163E+02 0.  0.
          2    1    3    3  502    0 -0.36387222791E+03  0.19601764607E+03 -0.14317420612E+04  0.14902051019E+04  0.00000000000E+00 0. -1.
         -1    1    3    3    0  502 -0.99868825455E+02  0.10821823768E+03 -0.51083023856E+03  0.53163192332E+03  0.00000000000E+00 0.  1.
         13    1    5    5    0    0  0.10410562005E+03  0.15873375898E+02 -0.12630842271E+03  0.16444987636E+03  0.00000000000E+00 0.  1.
        -13    1    5    5    0    0  0.35189855065E+03  0.20879818240E+03 -0.62160769973E+03  0.74419446604E+03  0.00000000000E+00 0. -1.
          1    1    6    6  503    0  0.23117269017E+02 -0.36404816503E+02 -0.63683385249E+02  0.76910937767E+02  0.00000000000E+00 0.  1.
         -1    1    6    6    0  503 -0.15380386352E+02 -0.49250262554E+03 -0.53550921398E+03  0.72771251927E+03  0.00000000000E+00 0. -1.
<mgrwt>
<rscale>  0 0.17688999E+04</rscale>
<asrwt>0</asrwt>
<pdfrwt beam="1">  1        2 0.54036818E+00 0.17688999E+04</pdfrwt>
<pdfrwt beam="2">  1       -1 0.34263367E-01 0.17688999E+04</pdfrwt>
<totfact> 0.69832109E+00</totfact>
</mgrwt>
</event>
<event>
12    7  0.1637954E-007  0.3641973E+04  0.7818608E-02  0.8080944E-01
          2   -1    0    0  501    0  0.00000000000E+00  0.00000000000E+00  0.24770895003E+04  0.24770895003E+04  0.00000000000E+00 0. -1.
         -1   -1    0    0    0  501 -0.00000000000E+00 -0.00000000000E+00 -0.13386648252E+04  0.13386648252E+04  0.00000000000E+00 0.  1.
         24    2    1    2    0    0 -0.90786229715E+03 -0.12705169181E+04  0.12538468647E+04  0.20042801925E+04  0.81116831409E+02 0.  0.
        254    2    1    2    0    0  0.90786229715E+03  0.12705169181E+04 -0.11542218961E+03  0.18114741330E+04  0.91087269304E+03 0.  0.
         23    2    4    4    0    0  0.48621030679E+03  0.19417607317E+03  0.26012397594E+03  0.59262759741E+03  0.97150278055E+02 0.  0.
         23    2    4    4    0    0  0.42165199036E+03  0.10763408449E+04 -0.37554616554E+03  0.12188465356E+04  0.90840186446E+02 0.  0.
          4    1    3    3  502    0 -0.78069102763E+03 -0.10622387677E+04  0.10269883039E+04  0.16710878662E+04  0.00000000000E+00 0. -1.
         -3    1    3    3    0  502 -0.12717126952E+03 -0.20827815038E+03  0.22685856074E+03  0.33319232629E+03  0.00000000000E+00 0.  1.
         13    1    5    5    0    0  0.39950387420E+02 -0.42144659102E+01  0.19622635942E+01  0.40219965892E+02  0.00000000000E+00 0. -1.
        -13    1    5    5    0    0  0.44625991937E+03  0.19839053908E+03  0.25816171234E+03  0.55240763151E+03  0.00000000000E+00 0.  1.
          4    1    6    6  503    0  0.10449163484E+03  0.21510416348E+03 -0.44876563557E+02  0.24331504034E+03  0.00000000000E+00 0. -1.
         -4    1    6    6    0  503  0.31716035552E+03  0.86123668140E+03 -0.33066960199E+03  0.97553149523E+03  0.00000000000E+00 0.  1.
<mgrwt>
<rscale>  0 0.36419734E+04</rscale>
<asrwt>0</asrwt>
<pdfrwt beam="1">  1        2 0.38109069E+00 0.36419734E+04</pdfrwt>
<pdfrwt beam="2">  1       -1 0.20594843E+00 0.36419734E+04</pdfrwt>
<totfact> 0.45384193E-01</totfact>
</mgrwt>
</event>
<event>
12    7  0.1637954E-007  0.1679223E+04  0.7818608E-02  0.8773304E-01
          2   -1    0    0  501    0  0.00000000000E+00  0.00000000000E+00  0.73831015787E+03  0.73831015787E+03  0.00000000000E+00 0. -1.
         -1   -1    0    0    0  501 -0.00000000000E+00 -0.00000000000E+00 -0.95481164206E+03  0.95481164206E+03  0.00000000000E+00 0.  1.
         24    2    1    2    0    0 -0.34294032524E+02  0.46479282315E+03 -0.44719550034E+03  0.65077372864E+03  0.79461822641E+02 0.  0.
        254    2    1    2    0    0  0.34294032524E+02 -0.46479282315E+03  0.23069401615E+03  0.10423480713E+04  0.90336112574E+03 0.  0.
         23    2    4    4    0    0  0.29285464425E+03  0.15043155232E+03  0.47208579309E+02  0.34440366950E+03  0.89396549246E+02 0.  0.
         23    2    4    4    0    0 -0.25856061172E+03 -0.61522437547E+03  0.18348543684E+03  0.69794440177E+03  0.90026997760E+02 0.  0.
          2    1    3    3  502    0 -0.46903710925E+01  0.78525011857E+02 -0.12104807995E+03  0.14436348129E+03  0.00000000000E+00 0. -1.
         -1    1    3    3    0  502 -0.29603661431E+02  0.38626781129E+03 -0.32614742038E+03  0.50641024736E+03  0.00000000000E+00 0.  1.
         13    1    5    5    0    0  0.72660586680E+02 -0.19650255454E+01  0.12295069651E+01  0.72697550643E+02  0.00000000000E+00 0. -1.
        -13    1    5    5    0    0  0.22019405757E+03  0.15239657787E+03  0.45979072344E+02  0.27170611886E+03  0.00000000000E+00 0.  1.
          2    1    6    6  503    0 -0.13748230283E+03 -0.22986782714E+03  0.96935414463E+02  0.28484570582E+03  0.00000000000E+00 0. -1.
         -2    1    6    6    0  503 -0.12107830889E+03 -0.38535654833E+03  0.86550022374E+02  0.41309869595E+03  0.00000000000E+00 0.  1.
<mgrwt>
<rscale>  0 0.16792226E+04</rscale>
<asrwt>0</asrwt>
<pdfrwt beam="1">  1        2 0.11358618E+00 0.16792226E+04</pdfrwt>
<pdfrwt beam="2">  1       -1 0.14689410E+00 0.16792226E+04</pdfrwt>
<totfact> 0.15373590E+01</totfact>
</mgrwt>
</event>
<event>
12    7  0.1637954E-007  0.3936566E+04  0.7818608E-02  0.8017467E-01
         -1   -1    0    0    0  501 -0.00000000000E+00  0.00000000000E+00  0.13661537569E+04  0.13661537569E+04  0.00000000000E+00 0.  1.
          2   -1    0    0  501    0  0.00000000000E+00 -0.00000000000E+00 -0.28357989073E+04  0.28357989073E+04  0.00000000000E+00 0. -1.
         24    2    1    2    0    0  0.62150275897E+03  0.15958302016E+04 -0.15289532678E+04  0.22971524657E+04  0.79193711734E+02 0.  0.
        254    2    1    2    0    0 -0.62150275897E+03 -0.15958302016E+04  0.59308117443E+02  0.19048001985E+04  0.83174913996E+03 0.  0.
         23    2    4    4    0    0 -0.10812117865E+03 -0.25218366855E+03 -0.30229193607E+03  0.41875491479E+03  0.93211973981E+02 0.  0.
         23    2    4    4    0    0 -0.51338158031E+03 -0.13436465330E+04  0.36160005352E+03  0.14860452837E+04  0.92894207914E+02 0.  0.
          2    1    3    3  502    0  0.54335885387E+03  0.13707523955E+04 -0.12804303156E+04  0.19528703917E+04  0.00000000000E+00 0. -1.
         -1    1    3    3    0  502  0.78143905103E+02  0.22507780610E+03 -0.24852295217E+03  0.34428207397E+03  0.00000000000E+00 0.  1.
         13    1    5    5    0    0 -0.37603731061E+01 -0.12447102024E+03 -0.13995412764E+03  0.18733481558E+03  0.00000000000E+00 0. -1.
        -13    1    5    5    0    0 -0.10436080555E+03 -0.12771264830E+03 -0.16233780843E+03  0.23142009921E+03  0.00000000000E+00 0.  1.
          4    1    6    6  503    0 -0.19847159316E+03 -0.42775515455E+03  0.88831576562E+02  0.47985049185E+03  0.00000000000E+00 0. -1.
         -4    1    6    6    0  503 -0.31490998715E+03 -0.91589137847E+03  0.27276847695E+03  0.10061947919E+04  0.00000000000E+00 0.  1.
<mgrwt>
<rscale>  0 0.39365657E+04</rscale>
<asrwt>0</asrwt>
<pdfrwt beam="1">  1        2 0.43627676E+00 0.39365657E+04</pdfrwt>
<pdfrwt beam="2">  1       -1 0.21017750E+00 0.39365657E+04</pdfrwt>
<totfact> 0.25389223E-01</totfact>
</mgrwt>
</event>
<event>
12    7  0.1637954E-007  0.1895286E+04  0.7818608E-02  0.8657207E-01
         -1   -1    0    0    0  501 -0.00000000000E+00  0.00000000000E+00  0.65305719369E+03  0.65305719369E+03  0.00000000000E+00 0.  1.
          2   -1    0    0  501    0  0.00000000000E+00 -0.00000000000E+00 -0.13751122869E+04  0.13751122869E+04  0.00000000000E+00 0. -1.
         24    2    1    2    0    0  0.45859562421E+02  0.55560345315E+02  0.49524090520E+03  0.50681305718E+03  0.80036674769E+02 0.  0.
        254    2    1    2    0    0 -0.45859562421E+02 -0.55560345315E+02 -0.12172959984E+04  0.15213564234E+04  0.90968443311E+03 0.  0.
         23    2    4    4    0    0 -0.27998081062E+02  0.82268513386E+01 -0.13467241235E+04  0.13501201281E+04  0.91142316694E+02 0.  0.
         23    2    4    4    0    0 -0.17861481359E+02 -0.63787196654E+02  0.12942812511E+03  0.17123629528E+03  0.90456565701E+02 0.  0.
          4    1    3    3  502    0  0.34076193733E+02  0.73819739309E+02  0.31734999777E+03  0.32759969776E+03  0.00000000000E+00 0. -1.
         -3    1    3    3    0  502  0.11783368688E+02 -0.18259393994E+02  0.17789090743E+03  0.17921335942E+03  0.00000000000E+00 0.  1.
         13    1    5    5    0    0 -0.17368695647E+02  0.48033815247E+02 -0.91828587265E+03  0.91970531308E+03  0.00000000000E+00 0.  1.
        -13    1    5    5    0    0 -0.10629385415E+02 -0.39806963908E+02 -0.42843825083E+03  0.43041481502E+03  0.00000000000E+00 0. -1.
          1    1    6    6  503    0 -0.41718543357E+02 -0.72531353703E+01  0.22496029554E+02  0.47949099869E+02  0.00000000000E+00 0. -1.
         -1    1    6    6    0  503  0.23857061998E+02 -0.56534061284E+02  0.10693209555E+03  0.12328719541E+03  0.00000000000E+00 0.  1.
<mgrwt>
<rscale>  0 0.18952857E+04</rscale>
<asrwt>0</asrwt>
<pdfrwt beam="1">  1        2 0.21155573E+00 0.18952857E+04</pdfrwt>
<pdfrwt beam="2">  1       -1 0.10047034E+00 0.18952857E+04</pdfrwt>
<totfact> 0.15058316E+01</totfact>
</mgrwt>
</event>
<event>
12    7  0.1637954E-007  0.1446016E+04  0.7818608E-02  0.8921167E-01
         -1   -1    0    0    0  501 -0.00000000000E+00  0.00000000000E+00  0.51880011178E+03  0.51880011178E+03  0.00000000000E+00 0.  1.
          2   -1    0    0  501    0  0.00000000000E+00 -0.00000000000E+00 -0.10075949834E+04  0.10075949834E+04  0.00000000000E+00 0. -1.
         24    2    1    2    0    0  0.18020935194E+02 -0.22697511890E+03 -0.51245672798E+03  0.56652943938E+03  0.80630322620E+02 0.  0.
        254    2    1    2    0    0 -0.18020935194E+02  0.22697511890E+03  0.23661856322E+02  0.95986565585E+03  0.93216937041E+03 0.  0.
         23    2    4    4    0    0 -0.30177752982E+03  0.34046652647E+03  0.28794194392E+03  0.54641715849E+03  0.93134391457E+02 0.  0.
         23    2    4    4    0    0  0.28375659463E+03 -0.11349140757E+03 -0.26428008760E+03  0.41344849736E+03  0.87735914416E+02 0.  0.
          4    1    3    3  502    0  0.43853481476E+02 -0.18818728469E+03 -0.43742188204E+03  0.47820025601E+03  0.00000000000E+00 0. -1.
         -3    1    3    3    0  502 -0.25832546281E+02 -0.38787834215E+02 -0.75034845943E+02  0.88329183378E+02  0.00000000000E+00 0.  1.
         13    1    5    5    0    0 -0.25675289010E+03  0.24377920595E+03  0.19097626808E+03  0.40227140440E+03  0.00000000000E+00 0. -1.
        -13    1    5    5    0    0 -0.45024639726E+02  0.96687320524E+02  0.96965675838E+02  0.14414575409E+03  0.00000000000E+00 0.  1.
          4    1    6    6  503    0  0.13557187711E+03 -0.17255772413E+02 -0.15049671208E+03  0.20328983224E+03  0.00000000000E+00 0.  1.
         -4    1    6    6    0  503  0.14818471751E+03 -0.96235635152E+02 -0.11378337551E+03  0.21015866511E+03  0.00000000000E+00 0. -1.
<mgrwt>
<rscale>  0 0.14460158E+04</rscale>
<asrwt>0</asrwt>
<pdfrwt beam="1">  1        2 0.15501461E+00 0.14460158E+04</pdfrwt>
<pdfrwt beam="2">  1       -1 0.79815402E-01 0.14460158E+04</pdfrwt>
<totfact> 0.43221194E+01</totfact>
</mgrwt>
</event>
<event>
12    7  0.1637954E-007  0.2034006E+04  0.7818608E-02  0.8590885E-01
          2   -1    0    0  501    0  0.00000000000E+00  0.00000000000E+00  0.20675662142E+04  0.20675662142E+04  0.00000000000E+00 0. -1.
         -1   -1    0    0    0  501 -0.00000000000E+00 -0.00000000000E+00 -0.50024739864E+03  0.50024739864E+03  0.00000000000E+00 0.  1.
         24    2    1    2    0    0  0.38650137917E+02  0.58761509439E+03 -0.79897701962E+02  0.59951716195E+03  0.79068656093E+02 0.  0.
        254    2    1    2    0    0 -0.38650137917E+02 -0.58761509439E+03  0.16472165175E+04  0.19682964509E+04  0.90226566523E+03 0.  0.
         23    2    4    4    0    0  0.85428050562E+02 -0.41908427552E+03  0.16278804636E+03  0.46641025297E+03  0.90049954091E+02 0.  0.
         23    2    4    4    0    0 -0.12407818848E+03 -0.16853081887E+03  0.14844284712E+04  0.15018861979E+04  0.91302966586E+02 0.  0.
          2    1    3    3  502    0  0.20565245479E+01 -0.66458185807E+00 -0.48908244171E+01  0.53470670223E+01  0.00000000000E+00 0. -1.
         -1    1    3    3    0  502  0.36593613369E+02  0.58827967625E+03 -0.75006877545E+02  0.59417009493E+03  0.00000000000E+00 0.  1.
         13    1    5    5    0    0  0.59354491455E+02 -0.39379874432E+03  0.13440715043E+03  0.42031617715E+03  0.00000000000E+00 0. -1.
        -13    1    5    5    0    0  0.26073559107E+02 -0.25285531193E+02  0.28380895928E+02  0.46094075822E+02  0.00000000000E+00 0.  1.
          3    1    6    6  503    0 -0.10573646991E+03 -0.11945503611E+03  0.13123000023E+04  0.13219610443E+04  0.00000000000E+00 0. -1.
         -3    1    6    6    0  503 -0.18341718565E+02 -0.49075782763E+02  0.17212846889E+03  0.17992515360E+03  0.00000000000E+00 0.  1.
<mgrwt>
<rscale>  0 0.20340055E+04</rscale>
<asrwt>0</asrwt>
<pdfrwt beam="1">  1        2 0.31808710E+00 0.20340055E+04</pdfrwt>
<pdfrwt beam="2">  1       -1 0.76961140E-01 0.20340055E+04</pdfrwt>
<totfact> 0.10942457E+01</totfact>
</mgrwt>
</event>
<event>
12    7  0.1637954E-007  0.1634615E+04  0.7818608E-02  0.8799560E-01
         -1   -1    0    0    0  501 -0.00000000000E+00  0.00000000000E+00  0.98680986251E+03  0.98680986251E+03  0.00000000000E+00 0.  1.
          2   -1    0    0  501    0  0.00000000000E+00 -0.00000000000E+00 -0.67692050772E+03  0.67692050772E+03  0.00000000000E+00 0. -1.
         24    2    1    2    0    0 -0.45393072607E+03 -0.14740093809E+03  0.41993925492E+03  0.64066672971E+03  0.79528234724E+02 0.  0.
        254    2    1    2    0    0  0.45393072607E+03  0.14740093809E+03 -0.11004990013E+03  0.10230636405E+04  0.89820270063E+03 0.  0.
         23    2    4    4    0    0  0.71128969394E+03  0.18685267949E+03 -0.89641799648E+02  0.74667501536E+03  0.92956838241E+02 0.  0.
         23    2    4    4    0    0 -0.25735896787E+03 -0.39451741407E+02 -0.20408100482E+02  0.27638862517E+03  0.90466034027E+02 0.  0.
          4    1    3    3  502    0 -0.48365463810E+02  0.28614766309E+01  0.65551445445E+02  0.81513177695E+02  0.00000000000E+00 0. -1.
         -3    1    3    3    0  502 -0.40556526226E+03 -0.15026241472E+03  0.35438780947E+03  0.55915355201E+03  0.00000000000E+00 0.  1.
         13    1    5    5    0    0  0.62965129825E+02 -0.70453329589E+01  0.42164354702E+01  0.63498209569E+02  0.00000000000E+00 0.  1.
        -13    1    5    5    0    0  0.64832456411E+03  0.19389801245E+03 -0.93858235119E+02  0.68317680579E+03  0.00000000000E+00 0. -1.
          3    1    6    6  503    0 -0.17807655024E+03 -0.51771436028E+02 -0.47968979146E+02  0.19155302737E+03  0.00000000000E+00 0. -1.
         -3    1    6    6    0  503 -0.79282417628E+02  0.12319694621E+02  0.27560878665E+02  0.84835597796E+02  0.00000000000E+00 0.  1.
<mgrwt>
<rscale>  0 0.16346153E+04</rscale>
<asrwt>0</asrwt>
<pdfrwt beam="1">  1        2 0.10414162E+00 0.16346153E+04</pdfrwt>
<pdfrwt beam="2">  1       -1 0.15181690E+00 0.16346153E+04</pdfrwt>
<totfact> 0.15768741E+01</totfact>
</mgrwt>
</event>
<event>
12    7  0.1637954E-007  0.2000017E+04  0.7818608E-02  0.8606613E-01
         -1   -1    0    0    0  501 -0.00000000000E+00  0.00000000000E+00  0.34575169723E+03  0.34575169723E+03  0.00000000000E+00 0.  1.
          2   -1    0    0  501    0  0.00000000000E+00 -0.00000000000E+00 -0.28922990488E+04  0.28922990488E+04  0.00000000000E+00 0. -1.
         24    2    1    2    0    0  0.17734287276E+03  0.77030805802E+03 -0.87511897541E+03  0.11820528228E+04  0.81182855375E+02 0.  0.
        254    2    1    2    0    0 -0.17734287276E+03 -0.77030805802E+03 -0.16714283762E+04  0.20559979233E+04  0.89923836937E+03 0.  0.
         23    2    4    4    0    0 -0.24234157086E+03  0.12409813513E+03 -0.30566633054E+03  0.41954833750E+03  0.91973462301E+02 0.  0.
         23    2    4    4    0    0  0.64998698100E+02 -0.89440619316E+03 -0.13657620456E+04  0.16364495857E+04  0.92054398447E+02 0.  0.
          4    1    3    3  502    0  0.59793025351E+02  0.13072206129E+03 -0.17607287854E+03  0.22729962989E+03  0.00000000000E+00 0. -1.
         -3    1    3    3    0  502  0.11754984741E+03  0.63958599673E+03 -0.69904609687E+03  0.95475319292E+03  0.00000000000E+00 0.  1.
         13    1    5    5    0    0 -0.13238824658E+02  0.92513926318E+01 -0.68470812262E+02  0.70349888953E+02  0.00000000000E+00 0. -1.
        -13    1    5    5    0    0 -0.22910274620E+03  0.11484674250E+03 -0.23719551828E+03  0.34919844855E+03  0.00000000000E+00 0.  1.
          3    1    6    6  503    0 -0.17117825126E+02 -0.47040804740E+02 -0.70848852487E+02  0.86749162223E+02  0.00000000000E+00 0. -1.
         -3    1    6    6    0  503  0.82116523226E+02 -0.84736538842E+03 -0.12949131932E+04  0.15497004235E+04  0.00000000000E+00 0.  1.
<mgrwt>
<rscale>  0 0.20000173E+04</rscale>
<asrwt>0</asrwt>
<pdfrwt beam="1">  1        2 0.44496908E+00 0.20000173E+04</pdfrwt>
<pdfrwt beam="2">  1       -1 0.53192569E-01 0.20000173E+04</pdfrwt>
<totfact> 0.76705056E+00</totfact>
</mgrwt>
</event>
<event>
12    7  0.1637954E-007  0.1597898E+04  0.7818608E-02  0.8821840E-01
         -1   -1    0    0    0  501 -0.00000000000E+00  0.00000000000E+00  0.39913280248E+03  0.39913280248E+03  0.00000000000E+00 0.  1.
          2   -1    0    0  501    0  0.00000000000E+00 -0.00000000000E+00 -0.15992663621E+04  0.15992663621E+04  0.00000000000E+00 0. -1.
         24    2    1    2    0    0 -0.23272814179E+03 -0.11353645882E+03  0.18383025724E+03  0.32805905447E+03  0.82318067759E+02 0.  0.
        254    2    1    2    0    0  0.23272814179E+03  0.11353645882E+03 -0.13839638169E+04  0.16703401101E+04  0.89868087862E+03 0.  0.
         23    2    4    4    0    0  0.43370764953E+03  0.38113893817E+03 -0.93675995772E+03  0.11044540342E+04  0.94500158040E+02 0.  0.
         23    2    4    4    0    0 -0.20097950774E+03 -0.26760247935E+03 -0.44720385918E+03  0.56588607593E+03  0.90729872561E+02 0.  0.
          4    1    3    3  502    0 -0.12589049004E+03 -0.19407573547E+02  0.67292703279E+02  0.14406032524E+03  0.00000000000E+00 0. -1.
         -3    1    3    3    0  502 -0.10683765175E+03 -0.94128885273E+02  0.11653755397E+03  0.18399872923E+03  0.00000000000E+00 0.  1.
         13    1    5    5    0    0  0.27251832210E+03  0.19949554701E+03 -0.47646454825E+03  0.58402326571E+03  0.00000000000E+00 0. -1.
        -13    1    5    5    0    0  0.16118932743E+03  0.18164339115E+03 -0.46029540947E+03  0.52043076850E+03  0.00000000000E+00 0.  1.
          1    1    6    6  503    0 -0.20496681231E+02 -0.48523884837E+02 -0.28085875914E+02  0.59695039719E+02  0.00000000000E+00 0. -1.
         -1    1    6    6    0  503 -0.18048282650E+03 -0.21907859451E+03 -0.41911798327E+03  0.50619103621E+03  0.00000000000E+00 0.  1.
<mgrwt>
<rscale>  0 0.15978982E+04</rscale>
<asrwt>0</asrwt>
<pdfrwt beam="1">  1        2 0.24604098E+00 0.15978982E+04</pdfrwt>
<pdfrwt beam="2">  1       -1 0.61405045E-01 0.15978982E+04</pdfrwt>
<totfact> 0.32808242E+01</totfact>
</mgrwt>
</event>
<event>
12    7  0.1637954E-007  0.1365241E+04  0.7818608E-02  0.8979371E-01
         -1   -1    0    0    0  501 -0.00000000000E+00  0.00000000000E+00  0.26025743556E+03  0.26025743556E+03  0.00000000000E+00 0.  1.
          2   -1    0    0  501    0  0.00000000000E+00 -0.00000000000E+00 -0.17904213679E+04  0.17904213679E+04  0.00000000000E+00 0. -1.
         24    2    1    2    0    0 -0.14129927967E+03  0.97618132532E+01  0.94580727472E+02  0.18835409598E+03  0.80442352206E+02 0.  0.
        254    2    1    2    0    0  0.14129927967E+03 -0.97618132532E+01 -0.16247446598E+04  0.18623247074E+04  0.89910918528E+03 0.  0.
         23    2    4    4    0    0  0.48831877276E+03  0.13889270630E+03 -0.82374643527E+03  0.97180242985E+03  0.89974248298E+02 0.  0.
         23    2    4    4    0    0 -0.34701949309E+03 -0.14865451956E+03 -0.80099822450E+03  0.89052227759E+03  0.94398498185E+02 0.  0.
          2    1    3    3  502    0 -0.64109355943E+02  0.41882396489E+02  0.62349241442E+02  0.98750050954E+02  0.00000000000E+00 0. -1.
         -1    1    3    3    0  502 -0.77189923730E+02 -0.32120583236E+02  0.32231486031E+02  0.89604045023E+02  0.00000000000E+00 0.  1.
         13    1    5    5    0    0  0.27838601219E+03  0.76397026541E+02 -0.55051673668E+03  0.62161399181E+03  0.00000000000E+00 0.  1.
        -13    1    5    5    0    0  0.20993276056E+03  0.62495679761E+02 -0.27322969858E+03  0.35018843804E+03  0.00000000000E+00 0. -1.
          1    1    6    6  503    0 -0.89772336639E+02  0.39870736936E+01 -0.19587315449E+03  0.21550234762E+03  0.00000000000E+00 0. -1.
         -1    1    6    6    0  503 -0.25724715645E+03 -0.15264159325E+03 -0.60512507001E+03  0.67501992996E+03  0.00000000000E+00 0.  1.
<mgrwt>
<rscale>  0 0.13652406E+04</rscale>
<asrwt>0</asrwt>
<pdfrwt beam="1">  1        2 0.27544944E+00 0.13652406E+04</pdfrwt>
<pdfrwt beam="2">  1       -1 0.40039606E-01 0.13652406E+04</pdfrwt>
<totfact> 0.59038294E+01</totfact>
</mgrwt>
</event>
<event>
12    7  0.1637954E-007  0.2014964E+04  0.7818608E-02  0.8599656E-01
         -1   -1    0    0    0  501 -0.00000000000E+00  0.00000000000E+00  0.14687693523E+04  0.14687693523E+04  0.00000000000E+00 0.  1.
          2   -1    0    0  501    0  0.00000000000E+00 -0.00000000000E+00 -0.69106825261E+03  0.69106825261E+03  0.00000000000E+00 0. -1.
         24    2    1    2    0    0  0.43861658872E+03 -0.12234742805E+03 -0.40239132317E+03  0.61346162448E+03  0.84041553377E+02 0.  0.
        254    2    1    2    0    0 -0.43861658872E+03  0.12234742805E+03  0.11800924229E+04  0.15463759804E+04  0.88955446225E+03 0.  0.
         23    2    4    4    0    0  0.15938437781E+03 -0.11071845816E+03  0.72073475170E+03  0.75187229581E+03  0.90506408798E+02 0.  0.
         23    2    4    4    0    0 -0.59800096653E+03  0.23306588621E+03  0.45935767117E+03  0.79450368462E+03  0.91114057839E+02 0.  0.
          2    1    3    3  502    0  0.35709221533E+03 -0.64083168944E+02 -0.31157208268E+03  0.47822449278E+03  0.00000000000E+00 0. -1.
         -1    1    3    3    0  502  0.81524373387E+02 -0.58264259110E+02 -0.90819240488E+02  0.13523713169E+03  0.00000000000E+00 0.  1.
         13    1    5    5    0    0  0.25641751360E+02  0.13658259978E+02  0.65385566823E+02  0.71549422271E+02  0.00000000000E+00 0.  1.
        -13    1    5    5    0    0  0.13374262645E+03 -0.12437671814E+03  0.65534918487E+03  0.68032287354E+03  0.00000000000E+00 0. -1.
          4    1    6    6  503    0 -0.66923802053E+02  0.82223874545E+01  0.22749904114E+02  0.71161513994E+02  0.00000000000E+00 0.  1.
         -4    1    6    6    0  503 -0.53107716448E+03  0.22484349876E+03  0.43660776705E+03  0.72334217063E+03  0.00000000000E+00 0. -1.
<mgrwt>
<rscale>  0 0.20149639E+04</rscale>
<asrwt>0</asrwt>
<pdfrwt beam="1">  1        2 0.10631819E+00 0.20149639E+04</pdfrwt>
<pdfrwt beam="2">  1       -1 0.22596452E+00 0.20149639E+04</pdfrwt>
<totfact> 0.44287841E+00</totfact>
</mgrwt>
</event>
<event>
12    7  0.1637954E-007  0.1121689E+04  0.7818608E-02  0.9184307E-01
         -1   -1    0    0    0  501 -0.00000000000E+00  0.00000000000E+00  0.10690472839E+04  0.10690472839E+04  0.00000000000E+00 0.  1.
          2   -1    0    0  501    0  0.00000000000E+00 -0.00000000000E+00 -0.29423060266E+03  0.29423060266E+03  0.00000000000E+00 0. -1.
         24    2    1    2    0    0 -0.38032848262E+02 -0.10560716416E+03 -0.37967598876E+02  0.14294145223E+03  0.79945916294E+02 0.  0.
        254    2    1    2    0    0  0.38032848262E+02  0.10560716416E+03  0.81278428015E+03  0.12203364344E+04  0.90332904099E+03 0.  0.
         23    2    4    4    0    0  0.27785543063E+03  0.38426481100E+03  0.64616202725E+03  0.80675902674E+03  0.92041710474E+02 0.  0.
         23    2    4    4    0    0 -0.23982258237E+03 -0.27865764684E+03  0.16662225290E+03  0.41357740762E+03  0.90101841114E+02 0.  0.
          2    1    3    3  502    0  0.62177376700E+01 -0.37249165529E+02 -0.47801638540E+02  0.60919268228E+02  0.00000000000E+00 0. -1.
         -1    1    3    3    0  502 -0.44250585932E+02 -0.68357998632E+02  0.98340396636E+01  0.82022184002E+02  0.00000000000E+00 0.  1.
         13    1    5    5    0    0  0.24143196839E+03  0.28255235686E+03  0.53795745584E+03  0.65385277702E+03  0.00000000000E+00 0.  1.
        -13    1    5    5    0    0  0.36423462237E+02  0.10171245414E+03  0.10820457141E+03  0.15290624972E+03  0.00000000000E+00 0. -1.
          2    1    6    6  503    0 -0.23784378526E+02 -0.66263174487E+02  0.59691794829E+02  0.92301762306E+02  0.00000000000E+00 0. -1.
         -2    1    6    6    0  503 -0.21603820384E+03 -0.21239447235E+03  0.10693045807E+03  0.32127564531E+03  0.00000000000E+00 0.  1.
<mgrwt>
<rscale>  0 0.11216888E+04</rscale>
<asrwt>0</asrwt>
<pdfrwt beam="1">  1        2 0.45266247E-01 0.11216888E+04</pdfrwt>
<pdfrwt beam="2">  1       -1 0.16446881E+00 0.11216888E+04</pdfrwt>
<totfact> 0.34484963E+01</totfact>
</mgrwt>
</event>
<event>
12    7  0.1637954E-007  0.1509201E+04  0.7818608E-02  0.8878357E-01
          2   -1    0    0  501    0  0.00000000000E+00  0.00000000000E+00  0.86610226303E+03  0.86610226303E+03  0.00000000000E+00 0. -1.
         -1   -1    0    0    0  501 -0.00000000000E+00 -0.00000000000E+00 -0.65745322823E+03  0.65745322823E+03  0.00000000000E+00 0.  1.
         24    2    1    2    0    0 -0.46120792786E+02  0.20259320928E+03 -0.37940508417E+03  0.43977468270E+03  0.79261703728E+02 0.  0.
        254    2    1    2    0    0  0.46120792786E+02 -0.20259320928E+03  0.58805411897E+03  0.10837808086E+04  0.88634195331E+03 0.  0.
         23    2    4    4    0    0  0.20627047467E+03 -0.36130709672E+03  0.69643618366E+03  0.81663062096E+03  0.93658348885E+02 0.  0.
         23    2    4    4    0    0 -0.16014968188E+03  0.15871388745E+03 -0.10838206469E+03  0.26715018760E+03  0.93725834813E+02 0.  0.
          2    1    3    3  502    0 -0.22928281048E+02  0.14525342679E+03 -0.18834479817E+03  0.23895193463E+03  0.00000000000E+00 0. -1.
         -1    1    3    3    0  502 -0.23192511738E+02  0.57339782487E+02 -0.19106028599E+03  0.20082274807E+03  0.00000000000E+00 0.  1.
         13    1    5    5    0    0  0.14478120402E+03 -0.24134690604E+03  0.38169744506E+03  0.47423924938E+03  0.00000000000E+00 0.  1.
        -13    1    5    5    0    0  0.61489270653E+02 -0.11996019069E+03  0.31473873860E+03  0.34239137157E+03  0.00000000000E+00 0. -1.
          3    1    6    6  503    0 -0.10973013334E+03  0.45023055160E+02 -0.39694289596E+02  0.12507363546E+03  0.00000000000E+00 0. -1.
         -3    1    6    6    0  503 -0.50419548540E+02  0.11369083229E+03 -0.68687775096E+02  0.14207655214E+03  0.00000000000E+00 0.  1.
<mgrwt>
<rscale>  0 0.15092008E+04</rscale>
<asrwt>0</asrwt>
<pdfrwt beam="1">  1        2 0.13324650E+00 0.15092008E+04</pdfrwt>
<pdfrwt beam="2">  1       -1 0.10114665E+00 0.15092008E+04</pdfrwt>
<totfact> 0.31660109E+01</totfact>
</mgrwt>
</event>
<event>
12    7  0.1637954E-007  0.1755905E+04  0.7818608E-02  0.8730106E-01
          2   -1    0    0  501    0  0.00000000000E+00  0.00000000000E+00  0.18702550861E+04  0.18702550861E+04  0.00000000000E+00 0. -1.
         -1   -1    0    0    0  501 -0.00000000000E+00 -0.00000000000E+00 -0.41213673821E+03  0.41213673821E+03  0.00000000000E+00 0.  1.
         24    2    1    2    0    0 -0.34137596492E+03 -0.31461228470E+03 -0.44340211418E+02  0.47313102032E+03  0.79802687476E+02 0.  0.
        254    2    1    2    0    0  0.34137596492E+03  0.31461228470E+03  0.15024585593E+04  0.18092608039E+04  0.89472034474E+03 0.  0.
         23    2    4    4    0    0 -0.19314078486E+03 -0.17092579430E+03  0.32220370215E+03  0.42258867718E+03  0.90812854090E+02 0.  0.
         23    2    4    4    0    0  0.53451674978E+03  0.48553807900E+03  0.11802548571E+04  0.13866721268E+04  0.91666119428E+02 0.  0.
          4    1    3    3  502    0 -0.11160406277E+03 -0.13063599859E+03  0.16333361115E+02  0.17259203238E+03  0.00000000000E+00 0. -1.
         -3    1    3    3    0  502 -0.22977190215E+03 -0.18397628611E+03 -0.60673572533E+02  0.30053898794E+03  0.00000000000E+00 0.  1.
         13    1    5    5    0    0  0.23059020134E+01  0.75427229259E+01  0.44878230011E+01  0.90747125861E+01  0.00000000000E+00 0. -1.
        -13    1    5    5    0    0 -0.19544668688E+03 -0.17846851723E+03  0.31771587914E+03  0.41351396459E+03  0.00000000000E+00 0.  1.
          4    1    6    6  503    0  0.25804214095E+02  0.35008527888E+01  0.57850784387E+02  0.63441521809E+02  0.00000000000E+00 0. -1.
         -4    1    6    6    0  503  0.50871253569E+03  0.48203722621E+03  0.11224040727E+04  0.13232306050E+04  0.00000000000E+00 0.  1.
<mgrwt>
<rscale>  0 0.17559053E+04</rscale>
<asrwt>0</asrwt>
<pdfrwt beam="1">  1        2 0.28773155E+00 0.17559053E+04</pdfrwt>
<pdfrwt beam="2">  1       -1 0.63405653E-01 0.17559053E+04</pdfrwt>
<totfact> 0.21470886E+01</totfact>
</mgrwt>
</event>
<event>
12    7  0.1637954E-007  0.1972378E+04  0.7818608E-02  0.8619645E-01
          2   -1    0    0  501    0  0.00000000000E+00  0.00000000000E+00  0.22715600007E+04  0.22715600007E+04  0.00000000000E+00 0. -1.
         -1   -1    0    0    0  501 -0.00000000000E+00 -0.00000000000E+00 -0.42815006916E+03  0.42815006916E+03  0.00000000000E+00 0.  1.
         24    2    1    2    0    0 -0.22069161860E+03 -0.56769718283E+03  0.13880137439E+04  0.15178053912E+04  0.78524966599E+02 0.  0.
        254    2    1    2    0    0  0.22069161860E+03  0.56769718283E+03  0.45539618763E+03  0.11819046786E+04  0.90472542785E+03 0.  0.
         23    2    4    4    0    0 -0.15563102878E+03  0.40645529257E+02  0.49324306234E+03  0.52675749619E+03  0.91168333762E+02 0.  0.
         23    2    4    4    0    0  0.37632264738E+03  0.52705165357E+03 -0.37846874710E+02  0.65514718246E+03  0.91560167613E+02 0.  0.
          2    1    3    3  502    0 -0.12457618686E+03 -0.29147101731E+03  0.62806914795E+03  0.70352358516E+03  0.00000000000E+00 0. -1.
         -1    1    3    3    0  502 -0.96115431745E+02 -0.27622616551E+03  0.75994459595E+03  0.81428180604E+03  0.00000000000E+00 0.  1.
         13    1    5    5    0    0  0.52817958479E+01  0.15538613485E+02  0.17879069599E+02  0.24269466540E+02  0.00000000000E+00 0.  1.
        -13    1    5    5    0    0 -0.16091282462E+03  0.25106915772E+02  0.47536399274E+03  0.50248802965E+03  0.00000000000E+00 0. -1.
          2    1    6    6  503    0  0.34218404259E+03  0.42386831960E+03 -0.20922705804E+02  0.54515321790E+03  0.00000000000E+00 0. -1.
         -2    1    6    6    0  503  0.34138604784E+02  0.10318333397E+03 -0.16924168906E+02  0.10999396456E+03  0.00000000000E+00 0.  1.
<mgrwt>
<rscale>  0 0.19723778E+04</rscale>
<asrwt>0</asrwt>
<pdfrwt beam="1">  1        2 0.34947076E+00 0.19723778E+04</pdfrwt>
<pdfrwt beam="2">  1       -1 0.65869243E-01 0.19723778E+04</pdfrwt>
<totfact> 0.11653299E+01</totfact>
</mgrwt>
</event>
<event>
12    7  0.1637954E-007  0.1172896E+04  0.7818608E-02  0.9136917E-01
          2   -1    0    0  501    0  0.00000000000E+00  0.00000000000E+00  0.19438269236E+03  0.19438269236E+03  0.00000000000E+00 0. -1.
         -1   -1    0    0    0  501 -0.00000000000E+00 -0.00000000000E+00 -0.17693001421E+04  0.17693001421E+04  0.00000000000E+00 0.  1.
         24    2    1    2    0    0  0.42091179232E+02 -0.11488107469E+03  0.49288016653E+01  0.14580713639E+03  0.79158696599E+02 0.  0.
        254    2    1    2    0    0 -0.42091179232E+02  0.11488107469E+03 -0.15798462515E+04  0.18178756981E+04  0.89094811683E+03 0.  0.
         23    2    4    4    0    0 -0.43959498257E+03  0.18246011022E+03 -0.80117731665E+03  0.93634182681E+03  0.91189272283E+02 0.  0.
         23    2    4    4    0    0  0.39750380334E+03 -0.67579035533E+02 -0.77866893480E+03  0.88153387131E+03  0.90556372167E+02 0.  0.
          2    1    3    3  502    0  0.49640021180E+02 -0.54996568769E+02  0.30676937593E+02  0.80186213149E+02  0.00000000000E+00 0. -1.
         -1    1    3    3    0  502 -0.75488419480E+01 -0.59884505918E+02 -0.25748135928E+02  0.65620923245E+02  0.00000000000E+00 0.  1.
         13    1    5    5    0    0 -0.16922345466E+03  0.11239919156E+03 -0.38154900316E+03  0.43226126091E+03  0.00000000000E+00 0. -1.
        -13    1    5    5    0    0 -0.27037152791E+03  0.70060918662E+02 -0.41962831350E+03  0.50408056590E+03  0.00000000000E+00 0.  1.
          2    1    6    6  503    0  0.31596989176E+03 -0.78176679863E+02 -0.67357794517E+03  0.74810147306E+03  0.00000000000E+00 0. -1.
         -2    1    6    6    0  503  0.81533911582E+02  0.10597644330E+02 -0.10509098963E+03  0.13343239826E+03  0.00000000000E+00 0.  1.
<mgrwt>
<rscale>  0 0.11728961E+04</rscale>
<asrwt>0</asrwt>
<pdfrwt beam="1">  1        2 0.29905031E-01 0.11728961E+04</pdfrwt>
<pdfrwt beam="2">  1       -1 0.27220001E+00 0.11728961E+04</pdfrwt>
<totfact> 0.10182779E+01</totfact>
</mgrwt>
</event>
<event>
12    7  0.1637954E-007  0.2378349E+04  0.7818608E-02  0.8447654E-01
         -1   -1    0    0    0  501 -0.00000000000E+00  0.00000000000E+00  0.54867641413E+03  0.54867641413E+03  0.00000000000E+00 0.  1.
          2   -1    0    0  501    0  0.00000000000E+00 -0.00000000000E+00 -0.25773580744E+04  0.25773580744E+04  0.00000000000E+00 0. -1.
         24    2    1    2    0    0  0.52295533173E+03  0.85983944793E+03 -0.70299410835E+03  0.12304378089E+04  0.83488502233E+02 0.  0.
        254    2    1    2    0    0 -0.52295533173E+03 -0.85983944793E+03 -0.13256875520E+04  0.18955966797E+04  0.90721173455E+03 0.  0.
         23    2    4    4    0    0 -0.46278653320E+03 -0.99570272812E+03 -0.85804045112E+03  0.13964755122E+04  0.91187401948E+02 0.  0.
         23    2    4    4    0    0 -0.60168798527E+02  0.13586328018E+03 -0.46764710085E+03  0.49912116748E+03  0.91372937351E+02 0.  0.
          2    1    3    3  502    0  0.33950907296E+03  0.55088174465E+03 -0.40279459799E+03  0.76222083111E+03  0.00000000000E+00 0. -1.
         -3    1    3    3    0  502  0.18344625877E+03  0.30895770329E+03 -0.30019951037E+03  0.46821697780E+03  0.00000000000E+00 0.  1.
         13    1    5    5    0    0 -0.12686298413E+03 -0.19734174493E+03 -0.15872535247E+03  0.28325204068E+03  0.00000000000E+00 0. -1.
        -13    1    5    5    0    0 -0.33592354907E+03 -0.79836098319E+03 -0.69931509865E+03  0.11132234715E+04  0.00000000000E+00 0.  1.
          2    1    6    6  503    0  0.11209464274E+02  0.61965156653E+02 -0.25906307203E+03  0.26660646658E+03  0.00000000000E+00 0. -1.
         -2    1    6    6    0  503 -0.71378262801E+02  0.73898123529E+02 -0.20858402881E+03  0.23251470090E+03  0.00000000000E+00 0.  1.
<mgrwt>
<rscale>  0 0.23783487E+04</rscale>
<asrwt>0</asrwt>
<pdfrwt beam="1">  1        2 0.39651662E+00 0.23783487E+04</pdfrwt>
<pdfrwt beam="2">  1       -1 0.84411757E-01 0.23783487E+04</pdfrwt>
<totfact> 0.44689063E+00</totfact>
</mgrwt>
</event>
<event>
12    7  0.1637954E-007  0.1305243E+04  0.7818608E-02  0.9025417E-01
          2   -1    0    0  501    0  0.00000000000E+00  0.00000000000E+00  0.14723660603E+04  0.14723660603E+04  0.00000000000E+00 0. -1.
         -1   -1    0    0    0  501 -0.00000000000E+00 -0.00000000000E+00 -0.28927252575E+03  0.28927252575E+03  0.00000000000E+00 0.  1.
         24    2    1    2    0    0  0.11088415841E+03  0.15110420008E+03  0.67742506195E+03  0.70720975871E+03  0.78186651006E+02 0.  0.
        254    2    1    2    0    0 -0.11088415841E+03 -0.15110420008E+03  0.50566847265E+03  0.10544288274E+04  0.90608596276E+03 0.  0.
         23    2    4    4    0    0  0.10829929036E+03 -0.46889852052E+03  0.42772077726E+03  0.65024602449E+03  0.90995990186E+02 0.  0.
         23    2    4    4    0    0 -0.21918344877E+03  0.31779432043E+03  0.77947695388E+02  0.40418280289E+03  0.90847568051E+02 0.  0.
          4    1    3    3  502    0  0.11389529956E+03  0.15839712558E+03  0.65497775713E+03  0.68341616238E+03  0.00000000000E+00 0. -1.
         -3    1    3    3    0  502 -0.30111411508E+01 -0.72929254976E+01  0.22447304814E+02  0.23793596339E+02  0.00000000000E+00 0.  1.
         13    1    5    5    0    0  0.11471786813E+03 -0.45819950782E+03  0.42849949687E+03  0.63774508782E+03  0.00000000000E+00 0. -1.
        -13    1    5    5    0    0 -0.64185777679E+01 -0.10699012701E+02 -0.77871960289E+00  0.12500936667E+02  0.00000000000E+00 0.  1.
          1    1    6    6  503    0 -0.20343488695E+02  0.93414243375E+02  0.55817582392E+01  0.95766562132E+02  0.00000000000E+00 0. -1.
         -1    1    6    6    0  503 -0.19883996007E+03  0.22438007706E+03  0.72365937149E+02  0.30841624076E+03  0.00000000000E+00 0.  1.
<mgrwt>
<rscale>  0 0.13052433E+04</rscale>
<asrwt>0</asrwt>
<pdfrwt beam="1">  1        2 0.22651785E+00 0.13052433E+04</pdfrwt>
<pdfrwt beam="2">  1       -1 0.44503466E-01 0.13052433E+04</pdfrwt>
<totfact> 0.73443354E+01</totfact>
</mgrwt>
</event>
<event>
12    7  0.1637954E-007  0.9830811E+03  0.7818608E-02  0.9327298E-01
         -1   -1    0    0    0  501 -0.00000000000E+00  0.00000000000E+00  0.61169089109E+02  0.61169089109E+02  0.00000000000E+00 0.  1.
          2   -1    0    0  501    0  0.00000000000E+00 -0.00000000000E+00 -0.39499051352E+04  0.39499051352E+04  0.00000000000E+00 0. -1.
         24    2    1    2    0    0 -0.21424761106E+02  0.12522282119E+02 -0.35879840202E+03  0.36827970872E+03  0.79232711845E+02 0.  0.
        254    2    1    2    0    0  0.21424761106E+02 -0.12522282119E+02 -0.35299376441E+04  0.36427945156E+04  0.89937549657E+03 0.  0.
         23    2    4    4    0    0 -0.31967657848E+03  0.20264498354E+03 -0.25426574091E+04  0.25723139067E+04  0.91836976952E+02 0.  0.
         23    2    4    4    0    0  0.34110133959E+03 -0.21516726566E+03 -0.98728023500E+03  0.10704806089E+04  0.92517001547E+02 0.  0.
          4    1    3    3  502    0 -0.24494017807E+02 -0.42829823682E+01 -0.34610445404E+03  0.34699653305E+03  0.00000000000E+00 0. -1.
         -3    1    3    3    0  502  0.30692567005E+01  0.16805264487E+02 -0.12693947983E+02  0.21283175669E+02  0.00000000000E+00 0.  1.
         13    1    5    5    0    0 -0.30512502260E+03  0.19589630231E+03 -0.25085820333E+04  0.25346519403E+04  0.00000000000E+00 0.  1.
        -13    1    5    5    0    0 -0.14551555879E+02  0.67486812289E+01 -0.34075375829E+02  0.37661966422E+02  0.00000000000E+00 0. -1.
          4    1    6    6  503    0  0.20326846241E+03 -0.15022356349E+03 -0.71651584048E+03  0.75978953434E+03  0.00000000000E+00 0. -1.
         -4    1    6    6    0  503  0.13783287718E+03 -0.64943702171E+02 -0.27076439452E+03  0.31069107458E+03  0.00000000000E+00 0.  1.
<mgrwt>
<rscale>  0 0.98308107E+03</rscale>
<asrwt>0</asrwt>
<pdfrwt beam="1">  1        2 0.60767776E+00 0.98308107E+03</pdfrwt>
<pdfrwt beam="2">  1       -1 0.94106284E-02 0.98308107E+03</pdfrwt>
<totfact> 0.31409450E+01</totfact>
</mgrwt>
</event>
<event>
12    7  0.1637954E-007  0.1213888E+04  0.7818608E-02  0.9100787E-01
          2   -1    0    0  501    0  0.00000000000E+00  0.00000000000E+00  0.23410678967E+04  0.23410678967E+04  0.00000000000E+00 0. -1.
         -1   -1    0    0    0  501 -0.00000000000E+00 -0.00000000000E+00 -0.15735592547E+03  0.15735592547E+03  0.00000000000E+00 0.  1.
         24    2    1    2    0    0  0.60633201078E+02 -0.21816761746E+03  0.20184957017E+03  0.31295398055E+03  0.76963956371E+02 0.  0.
        254    2    1    2    0    0 -0.60633201078E+02  0.21816761746E+03  0.19818624010E+04  0.21854698416E+04  0.89287533146E+03 0.  0.
         23    2    4    4    0    0 -0.11483122454E+03  0.25739649133E+03  0.20383461765E+04  0.20596445918E+04  0.88552502144E+02 0.  0.
         23    2    4    4    0    0  0.54198023463E+02 -0.39228873867E+02 -0.56483775457E+02  0.12582524975E+03  0.90361752377E+02 0.  0.
          2    1    3    3  502    0 -0.46719156822E+01 -0.36432159068E+02  0.47816837751E+01  0.37040430751E+02  0.00000000000E+00 0. -1.
         -1    1    3    3    0  502  0.65305116760E+02 -0.18173545839E+03  0.19706788640E+03  0.27591354980E+03  0.00000000000E+00 0.  1.
         13    1    5    5    0    0 -0.31504373228E+01  0.50929597145E+02  0.20150999163E+03  0.20787021395E+03  0.00000000000E+00 0.  1.
        -13    1    5    5    0    0 -0.11168078722E+03  0.20646689418E+03  0.18368361849E+04  0.18517743779E+04  0.00000000000E+00 0. -1.
          3    1    6    6  503    0  0.21983983765E+02  0.20479228819E+02 -0.49123661373E+02  0.57583230735E+02  0.00000000000E+00 0. -1.
         -3    1    6    6    0  503  0.32214039698E+02 -0.59708102685E+02 -0.73601140843E+01  0.68242019015E+02  0.00000000000E+00 0.  1.
<mgrwt>
<rscale>  0 0.12138878E+04</rscale>
<asrwt>0</asrwt>
<pdfrwt beam="1">  1        2 0.36016427E+00 0.12138878E+04</pdfrwt>
<pdfrwt beam="2">  1       -1 0.24208606E-01 0.12138878E+04</pdfrwt>
<totfact> 0.71711472E+01</totfact>
</mgrwt>
</event>
<event>
12    7  0.1637954E-007  0.2533302E+04  0.7818608E-02  0.8391217E-01
          2   -1    0    0  501    0  0.00000000000E+00  0.00000000000E+00  0.17288726621E+04  0.17288726621E+04  0.00000000000E+00 0. -1.
         -1   -1    0    0    0  501 -0.00000000000E+00 -0.00000000000E+00 -0.92800630103E+03  0.92800630103E+03  0.00000000000E+00 0.  1.
         24    2    1    2    0    0 -0.40224868550E+03  0.17810687263E+03  0.14099523781E+04  0.14790693750E+04  0.78450267472E+02 0.  0.
        254    2    1    2    0    0  0.40224868550E+03 -0.17810687263E+03 -0.60908601702E+03  0.11778095881E+04  0.90704111634E+03 0.  0.
         23    2    4    4    0    0  0.22670524438E+03 -0.10785749149E+03  0.20473521603E+03  0.33674224995E+03  0.91925665163E+02 0.  0.
         23    2    4    4    0    0  0.17554344112E+03 -0.70249381141E+02 -0.81382123305E+03  0.84106733819E+03  0.96637429294E+02 0.  0.
          2    1    3    3  502    0 -0.35504278861E+03  0.15015508355E+03  0.11344056096E+04  0.11981143593E+04  0.00000000000E+00 0. -1.
         -3    1    3    3    0  502 -0.47205896892E+02  0.27951789080E+02  0.27554676852E+03  0.28095501572E+03  0.00000000000E+00 0.  1.
         13    1    5    5    0    0  0.17076247398E+03 -0.12172601803E+03  0.15927783182E+03  0.26333718631E+03  0.00000000000E+00 0. -1.
        -13    1    5    5    0    0  0.55942770402E+02  0.13868526534E+02  0.45457384213E+02  0.73405063640E+02  0.00000000000E+00 0.  1.
          4    1    6    6  503    0  0.76588481878E+02 -0.11179070074E+02 -0.51516834146E+03  0.52095027326E+03  0.00000000000E+00 0. -1.
         -4    1    6    6    0  503  0.98954959238E+02 -0.59070311068E+02 -0.29865289159E+03  0.32011706494E+03  0.00000000000E+00 0.  1.
<mgrwt>
<rscale>  0 0.25333020E+04</rscale>
<asrwt>0</asrwt>
<pdfrwt beam="1">  1        2 0.26598041E+00 0.25333020E+04</pdfrwt>
<pdfrwt beam="2">  1       -1 0.14277020E+00 0.25333020E+04</pdfrwt>
<totfact> 0.38096879E+00</totfact>
</mgrwt>
</event>
<event>
12    7  0.1637954E-007  0.3178964E+04  0.7818608E-02  0.8194395E-01
          2   -1    0    0  501    0  0.00000000000E+00  0.00000000000E+00  0.16543519271E+04  0.16543519271E+04  0.00000000000E+00 0. -1.
         -1   -1    0    0    0  501 -0.00000000000E+00 -0.00000000000E+00 -0.15271558248E+04  0.15271558248E+04  0.00000000000E+00 0.  1.
         24    2    1    2    0    0  0.15879788361E+03 -0.39119681842E+03  0.14599603569E+04  0.15221972500E+04  0.85723425508E+02 0.  0.
        254    2    1    2    0    0 -0.15879788361E+03  0.39119681842E+03 -0.13327642546E+04  0.16593105018E+04  0.89375559544E+03 0.  0.
         23    2    4    4    0    0 -0.48247212052E+02 -0.17471245413E+03  0.69842230383E+00  0.20356710812E+03  0.92665228725E+02 0.  0.
         23    2    4    4    0    0 -0.11055067156E+03  0.56590927256E+03 -0.13334626769E+04  0.14557433937E+04  0.92689598788E+02 0.  0.
          4    1    3    3  502    0  0.81992774362E+02 -0.23055101512E+03  0.98549800577E+03  0.10154225254E+04  0.00000000000E+00 0. -1.
         -3    1    3    3    0  502  0.76805109251E+02 -0.16064580330E+03  0.47446235114E+03  0.50677472468E+03  0.00000000000E+00 0.  1.
         13    1    5    5    0    0 -0.55439059163E+02 -0.76648449516E+02  0.32816752874E+02  0.10012698619E+03  0.00000000000E+00 0. -1.
        -13    1    5    5    0    0  0.71918471110E+01 -0.98064004618E+02 -0.32118330570E+02  0.10344012193E+03  0.00000000000E+00 0.  1.
          4    1    6    6  503    0 -0.29210326898E+02  0.68605289424E+02 -0.11346196879E+03  0.13577020032E+03  0.00000000000E+00 0. -1.
         -4    1    6    6    0  503 -0.81340344662E+02  0.49730398313E+03 -0.12200007081E+04  0.13199731933E+04  0.00000000000E+00 0.  1.
<mgrwt>
<rscale>  0 0.31789641E+04</rscale>
<asrwt>0</asrwt>
<pdfrwt beam="1">  1        2 0.25451568E+00 0.31789641E+04</pdfrwt>
<pdfrwt beam="2">  1       -1 0.23494705E+00 0.31789641E+04</pdfrwt>
<totfact> 0.87394719E-01</totfact>
</mgrwt>
</event>
<event>
12    7  0.1637954E-007  0.2068905E+04  0.7818608E-02  0.8575066E-01
          2   -1    0    0  501    0  0.00000000000E+00  0.00000000000E+00  0.69912220523E+03  0.69912220523E+03  0.00000000000E+00 0. -1.
         -1   -1    0    0    0  501 -0.00000000000E+00 -0.00000000000E+00 -0.15306228415E+04  0.15306228415E+04  0.00000000000E+00 0.  1.
         24    2    1    2    0    0  0.53741656260E+03  0.48241663045E+03  0.12211293304E+03  0.73679744072E+03  0.80103265520E+02 0.  0.
        254    2    1    2    0    0 -0.53741656260E+03 -0.48241663045E+03 -0.95361356932E+03  0.14929476060E+04  0.89329241998E+03 0.  0.
         23    2    4    4    0    0 -0.30892644747E+02 -0.37429737200E+03  0.19463979096E+02  0.38686132601E+03  0.90719131904E+02 0.  0.
         23    2    4    4    0    0 -0.50652391785E+03 -0.10811925845E+03 -0.97307754842E+03  0.11060862800E+04  0.91053227049E+02 0.  0.
          2    1    3    3  502    0  0.45327314388E+03  0.43775646762E+03  0.91614805729E+02  0.63677353945E+03  0.00000000000E+00 0. -1.
         -1    1    3    3    0  502  0.84143418713E+02  0.44660162837E+02  0.30498127315E+02  0.10002390128E+03  0.00000000000E+00 0.  1.
         13    1    5    5    0    0 -0.10299122989E+02 -0.35254742524E+03  0.32505935292E+02  0.35419259564E+03  0.00000000000E+00 0.  1.
        -13    1    5    5    0    0 -0.20593521758E+02 -0.21749946760E+02 -0.13041956195E+02  0.32668730368E+02  0.00000000000E+00 0. -1.
          2    1    6    6  503    0 -0.35899994953E+03 -0.11312999271E+03 -0.65556567736E+03  0.75594028623E+03  0.00000000000E+00 0.  1.
         -2    1    6    6    0  503 -0.14752396833E+03  0.50107342604E+01 -0.31751187106E+03  0.35014599377E+03  0.00000000000E+00 0. -1.
<mgrwt>
<rscale>  0 0.20689054E+04</rscale>
<asrwt>0</asrwt>
<pdfrwt beam="1">  1        2 0.10755726E+00 0.20689054E+04</pdfrwt>
<pdfrwt beam="2">  1       -1 0.23548044E+00 0.20689054E+04</pdfrwt>
<totfact> 0.37574528E+00</totfact>
</mgrwt>
</event>
<event>
12    7  0.1637954E-007  0.1752013E+04  0.7818608E-02  0.8732243E-01
          2   -1    0    0  501    0  0.00000000000E+00  0.00000000000E+00  0.14681292882E+04  0.14681292882E+04  0.00000000000E+00 0. -1.
         -1   -1    0    0    0  501 -0.00000000000E+00 -0.00000000000E+00 -0.52269717584E+03  0.52269717584E+03  0.00000000000E+00 0.  1.
         24    2    1    2    0    0  0.24380065340E+03 -0.54156815456E+03  0.60195435003E+02  0.60218447419E+03  0.79169602298E+02 0.  0.
        254    2    1    2    0    0 -0.24380065340E+03  0.54156815456E+03  0.88523667736E+03  0.13886419898E+04  0.88991447701E+03 0.  0.
         23    2    4    4    0    0 -0.23697787327E+03  0.62065709695E+03  0.10097968142E+04  0.12121494548E+04  0.90790695175E+02 0.  0.
         23    2    4    4    0    0 -0.68227801204E+01 -0.79088942389E+02 -0.12456013685E+03  0.17649253506E+03  0.96606294335E+02 0.  0.
          4    1    3    3  502    0  0.34365041144E+02 -0.10131953907E+03 -0.17796935787E+02  0.10845891376E+03  0.00000000000E+00 0. -1.
         -3    1    3    3    0  502  0.20943561225E+03 -0.44024861549E+03  0.77992370791E+02  0.49372556043E+03  0.00000000000E+00 0.  1.
         13    1    5    5    0    0 -0.98452587318E+01  0.82971584964E+02  0.90211035097E+02  0.12296033460E+03  0.00000000000E+00 0. -1.
        -13    1    5    5    0    0 -0.22713261454E+03  0.53768551199E+03  0.91958577911E+03  0.10891891202E+04  0.00000000000E+00 0.  1.
          4    1    6    6  503    0  0.23975049051E+02 -0.41559201841E+02 -0.59690455018E+01  0.48348730478E+02  0.00000000000E+00 0. -1.
         -4    1    6    6    0  503 -0.30797829171E+02 -0.37529740548E+02 -0.11859109134E+03  0.12814380459E+03  0.00000000000E+00 0.  1.
<mgrwt>
<rscale>  0 0.17520126E+04</rscale>
<asrwt>0</asrwt>
<pdfrwt beam="1">  1        2 0.22586604E+00 0.17520126E+04</pdfrwt>
<pdfrwt beam="2">  1       -1 0.80414951E-01 0.17520126E+04</pdfrwt>
<totfact> 0.22046416E+01</totfact>
</mgrwt>
</event>
<event>
12    7  0.1637954E-007  0.2796962E+04  0.7818608E-02  0.8304212E-01
          2   -1    0    0  501    0  0.00000000000E+00  0.00000000000E+00  0.38265081404E+04  0.38265081404E+04  0.00000000000E+00 0. -1.
         -1   -1    0    0    0  501 -0.00000000000E+00 -0.00000000000E+00 -0.51110534029E+03  0.51110534029E+03  0.00000000000E+00 0.  1.
         24    2    1    2    0    0 -0.96207881789E+03 -0.58618370454E+03  0.64195515332E+03  0.12992120209E+04  0.81476800579E+02 0.  0.
        254    2    1    2    0    0  0.96207881789E+03  0.58618370454E+03  0.26734476468E+04  0.30384014598E+04  0.90296961386E+03 0.  0.
         23    2    4    4    0    0  0.50845891010E+03 -0.15240001272E+03  0.13520032356E+04  0.14553463440E+04  0.91454933417E+02 0.  0.
         23    2    4    4    0    0  0.45361990779E+03  0.73858371726E+03  0.13214444112E+04  0.15830551158E+04  0.92580989563E+02 0.  0.
          4    1    3    3  502    0 -0.20676925995E+03 -0.10260424301E+03  0.16208393657E+03  0.28205027928E+03  0.00000000000E+00 0. -1.
         -3    1    3    3    0  502 -0.75530955793E+03 -0.48357946153E+03  0.47987121674E+03  0.10171617416E+04  0.00000000000E+00 0.  1.
         13    1    5    5    0    0  0.31059511272E+03 -0.91295080898E+02  0.69974930776E+03  0.77100791796E+03  0.00000000000E+00 0.  1.
        -13    1    5    5    0    0  0.19786379738E+03 -0.61104931821E+02  0.65225392782E+03  0.68433842605E+03  0.00000000000E+00 0. -1.
          3    1    6    6  503    0  0.38626088215E+03  0.55832844602E+03  0.10108152224E+04  0.12176516483E+04  0.00000000000E+00 0. -1.
         -3    1    6    6    0  503  0.67359025644E+02  0.18025527123E+03  0.31062918885E+03  0.36540346756E+03  0.00000000000E+00 0.  1.
<mgrwt>
<rscale>  0 0.27969617E+04</rscale>
<asrwt>0</asrwt>
<pdfrwt beam="1">  1        2 0.58869354E+00 0.27969617E+04</pdfrwt>
<pdfrwt beam="2">  1       -1 0.78631593E-01 0.27969617E+04</pdfrwt>
<totfact> 0.75062117E-01</totfact>
</mgrwt>
</event>
<event>
12    7  0.1637954E-007  0.1362465E+04  0.7818608E-02  0.8981446E-01
          2   -1    0    0  501    0  0.00000000000E+00  0.00000000000E+00  0.22127540679E+04  0.22127540679E+04  0.00000000000E+00 0. -1.
         -1   -1    0    0    0  501 -0.00000000000E+00 -0.00000000000E+00 -0.20972855104E+03  0.20972855104E+03  0.00000000000E+00 0.  1.
         24    2    1    2    0    0  0.32159992701E+02  0.87723413211E+02  0.12203054086E+04  0.12264884169E+04  0.79993026408E+02 0.  0.
        254    2    1    2    0    0 -0.32159992701E+02 -0.87723413211E+02  0.78272010826E+03  0.11959942020E+04  0.89945633635E+03 0.  0.
         23    2    4    4    0    0 -0.72356546787E+02  0.35586924734E+03  0.59901926954E+03  0.70673590904E+03  0.93665195179E+02 0.  0.
         23    2    4    4    0    0  0.40196554086E+02 -0.44359266055E+03  0.18370083872E+03  0.48925829296E+03  0.85073307385E+02 0.  0.
          2    1    3    3  502    0  0.28920009248E+02  0.57450679059E+00  0.51503114674E+03  0.51584278526E+03  0.00000000000E+00 0. -1.
         -1    1    3    3    0  502  0.32399834535E+01  0.87148906420E+02  0.70527426183E+03  0.71064563165E+03  0.00000000000E+00 0.  1.
         13    1    5    5    0    0 -0.86706726592E+02  0.33178305699E+03  0.52004445426E+03  0.62293200893E+03  0.00000000000E+00 0. -1.
        -13    1    5    5    0    0  0.14350179805E+02  0.24086190350E+02  0.78974815285E+02  0.83803900120E+02  0.00000000000E+00 0.  1.
          4    1    6    6  503    0  0.19735607514E+02 -0.41017491609E+03  0.18420340906E+03  0.45007094097E+03  0.00000000000E+00 0. -1.
         -4    1    6    6    0  503  0.20460946571E+02 -0.33417744457E+02 -0.50257033627E+00  0.39187351992E+02  0.00000000000E+00 0.  1.
<mgrwt>
<rscale>  0 0.13624650E+04</rscale>
<asrwt>0</asrwt>
<pdfrwt beam="1">  1        2 0.34042369E+00 0.13624650E+04</pdfrwt>
<pdfrwt beam="2">  1       -1 0.32265933E-01 0.13624650E+04</pdfrwt>
<totfact> 0.50749039E+01</totfact>
</mgrwt>
</event>
<event>
12    7  0.1637954E-007  0.1906992E+04  0.7818608E-02  0.8651384E-01
          2   -1    0    0  501    0  0.00000000000E+00  0.00000000000E+00  0.16210120498E+04  0.16210120498E+04  0.00000000000E+00 0. -1.
         -1   -1    0    0    0  501 -0.00000000000E+00 -0.00000000000E+00 -0.56085613573E+03  0.56085613573E+03  0.00000000000E+00 0.  1.
         24    2    1    2    0    0  0.51853912583E+01 -0.39292740573E+03  0.11299779468E+04  0.11990584654E+04  0.80450038780E+02 0.  0.
        254    2    1    2    0    0 -0.51853912583E+01  0.39292740573E+03 -0.69822032696E+02  0.98280972017E+03  0.89812081334E+03 0.  0.
         23    2    4    4    0    0 -0.15277558357E+03  0.41288501528E+03  0.32125985741E+03  0.55242290743E+03  0.90270470758E+02 0.  0.
         23    2    4    4    0    0  0.14759019231E+03 -0.19957609547E+02 -0.39108189011E+03  0.43038681274E+03  0.10053155110E+03 0.  0.
          2    1    3    3  502    0  0.28390661044E+02 -0.31625293779E+03  0.96000422679E+03  0.10111528400E+04  0.00000000000E+00 0. -1.
         -1    1    3    3    0  502 -0.23205269785E+02 -0.76674467940E+02  0.16997371998E+03  0.18790562542E+03  0.00000000000E+00 0.  1.
         13    1    5    5    0    0 -0.97587885765E+02  0.16922801428E+03  0.17884606721E+03  0.26485360489E+03  0.00000000000E+00 0. -1.
        -13    1    5    5    0    0 -0.55187697805E+02  0.24365700099E+03  0.14241379020E+03  0.28756930254E+03  0.00000000000E+00 0.  1.
          3    1    6    6  503    0  0.14697167994E+03  0.10116307730E+02 -0.29555596473E+03  0.33023679788E+03  0.00000000000E+00 0. -1.
         -3    1    6    6    0  503  0.61851237399E+00 -0.30073917276E+02 -0.95525925374E+02  0.10015001486E+03  0.00000000000E+00 0.  1.
<mgrwt>
<rscale>  0 0.19069919E+04</rscale>
<asrwt>0</asrwt>
<pdfrwt beam="1">  1        2 0.24938647E+00 0.19069919E+04</pdfrwt>
<pdfrwt beam="2">  1       -1 0.86285560E-01 0.19069919E+04</pdfrwt>
<totfact> 0.15335729E+01</totfact>
</mgrwt>
</event>
<event>
12    7  0.1637954E-007  0.1417173E+04  0.7818608E-02  0.8941481E-01
          2   -1    0    0  501    0  0.00000000000E+00  0.00000000000E+00  0.11167285863E+04  0.11167285863E+04  0.00000000000E+00 0. -1.
         -1   -1    0    0    0  501 -0.00000000000E+00 -0.00000000000E+00 -0.44961221173E+03  0.44961221173E+03  0.00000000000E+00 0.  1.
         24    2    1    2    0    0  0.32691089891E+03 -0.23246206496E+03  0.31434621050E+03  0.51612899283E+03  0.81647104726E+02 0.  0.
        254    2    1    2    0    0 -0.32691089891E+03  0.23246206496E+03  0.35277016402E+03  0.10502118052E+04  0.90420611565E+03 0.  0.
         23    2    4    4    0    0  0.14762676664E+03 -0.24545549282E+03  0.17049348724E+03  0.34658772856E+03  0.94936627381E+02 0.  0.
         23    2    4    4    0    0 -0.47453766555E+03  0.47791755778E+03  0.18227667678E+03  0.70362407659E+03  0.90944302690E+02 0.  0.
          4    1    3    3  502    0  0.27610820322E+03 -0.22471693336E+03  0.25665238815E+03  0.43886659518E+03  0.00000000000E+00 0. -1.
         -3    1    3    3    0  502  0.50802695696E+02 -0.77451316071E+01  0.57693822353E+02  0.77262397654E+02  0.00000000000E+00 0.  1.
         13    1    5    5    0    0 -0.55709572667E+01 -0.52321834978E+02  0.13486642936E+02  0.54318500698E+02  0.00000000000E+00 0. -1.
        -13    1    5    5    0    0  0.15319772391E+03 -0.19313365784E+03  0.15700684430E+03  0.29226922787E+03  0.00000000000E+00 0.  1.
          1    1    6    6  503    0 -0.11463328835E+03  0.13068841644E+03  0.87516587776E+02  0.19462632434E+03  0.00000000000E+00 0. -1.
         -1    1    6    6    0  503 -0.35990437721E+03  0.34722914134E+03  0.94760089007E+02  0.50899775225E+03  0.00000000000E+00 0.  1.
<mgrwt>
<rscale>  0 0.14171730E+04</rscale>
<asrwt>0</asrwt>
<pdfrwt beam="1">  1        2 0.17180440E+00 0.14171730E+04</pdfrwt>
<pdfrwt beam="2">  1       -1 0.69171110E-01 0.14171730E+04</pdfrwt>
<totfact> 0.49876362E+01</totfact>
</mgrwt>
</event>
<event>
12    7  0.1637954E-007  0.1430432E+04  0.7818608E-02  0.8932080E-01
         -1   -1    0    0    0  501 -0.00000000000E+00  0.00000000000E+00  0.45268345040E+03  0.45268345040E+03  0.00000000000E+00 0.  1.
          2   -1    0    0  501    0  0.00000000000E+00 -0.00000000000E+00 -0.11300041329E+04  0.11300041329E+04  0.00000000000E+00 0. -1.
         24    2    1    2    0    0 -0.32346176129E+02 -0.39671733645E+03 -0.39014564150E+03  0.56309339404E+03  0.80184965382E+02 0.  0.
        254    2    1    2    0    0  0.32346176129E+02  0.39671733645E+03 -0.28717504101E+03  0.10195941893E+04  0.89368444458E+03 0.  0.
         23    2    4    4    0    0 -0.75904065849E+02  0.49988347129E+03  0.16130591101E+03  0.53806687810E+03  0.88608443746E+02 0.  0.
         23    2    4    4    0    0  0.10825024198E+03 -0.10316613484E+03 -0.44848095202E+03  0.48152731118E+03  0.91498747659E+02 0.  0.
          2    1    3    3  502    0 -0.47878458575E+02 -0.20395100086E+03 -0.16781032617E+03  0.26841882035E+03  0.00000000000E+00 0. -1.
         -1    1    3    3    0  502  0.15532282447E+02 -0.19276633559E+03 -0.22233531533E+03  0.29467457369E+03  0.00000000000E+00 0.  1.
         13    1    5    5    0    0 -0.35064269763E+02  0.71082328030E+02  0.35306947698E+01  0.79338932295E+02  0.00000000000E+00 0. -1.
        -13    1    5    5    0    0 -0.40839796087E+02  0.42880114326E+03  0.15777521624E+03  0.45872794581E+03  0.00000000000E+00 0.  1.
          4    1    6    6  503    0  0.10911763595E+03 -0.11534232139E+03 -0.37794071209E+03  0.40993864350E+03  0.00000000000E+00 0. -1.
         -4    1    6    6    0  503 -0.86739397550E+00  0.12176186548E+02 -0.70540239928E+02  0.71588667680E+02  0.00000000000E+00 0.  1.
<mgrwt>
<rscale>  0 0.14304323E+04</rscale>
<asrwt>0</asrwt>
<pdfrwt beam="1">  1        2 0.17384679E+00 0.14304323E+04</pdfrwt>
<pdfrwt beam="2">  1       -1 0.69643609E-01 0.14304323E+04</pdfrwt>
<totfact> 0.48223012E+01</totfact>
</mgrwt>
</event>
<event>
12    7  0.1637954E-007  0.2291573E+04  0.7818608E-02  0.8481251E-01
          2   -1    0    0  501    0  0.00000000000E+00  0.00000000000E+00  0.14278209097E+04  0.14278209097E+04  0.00000000000E+00 0. -1.
         -1   -1    0    0    0  501 -0.00000000000E+00 -0.00000000000E+00 -0.91946140762E+03  0.91946140762E+03  0.00000000000E+00 0.  1.
         24    2    1    2    0    0  0.88441934221E+03  0.32340593163E+03  0.40713878530E+01  0.94510935473E+03  0.80163250430E+02 0.  0.
        254    2    1    2    0    0 -0.88441934221E+03 -0.32340593163E+03  0.50428811419E+03  0.14021729626E+04  0.90829155304E+03 0.  0.
         23    2    4    4    0    0 -0.10508610619E+04 -0.33262248690E+03  0.36220141685E+03  0.11638135080E+04  0.91243217660E+02 0.  0.
         23    2    4    4    0    0  0.16644171972E+03  0.92165552765E+01  0.14208669734E+03  0.23835945455E+03  0.94014940609E+02 0.  0.
          2    1    3    3  502    0  0.10854796735E+03  0.39335869429E+02  0.26925325272E+02  0.11855355322E+03  0.00000000000E+00 0. -1.
         -1    1    3    3    0  502  0.77587137486E+03  0.28407006220E+03 -0.22853937419E+02  0.82655580151E+03  0.00000000000E+00 0.  1.
         13    1    5    5    0    0 -0.30128332069E+03 -0.11998033278E+03  0.70682578305E+02  0.33190803916E+03  0.00000000000E+00 0.  1.
        -13    1    5    5    0    0 -0.74957774124E+03 -0.21264215412E+03  0.29151883855E+03  0.83190546884E+03  0.00000000000E+00 0. -1.
          1    1    6    6  503    0  0.13350459023E+03  0.19985599516E+02  0.15103513718E+03  0.20256977184E+03  0.00000000000E+00 0. -1.
         -1    1    6    6    0  503  0.32937129493E+02 -0.10769044239E+02 -0.89484398398E+01  0.35789682712E+02  0.00000000000E+00 0.  1.
<mgrwt>
<rscale>  0 0.22915726E+04</rscale>
<asrwt>0</asrwt>
<pdfrwt beam="1">  1        2 0.21966475E+00 0.22915726E+04</pdfrwt>
<pdfrwt beam="2">  1       -1 0.14145560E+00 0.22915726E+04</pdfrwt>
<totfact> 0.58824625E+00</totfact>
</mgrwt>
</event>
<event>
12    7  0.1637954E-007  0.1715864E+04  0.7818608E-02  0.8752368E-01
         -1   -1    0    0    0  501 -0.00000000000E+00  0.00000000000E+00  0.60099274985E+03  0.60099274985E+03  0.00000000000E+00 0.  1.
          2   -1    0    0  501    0  0.00000000000E+00 -0.00000000000E+00 -0.12247191535E+04  0.12247191535E+04  0.00000000000E+00 0. -1.
         24    2    1    2    0    0 -0.41385648500E+03 -0.44810008998E+03 -0.13783330239E+03  0.63059003853E+03  0.81085736292E+02 0.  0.
        254    2    1    2    0    0  0.41385648500E+03  0.44810008998E+03 -0.48589310123E+03  0.11951218648E+04  0.90562314737E+03 0.  0.
         23    2    4    4    0    0 -0.21122960157E+03 -0.10226611609E+03 -0.87201720964E+02  0.26769623373E+03  0.94767242945E+02 0.  0.
         23    2    4    4    0    0  0.62508608657E+03  0.55036620607E+03 -0.39869138027E+03  0.92742563105E+03  0.86763517833E+02 0.  0.
          2    1    3    3  502    0 -0.14119362273E+03 -0.15768285127E+03 -0.87635650855E+02  0.22908410680E+03  0.00000000000E+00 0. -1.
         -1    1    3    3    0  502 -0.27266286227E+03 -0.29041723871E+03 -0.50197651533E+02  0.40150593173E+03  0.00000000000E+00 0.  1.
         13    1    5    5    0    0 -0.31867804173E+02 -0.30256151731E+02  0.18181703617E+02  0.47555925044E+02  0.00000000000E+00 0.  1.
        -13    1    5    5    0    0 -0.17936179740E+03 -0.72009964358E+02 -0.10538342458E+03  0.22014030869E+03  0.00000000000E+00 0. -1.
          1    1    6    6  503    0  0.58415928133E+03  0.48086810453E+03 -0.35647304781E+03  0.83639059879E+03  0.00000000000E+00 0. -1.
         -1    1    6    6    0  503  0.40926805236E+02  0.69498101534E+02 -0.42218332458E+02  0.91035032263E+02  0.00000000000E+00 0.  1.
<mgrwt>
<rscale>  0 0.17158640E+04</rscale>
<asrwt>0</asrwt>
<pdfrwt beam="1">  1        2 0.18841833E+00 0.17158640E+04</pdfrwt>
<pdfrwt beam="2">  1       -1 0.92460423E-01 0.17158640E+04</pdfrwt>
<totfact> 0.22574482E+01</totfact>
</mgrwt>
</event>
<event>
12    7  0.1637954E-007  0.1350162E+04  0.7818608E-02  0.8990706E-01
         -1   -1    0    0    0  501 -0.00000000000E+00  0.00000000000E+00  0.25376010768E+03  0.25376010768E+03  0.00000000000E+00 0.  1.
          2   -1    0    0  501    0  0.00000000000E+00 -0.00000000000E+00 -0.17959250041E+04  0.17959250041E+04  0.00000000000E+00 0. -1.
         24    2    1    2    0    0 -0.19764153577E+02  0.23800470832E+03 -0.37767167039E+01  0.25028170664E+03  0.74765006119E+02 0.  0.
        254    2    1    2    0    0  0.19764153577E+02 -0.23800470832E+03 -0.15383881797E+04  0.17994034052E+04  0.90231788192E+03 0.  0.
         23    2    4    4    0    0 -0.19923224749E+02 -0.44125404160E+03 -0.15044013769E+04  0.15706312049E+04  0.92503053445E+02 0.  0.
         23    2    4    4    0    0  0.39687378326E+02  0.20324933328E+03 -0.33986802855E+02  0.22877220028E+03  0.91083683371E+02 0.  0.
          4    1    3    3  502    0  0.16765678356E+02  0.14187045644E+03 -0.25645893581E+02  0.14514140084E+03  0.00000000000E+00 0. -1.
         -3    1    3    3    0  502 -0.36529831933E+02  0.96134251883E+02  0.21869176877E+02  0.10514030580E+03  0.00000000000E+00 0.  1.
         13    1    5    5    0    0 -0.46611792338E+02 -0.15666953407E+03 -0.47810827940E+03  0.50527767507E+03  0.00000000000E+00 0. -1.
        -13    1    5    5    0    0  0.26688567589E+02 -0.28458450753E+03 -0.10262930975E+04  0.10653535298E+04  0.00000000000E+00 0.  1.
          1    1    6    6  503    0  0.34212607365E+01 -0.22046522009E+01 -0.19191146108E+02  0.19617991877E+02  0.00000000000E+00 0. -1.
         -1    1    6    6    0  503  0.36266117590E+02  0.20545398548E+03 -0.14795656747E+02  0.20915420840E+03  0.00000000000E+00 0.  1.
<mgrwt>
<rscale>  0 0.13501617E+04</rscale>
<asrwt>0</asrwt>
<pdfrwt beam="1">  1        2 0.27629616E+00 0.13501617E+04</pdfrwt>
<pdfrwt beam="2">  1       -1 0.39040016E-01 0.13501617E+04</pdfrwt>
<totfact> 0.61466054E+01</totfact>
</mgrwt>
</event>
<event>
12    7  0.1637954E-007  0.1874992E+04  0.7818608E-02  0.8667405E-01
         -1   -1    0    0    0  501 -0.00000000000E+00  0.00000000000E+00  0.81698976442E+03  0.81698976442E+03  0.00000000000E+00 0.  1.
          2   -1    0    0  501    0  0.00000000000E+00 -0.00000000000E+00 -0.10757770761E+04  0.10757770761E+04  0.00000000000E+00 0. -1.
         24    2    1    2    0    0  0.51694885404E+02 -0.67169657728E+03 -0.22819473114E+03  0.71596512114E+03  0.81759196852E+02 0.  0.
        254    2    1    2    0    0 -0.51694885404E+02  0.67169657728E+03 -0.30592580508E+02  0.11768017193E+04  0.96440537511E+03 0.  0.
         23    2    4    4    0    0  0.44211161938E+03  0.23246827387E+03 -0.48182171053E+02  0.51025722108E+03  0.92394413871E+02 0.  0.
         23    2    4    4    0    0 -0.49380650478E+03  0.43922830341E+03  0.17589590545E+02  0.66654449825E+03  0.84887029481E+02 0.  0.
          4    1    3    3  502    0  0.28735746506E+02 -0.25474261318E+03 -0.12795448445E+03  0.28651682705E+03  0.00000000000E+00 0. -1.
         -3    1    3    3    0  502  0.22959138897E+02 -0.41695396410E+03 -0.10024024669E+03  0.42944829409E+03  0.00000000000E+00 0.  1.
         13    1    5    5    0    0  0.37181156306E+03  0.22210849468E+03 -0.63031113705E+02  0.43766304747E+03  0.00000000000E+00 0. -1.
        -13    1    5    5    0    0  0.70300056322E+02  0.10359779189E+02  0.14848942652E+02  0.72594173606E+02  0.00000000000E+00 0.  1.
          1    1    6    6  503    0 -0.45750354187E+03  0.40610855066E+03  0.38899822360E+02  0.61298192626E+03  0.00000000000E+00 0. -1.
         -1    1    6    6    0  503 -0.36302962912E+02  0.33119752751E+02 -0.21310231815E+02  0.53562571992E+02  0.00000000000E+00 0.  1.
<mgrwt>
<rscale>  0 0.18749921E+04</rscale>
<asrwt>0</asrwt>
<pdfrwt beam="1">  1        2 0.16550417E+00 0.18749921E+04</pdfrwt>
<pdfrwt beam="2">  1       -1 0.12569073E+00 0.18749921E+04</pdfrwt>
<totfact> 0.13326849E+01</totfact>
</mgrwt>
</event>
<event>
12    7  0.1637954E-007  0.3190393E+04  0.7818608E-02  0.8191359E-01
          2   -1    0    0  501    0  0.00000000000E+00  0.00000000000E+00  0.90072447393E+03  0.90072447393E+03  0.00000000000E+00 0. -1.
         -1   -1    0    0    0  501 -0.00000000000E+00 -0.00000000000E+00 -0.28251163474E+04  0.28251163474E+04  0.00000000000E+00 0.  1.
         24    2    1    2    0    0  0.40448907003E+03  0.10970880244E+04  0.14842049392E+03  0.11812457765E+04  0.78098658607E+02 0.  0.
        254    2    1    2    0    0 -0.40448907003E+03 -0.10970880244E+04 -0.20728123674E+04  0.25445950448E+04  0.90066602620E+03 0.  0.
         23    2    4    4    0    0 -0.17965903114E+03 -0.10696431233E+04 -0.11221896171E+04  0.15632402545E+04  0.89424704133E+02 0.  0.
         23    2    4    4    0    0 -0.22483003889E+03 -0.27444901060E+02 -0.95062275026E+03  0.98135479034E+03  0.89843431773E+02 0.  0.
          4    1    3    3  502    0  0.36728826152E+03  0.95578269051E+03  0.15162779096E+03  0.10350904335E+04  0.00000000000E+00 0. -1.
         -3    1    3    3    0  502  0.37200808509E+02  0.14130533388E+03 -0.32072970413E+01  0.14615534301E+03  0.00000000000E+00 0.  1.
         13    1    5    5    0    0 -0.94010322459E+02 -0.49378062725E+03 -0.45811128977E+03  0.68009058396E+03  0.00000000000E+00 0. -1.
        -13    1    5    5    0    0 -0.85648708677E+02 -0.57586249607E+03 -0.66407832734E+03  0.88314967051E+03  0.00000000000E+00 0.  1.
          4    1    6    6  503    0 -0.48284009743E+02 -0.29678984210E+02 -0.12782102508E+03  0.13982275263E+03  0.00000000000E+00 0.  1.
         -4    1    6    6    0  503 -0.17654602915E+03  0.22340831509E+01 -0.82280172518E+03  0.84153203771E+03  0.00000000000E+00 0. -1.
<mgrwt>
<rscale>  0 0.31903927E+04</rscale>
<asrwt>0</asrwt>
<pdfrwt beam="1">  1        2 0.13857300E+00 0.31903927E+04</pdfrwt>
<pdfrwt beam="2">  1       -1 0.43463328E+00 0.31903927E+04</pdfrwt>
<totfact> 0.11610023E-01</totfact>
</mgrwt>
</event>
<event>
12    7  0.1637954E-007  0.1746105E+04  0.7818608E-02  0.8735497E-01
         -1   -1    0    0    0  501 -0.00000000000E+00  0.00000000000E+00  0.27760776865E+03  0.27760776865E+03  0.00000000000E+00 0.  1.
          2   -1    0    0  501    0  0.00000000000E+00 -0.00000000000E+00 -0.27456754144E+04  0.27456754144E+04  0.00000000000E+00 0. -1.
         24    2    1    2    0    0  0.46022766882E+03  0.42702380370E+03 -0.74302687492E+03  0.97597513963E+03  0.79244559763E+02 0.  0.
        254    2    1    2    0    0 -0.46022766882E+03 -0.42702380370E+03 -0.17250407708E+04  0.20473080434E+04  0.90639159723E+03 0.  0.
         23    2    4    4    0    0  0.12154246388E+03 -0.41433552721E+03 -0.39290493551E+03  0.59073932481E+03  0.90289323219E+02 0.  0.
         23    2    4    4    0    0 -0.58177013270E+03 -0.12688276487E+02 -0.13321358353E+04  0.14565687186E+04  0.91591859022E+02 0.  0.
          2    1    3    3  502    0  0.38815604621E+03  0.33800347367E+03 -0.56502668386E+03  0.76430793395E+03  0.00000000000E+00 0. -1.
         -1    1    3    3    0  502  0.72071622607E+02  0.89020330025E+02 -0.17800019106E+03  0.21166720568E+03  0.00000000000E+00 0.  1.
         13    1    5    5    0    0  0.12983178982E+03 -0.33892518233E+03 -0.30061755255E+03  0.47127219923E+03  0.00000000000E+00 0.  1.
        -13    1    5    5    0    0 -0.82893259393E+01 -0.75410344878E+02 -0.92287382961E+02  0.11946712557E+03  0.00000000000E+00 0. -1.
          3    1    6    6  503    0 -0.19199589770E+03  0.25498835522E+02 -0.36638105531E+03  0.41442453238E+03  0.00000000000E+00 0. -1.
         -3    1    6    6    0  503 -0.38977423499E+03 -0.38187112009E+02 -0.96575477998E+03  0.10421441862E+04  0.00000000000E+00 0.  1.
<mgrwt>
<rscale>  0 0.17461052E+04</rscale>
<asrwt>0</asrwt>
<pdfrwt beam="1">  1        2 0.42241160E+00 0.17461052E+04</pdfrwt>
<pdfrwt beam="2">  1       -1 0.42708888E-01 0.17461052E+04</pdfrwt>
<totfact> 0.14568990E+01</totfact>
</mgrwt>
</event>
<event>
12    7  0.1637954E-007  0.1766137E+04  0.7818608E-02  0.8724518E-01
          2   -1    0    0  501    0  0.00000000000E+00  0.00000000000E+00  0.18108853544E+04  0.18108853544E+04  0.00000000000E+00 0. -1.
         -1   -1    0    0    0  501 -0.00000000000E+00 -0.00000000000E+00 -0.43062352876E+03  0.43062352876E+03  0.00000000000E+00 0.  1.
         24    2    1    2    0    0  0.43616621765E+03 -0.47952012933E+03  0.57748421512E+03  0.87153294635E+03  0.76818838900E+02 0.  0.
        254    2    1    2    0    0 -0.43616621765E+03  0.47952012933E+03  0.80277761047E+03  0.13699759368E+04  0.90122230975E+03 0.  0.
         23    2    4    4    0    0  0.19789558356E+03  0.31740900953E+03  0.53103250750E+03  0.65555969434E+03  0.88610651140E+02 0.  0.
         23    2    4    4    0    0 -0.63406180121E+03  0.16211111980E+03  0.27174510297E+03  0.71441624243E+03  0.90723665780E+02 0.  0.
          2    1    3    3  502    0  0.27130960935E+03 -0.24310901562E+03  0.31066828591E+03  0.47877518887E+03  0.00000000000E+00 0. -1.
         -1    1    3    3    0  502  0.16485660830E+03 -0.23641111371E+03  0.26681592921E+03  0.39275775749E+03  0.00000000000E+00 0.  1.
         13    1    5    5    0    0  0.14474455287E+03  0.15864269492E+03  0.33292882044E+03  0.39618188969E+03  0.00000000000E+00 0. -1.
        -13    1    5    5    0    0  0.53151030693E+02  0.15876631461E+03  0.19810368705E+03  0.25937780465E+03  0.00000000000E+00 0.  1.
          4    1    6    6  503    0 -0.78645262930E+02  0.27292130626E+01  0.75596938317E+01  0.79054885719E+02  0.00000000000E+00 0. -1.
         -4    1    6    6    0  503 -0.55541653828E+03  0.15938190674E+03  0.26418540914E+03  0.63536135671E+03  0.00000000000E+00 0.  1.
<mgrwt>
<rscale>  0 0.17661368E+04</rscale>
<asrwt>0</asrwt>
<pdfrwt beam="1">  1        2 0.27859774E+00 0.17661368E+04</pdfrwt>
<pdfrwt beam="2">  1       -1 0.66249775E-01 0.17661368E+04</pdfrwt>
<totfact> 0.21183262E+01</totfact>
</mgrwt>
</event>
<event>
12    7  0.1637954E-007  0.1667347E+04  0.7818608E-02  0.8780210E-01
          2   -1    0    0  501    0  0.00000000000E+00  0.00000000000E+00  0.11125133271E+04  0.11125133271E+04  0.00000000000E+00 0. -1.
         -1   -1    0    0    0  501 -0.00000000000E+00 -0.00000000000E+00 -0.62472205768E+03  0.62472205768E+03  0.00000000000E+00 0.  1.
         24    2    1    2    0    0  0.50254013181E+03  0.30094913453E+03  0.11111751624E+03  0.60098489448E+03  0.75622584757E+02 0.  0.
        254    2    1    2    0    0 -0.50254013181E+03 -0.30094913453E+03  0.37667375321E+03  0.11362504903E+04  0.89781128015E+03 0.  0.
         23    2    4    4    0    0 -0.93509134268E+02 -0.55836042482E+03  0.27434813918E+03  0.63557922081E+03  0.90463927954E+02 0.  0.
         23    2    4    4    0    0 -0.40903099754E+03  0.25741129029E+03  0.10232561403E+03  0.50067126952E+03  0.81450963897E+02 0.  0.
          4    1    3    3  502    0  0.74409484240E+02  0.78360579717E+02  0.18163610651E+02  0.10957677012E+03  0.00000000000E+00 0. -1.
         -3    1    3    3    0  502  0.42813064757E+03  0.22258855482E+03  0.92953905589E+02  0.49140812436E+03  0.00000000000E+00 0.  1.
         13    1    5    5    0    0  0.16495718906E+02 -0.68275095317E+02  0.44974560466E+02  0.83404487121E+02  0.00000000000E+00 0. -1.
        -13    1    5    5    0    0 -0.11000485317E+03 -0.49008532950E+03  0.22937357872E+03  0.55217473369E+03  0.00000000000E+00 0.  1.
          1    1    6    6  503    0 -0.28485704933E+03  0.13323337743E+03  0.67642008791E+02  0.32166770551E+03  0.00000000000E+00 0. -1.
         -1    1    6    6    0  503 -0.12417394821E+03  0.12417791286E+03  0.34683605235E+02  0.17900356401E+03  0.00000000000E+00 0.  1.
<mgrwt>
<rscale>  0 0.16673471E+04</rscale>
<asrwt>0</asrwt>
<pdfrwt beam="1">  1        2 0.17115590E+00 0.16673471E+04</pdfrwt>
<pdfrwt beam="2">  1       -1 0.96111086E-01 0.16673471E+04</pdfrwt>
<totfact> 0.24293810E+01</totfact>
</mgrwt>
</event>
<event>
12    7  0.1752994E-007  0.2304317E+04  0.7818608E-02  0.8476221E-01
          2   -1    0    0  501    0  0.00000000000E+00  0.00000000000E+00  0.13238255963E+04  0.13238255963E+04  0.00000000000E+00 0. -1.
         -1   -1    0    0    0  501 -0.00000000000E+00 -0.00000000000E+00 -0.10027523793E+04  0.10027523793E+04  0.00000000000E+00 0.  1.
         24    2    1    2    0    0  0.45251307931E+03  0.19163519936E+03  0.98614057285E+03  0.11048476095E+04  0.81993135825E+02 0.  0.
        254    2    1    2    0    0 -0.45251307931E+03 -0.19163519936E+03 -0.66506735592E+03  0.12217303660E+04  0.89934329530E+03 0.  0.
         23    2    4    4    0    0 -0.10865286855E+03  0.85819254289E+02 -0.74588259044E+03  0.76355088619E+03  0.86595189392E+02 0.  0.
         23    2    4    4    0    0 -0.34386021076E+03 -0.27745445365E+03  0.80815234519E+02  0.45817947984E+03  0.90424085440E+02 0.  0.
          4    1    3    3  502    0  0.26867553510E+03  0.87696213669E+02  0.49064654695E+03  0.56622539954E+03  0.00000000000E+00 0. -1.
         -3    1    3    3    0  502  0.18383754420E+03  0.10393898569E+03  0.49549402590E+03  0.53862221000E+03  0.00000000000E+00 0.  1.
         13    1    5    5    0    0 -0.10298971232E+03  0.73296172378E+02 -0.73560971897E+03  0.74639189999E+03  0.00000000000E+00 0.  1.
        -13    1    5    5    0    0 -0.56631562353E+01  0.12523081911E+02 -0.10272871470E+02  0.17158986198E+02  0.00000000000E+00 0. -1.
          4    1    6    6  503    0 -0.24956291190E+02 -0.29202002511E+02 -0.17563383813E+02  0.42237967180E+02  0.00000000000E+00 0. -1.
         -4    1    6    6    0  503 -0.31890391957E+03 -0.24825245114E+03  0.98378618331E+02  0.41594151266E+03  0.00000000000E+00 0.  1.
<mgrwt>
<rscale>  0 0.23043170E+04</rscale>
<asrwt>0</asrwt>
<pdfrwt beam="1">  1        2 0.20366548E+00 0.23043170E+04</pdfrwt>
<pdfrwt beam="2">  1       -1 0.15426960E+00 0.23043170E+04</pdfrwt>
<totfact> 0.53462796E+00</totfact>
</mgrwt>
</event>
<event>
12    7  0.1637954E-007  0.1806178E+04  0.7818608E-02  0.8703021E-01
          2   -1    0    0  501    0  0.00000000000E+00  0.00000000000E+00  0.16395569140E+04  0.16395569140E+04  0.00000000000E+00 0. -1.
         -1   -1    0    0    0  501 -0.00000000000E+00 -0.00000000000E+00 -0.49743282706E+03  0.49743282706E+03  0.00000000000E+00 0.  1.
         24    2    1    2    0    0  0.15276726857E+03  0.65339036123E+03  0.33353434895E+03  0.75242012291E+03  0.68074054785E+02 0.  0.
        254    2    1    2    0    0 -0.15276726857E+03 -0.65339036123E+03  0.80858973803E+03  0.13845696182E+04  0.90164231304E+03 0.  0.
         23    2    4    4    0    0 -0.48707697818E+02 -0.73893341282E+03  0.92205318276E+03  0.11861442726E+04  0.91439243619E+02 0.  0.
         23    2    4    4    0    0 -0.10405957076E+03  0.85543051585E+02 -0.11346344473E+03  0.19842534555E+03  0.91392869122E+02 0.  0.
          4    1    3    3  502    0  0.15529413825E+03  0.61850084181E+03  0.32764998534E+03  0.71694774815E+03  0.00000000000E+00 0. -1.
         -3    1    3    3    0  502 -0.25268696704E+01  0.34889519424E+02  0.58843636161E+01  0.35472374760E+02  0.00000000000E+00 0.  1.
         13    1    5    5    0    0 -0.76112927096E+02 -0.55631216668E+03  0.69406433333E+03  0.89274951878E+03  0.00000000000E+00 0. -1.
        -13    1    5    5    0    0  0.27405229278E+02 -0.18262124614E+03  0.22798884942E+03  0.29339475386E+03  0.00000000000E+00 0.  1.
          1    1    6    6  503    0 -0.50488218883E+02  0.66946081236E+02 -0.11424358871E+03  0.14171251038E+03  0.00000000000E+00 0. -1.
         -1    1    6    6    0  503 -0.53571351874E+02  0.18596970349E+02  0.78014398068E+00  0.56712835164E+02  0.00000000000E+00 0.  1.
<mgrwt>
<rscale>  0 0.18061777E+04</rscale>
<asrwt>0</asrwt>
<pdfrwt beam="1">  1        2 0.25223952E+00 0.18061777E+04</pdfrwt>
<pdfrwt beam="2">  1       -1 0.76528128E-01 0.18061777E+04</pdfrwt>
<totfact> 0.19522777E+01</totfact>
</mgrwt>
</event>
<event>
12    7  0.1637954E-007  0.1615360E+04  0.7818608E-02  0.8811167E-01
         -1   -1    0    0    0  501 -0.00000000000E+00  0.00000000000E+00  0.26851081736E+03  0.26851081736E+03  0.00000000000E+00 0.  1.
          2   -1    0    0  501    0  0.00000000000E+00 -0.00000000000E+00 -0.24294986571E+04  0.24294986571E+04  0.00000000000E+00 0. -1.
         24    2    1    2    0    0  0.22456222284E+03 -0.17253043146E+03 -0.15387748750E+04  0.15656492797E+04  0.56873628519E+02 0.  0.
        254    2    1    2    0    0 -0.22456222284E+03  0.17253043146E+03 -0.62221296479E+03  0.11323601947E+04  0.90271573342E+03 0.  0.
         23    2    4    4    0    0  0.28491102970E+03  0.26961751893E+03 -0.37526165384E+03  0.55060854757E+03  0.92089969314E+02 0.  0.
         23    2    4    4    0    0 -0.50947325253E+03 -0.97087087479E+02 -0.24695131095E+03  0.58175164717E+03  0.91984408488E+02 0.  0.
          4    1    3    3  502    0  0.15871302532E+03 -0.13914785137E+03 -0.12433748659E+04  0.12611633542E+04  0.00000000000E+00 0. -1.
         -3    1    3    3    0  502  0.65849197519E+02 -0.33382580090E+02 -0.29540000911E+03  0.30448592554E+03  0.00000000000E+00 0.  1.
         13    1    5    5    0    0  0.11672652480E+03  0.17114904046E+03 -0.17525446192E+03  0.27135069940E+03  0.00000000000E+00 0. -1.
        -13    1    5    5    0    0  0.16818450490E+03  0.98468478474E+02 -0.20000719193E+03  0.27925784817E+03  0.00000000000E+00 0.  1.
          3    1    6    6  503    0 -0.39453912196E+03 -0.10073189948E+03 -0.15964710201E+03  0.43737310332E+03  0.00000000000E+00 0. -1.
         -3    1    6    6    0  503 -0.11493413057E+03  0.36448120020E+01 -0.87304208939E+02  0.14437854385E+03  0.00000000000E+00 0.  1.
<mgrwt>
<rscale>  0 0.16153596E+04</rscale>
<asrwt>0</asrwt>
<pdfrwt beam="1">  1        2 0.37376903E+00 0.16153596E+04</pdfrwt>
<pdfrwt beam="2">  1       -1 0.41309356E-01 0.16153596E+04</pdfrwt>
<totfact> 0.23981536E+01</totfact>
</mgrwt>
</event>
<event>
12    7  0.1637954E-007  0.2804588E+04  0.7818608E-02  0.8301845E-01
         -1   -1    0    0    0  501 -0.00000000000E+00  0.00000000000E+00  0.84679262320E+03  0.84679262320E+03  0.00000000000E+00 0.  1.
          2   -1    0    0  501    0  0.00000000000E+00 -0.00000000000E+00 -0.23222082499E+04  0.23222082499E+04  0.00000000000E+00 0. -1.
         24    2    1    2    0    0 -0.24424435027E+03  0.12330439454E+04 -0.70634035715E+03  0.14440090509E+04  0.78694122135E+02 0.  0.
        254    2    1    2    0    0  0.24424435027E+03 -0.12330439454E+04 -0.76907526958E+03  0.17249918223E+04  0.89669802198E+03 0.  0.
         23    2    4    4    0    0 -0.11590979132E+03 -0.11468926055E+04 -0.50486927834E+03  0.12616794210E+04  0.90245470887E+02 0.  0.
         23    2    4    4    0    0  0.36015414159E+03 -0.86151339975E+02 -0.26420599124E+03  0.46331240126E+03  0.87866468416E+02 0.  0.
          4    1    3    3  502    0 -0.21533134610E+02  0.19244589628E+03 -0.13609943898E+03  0.23669000015E+03  0.00000000000E+00 0. -1.
         -3    1    3    3    0  502 -0.22271121566E+03  0.10405980491E+04 -0.57024091818E+03  0.12073190507E+04  0.00000000000E+00 0.  1.
         13    1    5    5    0    0 -0.10866737273E+03 -0.75811675461E+03 -0.36553868314E+03  0.84862720931E+03  0.00000000000E+00 0.  1.
        -13    1    5    5    0    0 -0.72424185896E+01 -0.38877585084E+03 -0.13933059520E+03  0.41305221169E+03  0.00000000000E+00 0. -1.
          4    1    6    6  503    0  0.13929762370E+03 -0.61468260464E+02 -0.67574197833E+02  0.16657865177E+03  0.00000000000E+00 0.  1.
         -4    1    6    6    0  503  0.22085651789E+03 -0.24683079511E+02 -0.19663179340E+03  0.29673374949E+03  0.00000000000E+00 0. -1.
<mgrwt>
<rscale>  0 0.28045883E+04</rscale>
<asrwt>0</asrwt>
<pdfrwt beam="1">  1        2 0.35726280E+00 0.28045883E+04</pdfrwt>
<pdfrwt beam="2">  1       -1 0.13027579E+00 0.28045883E+04</pdfrwt>
<totfact> 0.21967168E+00</totfact>
</mgrwt>
</event>
<event>
12    7  0.1637954E-007  0.2576723E+04  0.7818608E-02  0.8376151E-01
         -1   -1    0    0    0  501 -0.00000000000E+00  0.00000000000E+00  0.18460162701E+04  0.18460162701E+04  0.00000000000E+00 0.  1.
          2   -1    0    0  501    0  0.00000000000E+00 -0.00000000000E+00 -0.89916612985E+03  0.89916612985E+03  0.00000000000E+00 0. -1.
         24    2    1    2    0    0  0.28245621977E+03  0.70558388496E+03  0.13052570820E+04  0.15125011723E+04  0.79583988169E+02 0.  0.
        254    2    1    2    0    0 -0.28245621977E+03 -0.70558388496E+03 -0.35840694184E+03  0.12326812276E+04  0.90189652297E+03 0.  0.
         23    2    4    4    0    0 -0.18364969915E+03 -0.48878492242E+03  0.24034886598E+03  0.58202480482E+03  0.91364017333E+02 0.  0.
         23    2    4    4    0    0 -0.98806520627E+02 -0.21679896254E+03 -0.59875580782E+03  0.65065642279E+03  0.89892961049E+02 0.  0.
          2    1    3    3  502    0  0.55934926853E+02  0.21814735922E+03  0.42923581301E+03  0.48472710833E+03  0.00000000000E+00 0. -1.
         -1    1    3    3    0  502  0.22652129292E+03  0.48743652574E+03  0.87602126903E+03  0.10277740640E+04  0.00000000000E+00 0.  1.
         13    1    5    5    0    0 -0.10906853292E+03 -0.37334963281E+03  0.20698602208E+03  0.44060084717E+03  0.00000000000E+00 0.  1.
        -13    1    5    5    0    0 -0.74581166227E+02 -0.11543528961E+03  0.33362843903E+02  0.14142395765E+03  0.00000000000E+00 0. -1.
          4    1    6    6  503    0 -0.57082085949E+02 -0.15735082098E+03 -0.50526562359E+03  0.53226966453E+03  0.00000000000E+00 0.  1.
         -4    1    6    6    0  503 -0.41724434677E+02 -0.59448141560E+02 -0.93490184231E+02  0.11838675826E+03  0.00000000000E+00 0. -1.
<mgrwt>
<rscale>  0 0.25767230E+04</rscale>
<asrwt>0</asrwt>
<pdfrwt beam="1">  1        2 0.13833325E+00 0.25767230E+04</pdfrwt>
<pdfrwt beam="2">  1       -1 0.28400250E+00 0.25767230E+04</pdfrwt>
<totfact> 0.12440156E+00</totfact>
</mgrwt>
</event>
<event>
12    7  0.1992194E-007  0.1911275E+04  0.7818608E-02  0.8649264E-01
         -1   -1    0    0    0  501 -0.00000000000E+00  0.00000000000E+00  0.79211035787E+03  0.79211035787E+03  0.00000000000E+00 0.  1.
          2   -1    0    0  501    0  0.00000000000E+00 -0.00000000000E+00 -0.11529237549E+04  0.11529237549E+04  0.00000000000E+00 0. -1.
         24    2    1    2    0    0  0.26870260193E+03 -0.19856013050E+03  0.53506528878E+03  0.63581959181E+03  0.79652221368E+02 0.  0.
        254    2    1    2    0    0 -0.26870260193E+03  0.19856013050E+03 -0.89587868583E+03  0.13092145210E+04  0.89432478916E+03 0.  0.
         23    2    4    4    0    0  0.21082910676E+02  0.20269960902E+03  0.11848469267E+03  0.25028965371E+03  0.84111044104E+02 0.  0.
         23    2    4    4    0    0 -0.28978551261E+03 -0.41394785193E+01 -0.10143633785E+04  0.10589248673E+04  0.91629865624E+02 0.  0.
          4    1    3    3  502    0 -0.50496651799E+01 -0.37514912939E+01  0.42095429909E+01  0.75692177634E+01  0.00000000000E+00 0. -1.
         -3    1    3    3    0  502  0.27375226711E+03 -0.19480863920E+03  0.53085574579E+03  0.62825037405E+03  0.00000000000E+00 0.  1.
         13    1    5    5    0    0  0.57425583203E+01  0.11919294390E+03  0.21258897450E+02  0.12121004732E+03  0.00000000000E+00 0.  1.
        -13    1    5    5    0    0  0.15340352355E+02  0.83506665119E+02  0.97225795219E+02  0.12907960639E+03  0.00000000000E+00 0. -1.
          2    1    6    6  503    0 -0.98771446104E+02  0.33659741171E+02 -0.26852343319E+03  0.28808611719E+03  0.00000000000E+00 0. -1.
         -2    1    6    6    0  503 -0.19101406650E+03 -0.37799219691E+02 -0.74583994531E+03  0.77083875008E+03  0.00000000000E+00 0.  1.
<mgrwt>
<rscale>  0 0.19112748E+04</rscale>
<asrwt>0</asrwt>
<pdfrwt beam="1">  1        2 0.17737288E+00 0.19112748E+04</pdfrwt>
<pdfrwt beam="2">  1       -1 0.12186313E+00 0.19112748E+04</pdfrwt>
<totfact> 0.12861047E+01</totfact>
</mgrwt>
</event>
<event>
12    7  0.1637954E-007  0.2267481E+04  0.7818608E-02  0.8490854E-01
         -1   -1    0    0    0  501 -0.00000000000E+00  0.00000000000E+00  0.59015936522E+03  0.59015936522E+03  0.00000000000E+00 0.  1.
          2   -1    0    0  501    0  0.00000000000E+00 -0.00000000000E+00 -0.21780000771E+04  0.21780000771E+04  0.00000000000E+00 0. -1.
         24    2    1    2    0    0 -0.14720301392E+03 -0.49890770925E+03  0.30397764382E+03  0.60911501821E+03  0.89672001297E+02 0.  0.
        254    2    1    2    0    0  0.14720301392E+03  0.49890770925E+03 -0.18918183557E+04  0.21590444241E+04  0.90106520555E+03 0.  0.
         23    2    4    4    0    0  0.18608873823E+03  0.14648220221E+03 -0.17471381137E+04  0.17653838942E+04  0.89457541253E+02 0.  0.
         23    2    4    4    0    0 -0.38885724313E+02  0.35242550704E+03 -0.14468024200E+03  0.39366052986E+03  0.91216241831E+02 0.  0.
          4    1    3    3  502    0 -0.72532475891E+02 -0.13886796088E+03  0.12359275174E+03  0.19955059233E+03  0.00000000000E+00 0. -1.
         -3    1    3    3    0  502 -0.74670538026E+02 -0.36003974837E+03  0.18038489207E+03  0.40956442588E+03  0.00000000000E+00 0.  1.
         13    1    5    5    0    0  0.48607596348E+00  0.69722826885E+01 -0.72461124302E+01  0.10067529046E+02  0.00000000000E+00 0. -1.
        -13    1    5    5    0    0  0.18560266227E+03  0.13950991952E+03 -0.17398920013E+04  0.17553163652E+04  0.00000000000E+00 0.  1.
          3    1    6    6  503    0  0.44123988056E+01  0.46930111574E+01 -0.21145825941E+02  0.22105193319E+02  0.00000000000E+00 0. -1.
         -3    1    6    6    0  503 -0.43298123119E+02  0.34773249588E+03 -0.12353441606E+03  0.37155533654E+03  0.00000000000E+00 0.  1.
<mgrwt>
<rscale>  0 0.22674807E+04</rscale>
<asrwt>0</asrwt>
<pdfrwt beam="1">  1        2 0.33507694E+00 0.22674807E+04</pdfrwt>
<pdfrwt beam="2">  1       -1 0.90793747E-01 0.22674807E+04</pdfrwt>
<totfact> 0.65104647E+00</totfact>
</mgrwt>
</event>
<event>
12    7  0.1637954E-007  0.1180689E+04  0.7818608E-02  0.9129929E-01
         -1   -1    0    0    0  501 -0.00000000000E+00  0.00000000000E+00  0.17873075094E+03  0.17873075094E+03  0.00000000000E+00 0.  1.
          2   -1    0    0  501    0  0.00000000000E+00 -0.00000000000E+00 -0.19498990284E+04  0.19498990284E+04  0.00000000000E+00 0. -1.
         24    2    1    2    0    0  0.12973437410E+03 -0.12450071111E+03 -0.89947066224E+03  0.92050659974E+03  0.77158881878E+02 0.  0.
        254    2    1    2    0    0 -0.12973437410E+03  0.12450071111E+03 -0.87169761518E+03  0.12081231795E+04  0.81692928076E+03 0.  0.
         23    2    4    4    0    0  0.24734054028E+03 -0.12964394600E+03 -0.10568247207E+03  0.31250095738E+03  0.92212623109E+02 0.  0.
         23    2    4    4    0    0 -0.37707491438E+03  0.25414465710E+03 -0.76601514311E+03  0.89562222217E+03  0.92655100154E+02 0.  0.
          2    1    3    3  502    0  0.12005046442E+03 -0.13545382928E+03 -0.83744131606E+03  0.85677757423E+03  0.00000000000E+00 0. -1.
         -1    1    3    3    0  502  0.96839096764E+01  0.10953118172E+02 -0.62029346183E+02  0.63729025508E+02  0.00000000000E+00 0.  1.
         13    1    5    5    0    0  0.21253873343E+03 -0.14359060656E+03 -0.94879716765E+02  0.27348333798E+03  0.00000000000E+00 0.  1.
        -13    1    5    5    0    0  0.34801806847E+02  0.13946660569E+02 -0.10802755300E+02  0.39017619391E+02  0.00000000000E+00 0. -1.
          1    1    6    6  503    0 -0.13806560431E+01  0.12095531390E+02 -0.51662207346E+01  0.13224898011E+02  0.00000000000E+00 0. -1.
         -1    1    6    6    0  503 -0.37569425833E+03  0.24204912571E+03 -0.76084892238E+03  0.88239732416E+03  0.00000000000E+00 0.  1.
<mgrwt>
<rscale>  0 0.11806895E+04</rscale>
<asrwt>0</asrwt>
<pdfrwt beam="1">  1        2 0.29998446E+00 0.11806895E+04</pdfrwt>
<pdfrwt beam="2">  1       -1 0.27497039E-01 0.11806895E+04</pdfrwt>
<totfact> 0.95379116E+01</totfact>
</mgrwt>
</event>
<event>
12    7  0.1637954E-007  0.1555666E+04  0.7818608E-02  0.8848257E-01
         -1   -1    0    0    0  501 -0.00000000000E+00  0.00000000000E+00  0.46912642185E+03  0.46912642185E+03  0.00000000000E+00 0.  1.
          2   -1    0    0  501    0  0.00000000000E+00 -0.00000000000E+00 -0.12896823494E+04  0.12896823494E+04  0.00000000000E+00 0. -1.
         24    2    1    2    0    0 -0.50577276522E+02 -0.15274175897E+03 -0.78240106791E+03  0.80236422741E+03  0.75820950442E+02 0.  0.
        254    2    1    2    0    0  0.50577276522E+02  0.15274175897E+03 -0.38154859662E+02  0.95644454386E+03  0.94204154172E+03 0.  0.
         23    2    4    4    0    0  0.22007714692E+02  0.13180308256E+03  0.44029187013E+03  0.46816177414E+03  0.86383585157E+02 0.  0.
         23    2    4    4    0    0  0.28569561830E+02  0.20938676406E+02 -0.47844672980E+03  0.48828276972E+03  0.90852308263E+02 0.  0.
          2    1    3    3  502    0 -0.13725282924E+02 -0.10809719972E+03 -0.62970073478E+03  0.63905899834E+03  0.00000000000E+00 0. -1.
         -1    1    3    3    0  502 -0.36851993598E+02 -0.44644559255E+02 -0.15270033313E+03  0.16330522907E+03  0.00000000000E+00 0.  1.
         13    1    5    5    0    0 -0.64400898880E+01  0.40322899201E+02  0.42267268162E+02  0.58770170288E+02  0.00000000000E+00 0.  1.
        -13    1    5    5    0    0  0.28447804580E+02  0.91480183364E+02  0.39802460197E+03  0.40939160386E+03  0.00000000000E+00 0. -1.
          2    1    6    6  503    0  0.17803991800E+02 -0.18014920768E+02 -0.39241475371E+03  0.39323130397E+03  0.00000000000E+00 0. -1.
         -2    1    6    6    0  503  0.10765570030E+02  0.38953597175E+02 -0.86031976088E+02  0.95051465747E+02  0.00000000000E+00 0.  1.
<mgrwt>
<rscale>  0 0.15556659E+04</rscale>
<asrwt>0</asrwt>
<pdfrwt beam="1">  1        2 0.19841267E+00 0.15556659E+04</pdfrwt>
<pdfrwt beam="2">  1       -1 0.72173296E-01 0.15556659E+04</pdfrwt>
<totfact> 0.35615516E+01</totfact>
</mgrwt>
</event>
<event>
12    7  0.1637954E-007  0.1085338E+04  0.7818608E-02  0.9219601E-01
          2   -1    0    0  501    0  0.00000000000E+00  0.00000000000E+00  0.15135048883E+04  0.15135048883E+04  0.00000000000E+00 0. -1.
         -1   -1    0    0    0  501 -0.00000000000E+00 -0.00000000000E+00 -0.19457467872E+03  0.19457467872E+03  0.00000000000E+00 0.  1.
         24    2    1    2    0    0 -0.90687813135E+02 -0.51775965281E+02  0.26578335267E+02  0.13433726199E+03  0.80218838323E+02 0.  0.
        254    2    1    2    0    0  0.90687813135E+02  0.51775965281E+02  0.12923518743E+04  0.15737423051E+04  0.89195652674E+03 0.  0.
         23    2    4    4    0    0  0.39830384513E+02  0.37470528260E+03  0.21217081304E+03  0.44157264353E+03  0.89327696007E+02 0.  0.
         23    2    4    4    0    0  0.50857428622E+02 -0.32292931732E+03  0.10801810613E+04  0.11321696615E+04  0.90261815111E+02 0.  0.
          4    1    3    3  502    0 -0.12679067844E+02  0.14613166628E+01 -0.24015080466E+02  0.27195924282E+02  0.00000000000E+00 0. -1.
         -3    1    3    3    0  502 -0.78008745291E+02 -0.53237281944E+02  0.50593415733E+02  0.10714133771E+03  0.00000000000E+00 0.  1.
         13    1    5    5    0    0  0.19400754457E+02  0.23344828941E+03  0.17959404952E+03  0.29517539824E+03  0.00000000000E+00 0.  1.
        -13    1    5    5    0    0  0.20429630056E+02  0.14125699318E+03  0.32576763518E+02  0.14639724529E+03  0.00000000000E+00 0. -1.
          3    1    6    6  503    0  0.76425873132E+02 -0.24436390079E+03  0.84184405474E+03  0.87991820222E+03  0.00000000000E+00 0. -1.
         -3    1    6    6    0  503 -0.25568444510E+02 -0.78565416527E+02  0.23833700656E+03  0.25225145931E+03  0.00000000000E+00 0.  1.
<mgrwt>
<rscale>  0 0.10853382E+04</rscale>
<asrwt>0</asrwt>
<pdfrwt beam="1">  1        2 0.23284690E+00 0.10853382E+04</pdfrwt>
<pdfrwt beam="2">  1       -1 0.29934567E-01 0.10853382E+04</pdfrwt>
<totfact> 0.14454932E+02</totfact>
</mgrwt>
</event>
<event>
12    7  0.1637954E-007  0.2256684E+04  0.7818608E-02  0.8495199E-01
          2   -1    0    0  501    0  0.00000000000E+00  0.00000000000E+00  0.15684927705E+04  0.15684927705E+04  0.00000000000E+00 0. -1.
         -1   -1    0    0    0  501 -0.00000000000E+00 -0.00000000000E+00 -0.81170627369E+03  0.81170627369E+03  0.00000000000E+00 0.  1.
         24    2    1    2    0    0  0.32384524223E+03  0.88278756099E+03  0.43171765622E+03  0.10378102364E+04  0.80500517344E+02 0.  0.
        254    2    1    2    0    0 -0.32384524223E+03 -0.88278756099E+03  0.32506884058E+03  0.13423888078E+04  0.90119273266E+03 0.  0.
         23    2    4    4    0    0 -0.50294692768E+03 -0.23981095389E+03  0.35719295852E+03  0.66807030432E+03  0.90918734161E+02 0.  0.
         23    2    4    4    0    0  0.17910168546E+03 -0.64297660710E+03 -0.32124117946E+02  0.67431850347E+03  0.90427618316E+02 0.  0.
          4    1    3    3  502    0  0.18795724582E+03  0.62065766221E+03  0.29594968863E+03  0.71283243341E+03  0.00000000000E+00 0. -1.
         -3    1    3    3    0  502  0.13588799641E+03  0.26212989878E+03  0.13576796759E+03  0.32497780297E+03  0.00000000000E+00 0.  1.
         13    1    5    5    0    0 -0.41260888922E+03 -0.23287655174E+03  0.30576935865E+03  0.56389048981E+03  0.00000000000E+00 0. -1.
        -13    1    5    5    0    0 -0.90338038462E+02 -0.69344021556E+01  0.51423599875E+02  0.10417981451E+03  0.00000000000E+00 0.  1.
          4    1    6    6  503    0  0.18794934615E+03 -0.61592636412E+03 -0.38636474236E+02  0.64512248440E+03  0.00000000000E+00 0. -1.
         -4    1    6    6    0  503 -0.88476606930E+01 -0.27050242977E+02  0.65123562896E+01  0.29196019066E+02  0.00000000000E+00 0.  1.
<mgrwt>
<rscale>  0 0.22566838E+04</rscale>
<asrwt>0</asrwt>
<pdfrwt beam="1">  1        2 0.24130658E+00 0.22566838E+04</pdfrwt>
<pdfrwt beam="2">  1       -1 0.12487789E+00 0.22566838E+04</pdfrwt>
<totfact> 0.67525117E+00</totfact>
</mgrwt>
</event>
<event>
12    7  0.1637954E-007  0.1928313E+04  0.7818608E-02  0.8640890E-01
         -1   -1    0    0    0  501 -0.00000000000E+00  0.00000000000E+00  0.75198168336E+03  0.75198168336E+03  0.00000000000E+00 0.  1.
          2   -1    0    0  501    0  0.00000000000E+00 -0.00000000000E+00 -0.12361977008E+04  0.12361977008E+04  0.00000000000E+00 0. -1.
         24    2    1    2    0    0 -0.18089888367E+03 -0.65300053703E+03  0.15428435867E+03  0.69935858294E+03  0.78515327961E+02 0.  0.
        254    2    1    2    0    0  0.18089888367E+03  0.65300053703E+03 -0.63850037610E+03  0.12888208012E+04  0.89120268172E+03 0.  0.
         23    2    4    4    0    0 -0.18531427596E+03 -0.13347732336E+03 -0.11379565582E+03  0.27065465912E+03  0.90260270845E+02 0.  0.
         23    2    4    4    0    0  0.36621315962E+03  0.78647786040E+03 -0.52470472029E+03  0.10181661421E+04  0.93208080498E+02 0.  0.
          4    1    3    3  502    0 -0.29779239880E+02 -0.35734755474E+02  0.72860479731E+01  0.47083567958E+02  0.00000000000E+00 0. -1.
         -3    1    3    3    0  502 -0.15111964379E+03 -0.61726578156E+03  0.14699831069E+03  0.65227501498E+03  0.00000000000E+00 0.  1.
         13    1    5    5    0    0 -0.22851730986E+02 -0.37066516435E+02 -0.60173389615E+02  0.74276275267E+02  0.00000000000E+00 0. -1.
        -13    1    5    5    0    0 -0.16246254497E+03 -0.96410806929E+02 -0.53622266202E+02  0.19637838385E+03  0.00000000000E+00 0.  1.
          2    1    6    6  503    0  0.18395271035E+03  0.48399798762E+03 -0.34228777527E+03  0.62068798342E+03  0.00000000000E+00 0. -1.
         -2    1    6    6    0  503  0.18226044927E+03  0.30247987277E+03 -0.18241694502E+03  0.39747815868E+03  0.00000000000E+00 0.  1.
<mgrwt>
<rscale>  0 0.19283133E+04</rscale>
<asrwt>0</asrwt>
<pdfrwt beam="1">  1        2 0.19018426E+00 0.19283133E+04</pdfrwt>
<pdfrwt beam="2">  1       -1 0.11568949E+00 0.19283133E+04</pdfrwt>
<totfact> 0.12992944E+01</totfact>
</mgrwt>
</event>
<event>
12    7  0.1637954E-007  0.1798896E+04  0.7818608E-02  0.8706887E-01
          4   -1    0    0  501    0  0.00000000000E+00  0.00000000000E+00  0.10690753158E+04  0.10690753158E+04  0.00000000000E+00 0. -1.
         -3   -1    0    0    0  501 -0.00000000000E+00 -0.00000000000E+00 -0.75673532330E+03  0.75673532330E+03  0.00000000000E+00 0.  1.
         24    2    1    2    0    0  0.16955827163E+03  0.63524665802E+03  0.17953889630E+03  0.68629189602E+03  0.80461340116E+02 0.  0.
        254    2    1    2    0    0 -0.16955827163E+03 -0.63524665802E+03  0.13280109624E+03  0.11395187431E+04  0.92118321238E+03 0.  0.
         23    2    4    4    0    0 -0.55499649424E+02 -0.36646553008E+03 -0.38128484799E+03  0.53990119712E+03  0.93477117648E+02 0.  0.
         23    2    4    4    0    0 -0.11405862221E+03 -0.26878112795E+03  0.51408594424E+03  0.59961754601E+03  0.10002089473E+03 0.  0.
          2    1    3    3  502    0  0.31156317967E+02  0.11869826827E+03  0.66972136600E+02  0.13980437089E+03  0.00000000000E+00 0. -1.
         -1    1    3    3    0  502  0.13840195367E+03  0.51654838975E+03  0.11256675970E+03  0.54648752513E+03  0.00000000000E+00 0.  1.
         13    1    5    5    0    0 -0.57885187664E+02 -0.13191427624E+03 -0.18199568992E+03  0.23210881581E+03  0.00000000000E+00 0.  1.
        -13    1    5    5    0    0  0.23855382392E+01 -0.23455125383E+03 -0.19928915807E+03  0.30779238131E+03  0.00000000000E+00 0. -1.
          2    1    6    6  503    0 -0.47942349938E+02 -0.24401190975E+02  0.11572368275E+03  0.12761605615E+03  0.00000000000E+00 0. -1.
         -2    1    6    6    0  503 -0.66116272272E+02 -0.24437993697E+03  0.39836226149E+03  0.47200148986E+03  0.00000000000E+00 0.  1.
<mgrwt>
<rscale>  0 0.17988964E+04</rscale>
<asrwt>0</asrwt>
<pdfrwt beam="1">  1        4 0.16447313E+00 0.17988964E+04</pdfrwt>
<pdfrwt beam="2">  1       -3 0.11642082E+00 0.17988964E+04</pdfrwt>
<totfact> 0.30452874E-01</totfact>
</mgrwt>
</event>
<event>
12    7  0.1637954E-007  0.1658210E+04  0.7818608E-02  0.8785565E-01
          2   -1    0    0  501    0  0.00000000000E+00  0.00000000000E+00  0.17637236360E+04  0.17637236360E+04  0.00000000000E+00 0. -1.
         -1   -1    0    0    0  501 -0.00000000000E+00 -0.00000000000E+00 -0.38975197330E+03  0.38975197330E+03  0.00000000000E+00 0.  1.
         24    2    1    2    0    0  0.69123141751E+02  0.35349406245E+03 -0.11035775102E+03  0.38481456470E+03  0.78532509688E+02 0.  0.
        254    2    1    2    0    0 -0.69123141751E+02 -0.35349406245E+03  0.14843294137E+04  0.17686610446E+04  0.89173539876E+03 0.  0.
         23    2    4    4    0    0  0.20401657932E+03 -0.17270211420E+03  0.13867652986E+04  0.14152060391E+04  0.90781907971E+02 0.  0.
         23    2    4    4    0    0 -0.27313972107E+03 -0.18079194826E+03  0.97564115152E+02  0.35345500555E+03  0.90114641436E+02 0.  0.
          4    1    3    3  502    0  0.94481188637E+01  0.66932388308E+02 -0.54484627295E+02  0.86820424822E+02  0.00000000000E+00 0. -1.
         -3    1    3    3    0  502  0.59675022887E+02  0.28656167414E+03 -0.55873123721E+02  0.29799413987E+03  0.00000000000E+00 0.  1.
         13    1    5    5    0    0  0.50910571061E+02 -0.88295395905E+02  0.65260168448E+03  0.66051262045E+03  0.00000000000E+00 0. -1.
        -13    1    5    5    0    0  0.15310600826E+03 -0.84406718291E+02  0.73416361409E+03  0.75469341862E+03  0.00000000000E+00 0.  1.
          3    1    6    6  503    0 -0.22945503152E+02  0.88989521701E+00 -0.11372752567E+02  0.25624744474E+02  0.00000000000E+00 0. -1.
         -3    1    6    6    0  503 -0.25019421792E+03 -0.18168184347E+03  0.10893686772E+03  0.32783026108E+03  0.00000000000E+00 0.  1.
<mgrwt>
<rscale>  0 0.16582096E+04</rscale>
<asrwt>0</asrwt>
<pdfrwt beam="1">  1        2 0.27134209E+00 0.16582096E+04</pdfrwt>
<pdfrwt beam="2">  1       -1 0.59961843E-01 0.16582096E+04</pdfrwt>
<totfact> 0.27718040E+01</totfact>
</mgrwt>
</event>
<event>
12    7  0.1637954E-007  0.2265582E+04  0.7818608E-02  0.8491616E-01
         -1   -1    0    0    0  501 -0.00000000000E+00  0.00000000000E+00  0.64721624500E+03  0.64721624500E+03  0.00000000000E+00 0.  1.
          2   -1    0    0  501    0  0.00000000000E+00 -0.00000000000E+00 -0.19826693382E+04  0.19826693382E+04  0.00000000000E+00 0. -1.
         24    2    1    2    0    0 -0.86732907319E+03  0.35894099930E+03 -0.75899887465E+03  0.12098468062E+04  0.80942205860E+02 0.  0.
        254    2    1    2    0    0  0.86732907319E+03 -0.35894099930E+03 -0.57645421858E+03  0.14200387770E+04  0.89616533062E+03 0.  0.
         23    2    4    4    0    0 -0.26232675229E+02 -0.34245918054E+03 -0.33701964049E+03  0.49020109184E+03  0.93533035787E+02 0.  0.
         23    2    4    4    0    0  0.89356174842E+03 -0.16481818763E+02 -0.23943457809E+03  0.92983768513E+03  0.92438925318E+02 0.  0.
          2    1    3    3  502    0 -0.72420974945E+03  0.26652704718E+03 -0.62819782237E+03  0.99506227549E+03  0.00000000000E+00 0. -1.
         -1    1    3    3    0  502 -0.14311932375E+03  0.92413952126E+02 -0.13080105228E+03  0.21478453076E+03  0.00000000000E+00 0.  1.
         13    1    5    5    0    0 -0.11870526602E+02 -0.19372739425E+03 -0.25267658936E+03  0.31861680981E+03  0.00000000000E+00 0. -1.
        -13    1    5    5    0    0 -0.14362148627E+02 -0.14873178629E+03 -0.84343051128E+02  0.17158428203E+03  0.00000000000E+00 0.  1.
          3    1    6    6  503    0  0.53246051419E+03 -0.85930254006E+01 -0.95489142258E+02  0.54102330407E+03  0.00000000000E+00 0. -1.
         -3    1    6    6    0  503  0.36110123423E+03 -0.78887933622E+01 -0.14394543583E+03  0.38881438106E+03  0.00000000000E+00 0.  1.
<mgrwt>
<rscale>  0 0.22655823E+04</rscale>
<asrwt>0</asrwt>
<pdfrwt beam="1">  1        2 0.30502605E+00 0.22655823E+04</pdfrwt>
<pdfrwt beam="2">  1       -1 0.99571730E-01 0.22655823E+04</pdfrwt>
<totfact> 0.68035679E+00</totfact>
</mgrwt>
</event>
<event>
12    7  0.1637954E-007  0.4344660E+04  0.7818608E-02  0.7938411E-01
          2   -1    0    0  501    0  0.00000000000E+00  0.00000000000E+00  0.22934336679E+04  0.22934336679E+04  0.00000000000E+00 0. -1.
         -1   -1    0    0    0  501 -0.00000000000E+00 -0.00000000000E+00 -0.20576214789E+04  0.20576214789E+04  0.00000000000E+00 0.  1.
         24    2    1    2    0    0  0.38525820066E+03 -0.61003163379E+03 -0.18437503762E+04  0.19814641352E+04  0.78880885257E+02 0.  0.
        254    2    1    2    0    0 -0.38525820066E+03  0.61003163379E+03  0.20795625652E+04  0.23695910116E+04  0.87739308436E+03 0.  0.
         23    2    4    4    0    0 -0.44127612764E+03 -0.11971124220E+02  0.12366193368E+04  0.13164909809E+04  0.95148253954E+02 0.  0.
         23    2    4    4    0    0  0.56017926981E+02  0.62200275801E+03  0.84294322843E+03  0.10531000307E+04  0.91874638285E+02 0.  0.
          2    1    3    3  502    0  0.15800527987E+02 -0.63396066612E+02 -0.14287782400E+03  0.15710757632E+03  0.00000000000E+00 0. -1.
         -1    1    3    3    0  502  0.36945767268E+03 -0.54663556718E+03 -0.17008725522E+04  0.18243565589E+04  0.00000000000E+00 0.  1.
         13    1    5    5    0    0 -0.13199321350E+03  0.38878396615E+02  0.34816609269E+03  0.37437062683E+03  0.00000000000E+00 0. -1.
        -13    1    5    5    0    0 -0.30928291414E+03 -0.50849520834E+02  0.88845324406E+03  0.94212035411E+03  0.00000000000E+00 0.  1.
          1    1    6    6  503    0  0.15734970899E+02  0.32154950386E+02  0.24214417294E+02  0.43218840202E+02  0.00000000000E+00 0. -1.
         -1    1    6    6    0  503  0.40282956083E+02  0.58984780762E+03  0.81872881114E+03  0.10098811905E+04  0.00000000000E+00 0.  1.
<mgrwt>
<rscale>  0 0.43446603E+04</rscale>
<asrwt>0</asrwt>
<pdfrwt beam="1">  1        2 0.35283595E+00 0.43446603E+04</pdfrwt>
<pdfrwt beam="2">  1       -1 0.31655715E+00 0.43446603E+04</pdfrwt>
<totfact> 0.10284977E-01</totfact>
</mgrwt>
</event>
<event>
12    7  0.1637954E-007  0.2172554E+04  0.7818608E-02  0.8529939E-01
         -1   -1    0    0    0  501 -0.00000000000E+00  0.00000000000E+00  0.12281112166E+04  0.12281112166E+04  0.00000000000E+00 0.  1.
          2   -1    0    0  501    0  0.00000000000E+00 -0.00000000000E+00 -0.96082354485E+03  0.96082354485E+03  0.00000000000E+00 0. -1.
         24    2    1    2    0    0  0.55533808395E+03 -0.48034043061E+03  0.64899588108E+03  0.98319644622E+03  0.79701200952E+02 0.  0.
        254    2    1    2    0    0 -0.55533808395E+03  0.48034043061E+03 -0.38170820936E+03  0.12057383152E+04  0.87691300073E+03 0.  0.
         23    2    4    4    0    0 -0.15385678027E+02 -0.11703778657E+03 -0.36569529504E+03  0.39524811275E+03  0.92484913583E+02 0.  0.
         23    2    4    4    0    0 -0.53995240592E+03  0.59737821718E+03 -0.16012914320E+02  0.81049020244E+03  0.90711740180E+02 0.  0.
          2    1    3    3  502    0  0.20583051971E+03 -0.15040247707E+03  0.18358131103E+03  0.31414838168E+03  0.00000000000E+00 0. -1.
         -1    1    3    3    0  502  0.34950756424E+03 -0.32993795354E+03  0.46541457005E+03  0.66904806454E+03  0.00000000000E+00 0.  1.
         13    1    5    5    0    0  0.36653026170E+01 -0.14067904502E+02 -0.19113622302E+03  0.19168827854E+03  0.00000000000E+00 0.  1.
        -13    1    5    5    0    0 -0.19050980644E+02 -0.10296988206E+03 -0.17455907203E+03  0.20355983421E+03  0.00000000000E+00 0. -1.
          2    1    6    6  503    0 -0.40018486516E+03  0.47253367740E+03 -0.45001315725E+02  0.62085515299E+03  0.00000000000E+00 0. -1.
         -2    1    6    6    0  503 -0.13976754077E+03  0.12484453979E+03  0.28988401405E+02  0.18963504946E+03  0.00000000000E+00 0.  1.
<mgrwt>
<rscale>  0 0.21725544E+04</rscale>
<asrwt>0</asrwt>
<pdfrwt beam="1">  1        2 0.14781901E+00 0.21725544E+04</pdfrwt>
<pdfrwt beam="2">  1       -1 0.18894019E+00 0.21725544E+04</pdfrwt>
<totfact> 0.50165013E+00</totfact>
</mgrwt>
</event>
<event>
12    7  0.1637954E-007  0.1575434E+04  0.7818608E-02  0.8835784E-01
          2   -1    0    0  501    0  0.00000000000E+00  0.00000000000E+00  0.11747408071E+04  0.11747408071E+04  0.00000000000E+00 0. -1.
         -1   -1    0    0    0  501 -0.00000000000E+00 -0.00000000000E+00 -0.52819975566E+03  0.52819975566E+03  0.00000000000E+00 0.  1.
         24    2    1    2    0    0 -0.14240021542E+03  0.19732645140E+03  0.66858536949E+03  0.71603595301E+03  0.80532850029E+02 0.  0.
        254    2    1    2    0    0  0.14240021542E+03 -0.19732645140E+03 -0.22044318056E+02  0.98690460974E+03  0.95617948472E+03 0.  0.
         23    2    4    4    0    0  0.30622099163E+03 -0.31687431969E+03  0.33881096900E+03  0.56307625923E+03  0.89896444892E+02 0.  0.
         23    2    4    4    0    0 -0.16382077621E+03  0.11954786829E+03 -0.36085528705E+03  0.42382835051E+03  0.91021936775E+02 0.  0.
          2    1    3    3  502    0 -0.31995070544E+02  0.11201997365E+03  0.32155581791E+03  0.34200921489E+03  0.00000000000E+00 0. -1.
         -1    1    3    3    0  502 -0.11040514488E+03  0.85306477745E+02  0.34702955158E+03  0.37402673812E+03  0.00000000000E+00 0.  1.
         13    1    5    5    0    0  0.10953297463E+03 -0.17159748703E+03  0.13014191971E+03  0.24161972054E+03  0.00000000000E+00 0.  1.
        -13    1    5    5    0    0  0.19668801700E+03 -0.14527683266E+03  0.20866904929E+03  0.32145653870E+03  0.00000000000E+00 0. -1.
          3    1    6    6  503    0 -0.15043196651E+03  0.71871405551E+02 -0.23123037900E+03  0.28506624433E+03  0.00000000000E+00 0. -1.
         -3    1    6    6    0  503 -0.13388809698E+02  0.47676462743E+02 -0.12962490806E+03  0.13876210619E+03  0.00000000000E+00 0.  1.
<mgrwt>
<rscale>  0 0.15754337E+04</rscale>
<asrwt>0</asrwt>
<pdfrwt beam="1">  1        2 0.18072935E+00 0.15754337E+04</pdfrwt>
<pdfrwt beam="2">  1       -1 0.81261501E-01 0.15754337E+04</pdfrwt>
<totfact> 0.32421702E+01</totfact>
</mgrwt>
</event>
<event>
12    7  0.1637954E-007  0.4582443E+04  0.7818608E-02  0.7896360E-01
          2   -1    0    0  501    0  0.00000000000E+00  0.00000000000E+00  0.30937292516E+04  0.30937292516E+04  0.00000000000E+00 0. -1.
         -1   -1    0    0    0  501 -0.00000000000E+00 -0.00000000000E+00 -0.16968827049E+04  0.16968827049E+04  0.00000000000E+00 0.  1.
         24    2    1    2    0    0 -0.21114773793E+04 -0.16576319102E+03  0.37900457452E+02  0.21199031571E+04  0.82090144998E+02 0.  0.
        254    2    1    2    0    0  0.21114773793E+04  0.16576319102E+03  0.13589460893E+04  0.26707087994E+04  0.89450369411E+03 0.  0.
         23    2    4    4    0    0  0.20445033473E+04  0.35100851680E+03  0.11736421626E+04  0.23852306691E+04  0.93212140481E+02 0.  0.
         23    2    4    4    0    0  0.66974032017E+02 -0.18524532578E+03  0.18530392670E+03  0.28547813028E+03  0.91426833766E+02 0.  0.
          2    1    3    3  502    0 -0.11825930750E+04 -0.63097549248E+02  0.49152268957E+02  0.11852947428E+04  0.00000000000E+00 0. -1.
         -1    1    3    3    0  502 -0.92888430431E+03 -0.10266564177E+03 -0.11251811505E+02  0.93460841428E+03  0.00000000000E+00 0.  1.
         13    1    5    5    0    0  0.10189807107E+04  0.21211509707E+03  0.62158925124E+03  0.12123067683E+04  0.00000000000E+00 0. -1.
        -13    1    5    5    0    0  0.10255226365E+04  0.13889341973E+03  0.55205291137E+03  0.11729239008E+04  0.00000000000E+00 0.  1.
          3    1    6    6  503    0  0.68546373645E+02 -0.17367873115E+03  0.12651484840E+03  0.22554137948E+03  0.00000000000E+00 0. -1.
         -3    1    6    6    0  503 -0.15723416286E+01 -0.11566594635E+02  0.58789078299E+02  0.59936750803E+02  0.00000000000E+00 0.  1.
<mgrwt>
<rscale>  0 0.45824429E+04</rscale>
<asrwt>0</asrwt>
<pdfrwt beam="1">  1        2 0.47595834E+00 0.45824429E+04</pdfrwt>
<pdfrwt beam="2">  1       -1 0.26105888E+00 0.45824429E+04</pdfrwt>
<totfact> 0.76638639E-02</totfact>
</mgrwt>
</event>
<event>
12    7  0.1637954E-007  0.2551239E+04  0.7818608E-02  0.8384956E-01
          2   -1    0    0  501    0  0.00000000000E+00  0.00000000000E+00  0.30918763700E+04  0.30918763700E+04  0.00000000000E+00 0. -1.
         -1   -1    0    0    0  501 -0.00000000000E+00 -0.00000000000E+00 -0.52628382877E+03  0.52628382877E+03  0.00000000000E+00 0.  1.
         24    2    1    2    0    0 -0.17732914948E+03  0.91967130028E+03  0.25518165271E+03  0.97406198360E+03  0.80238047020E+02 0.  0.
        254    2    1    2    0    0  0.17732914948E+03 -0.91967130028E+03  0.23104108885E+04  0.26440982152E+04  0.88091768618E+03 0.  0.
         23    2    4    4    0    0  0.19872141080E+03 -0.27981815739E+03  0.14306285679E+03  0.38221917823E+03  0.88521855501E+02 0.  0.
         23    2    4    4    0    0 -0.21392261324E+02 -0.63985314290E+03  0.21673480317E+04  0.22618790369E+04  0.93966024454E+02 0.  0.
          4    1    3    3  502    0 -0.62765013497E+02  0.19055268784E+03  0.76191028553E+02  0.21460392959E+03  0.00000000000E+00 0. -1.
         -3    1    3    3    0  502 -0.11456413598E+03  0.72911861244E+03  0.17899062416E+03  0.75945805401E+03  0.00000000000E+00 0.  1.
         13    1    5    5    0    0  0.44202510286E+02 -0.10636818542E+03  0.83914354522E+02  0.14251200539E+03  0.00000000000E+00 0. -1.
        -13    1    5    5    0    0  0.15451890051E+03 -0.17344997197E+03  0.59148502264E+02  0.23970717284E+03  0.00000000000E+00 0.  1.
          1    1    6    6  503    0 -0.52157177060E+02 -0.43873868611E+03  0.15598888522E+04  0.16212542172E+04  0.00000000000E+00 0. -1.
         -1    1    6    6    0  503  0.30764915736E+02 -0.20111445679E+03  0.60745917956E+03  0.64062481969E+03  0.00000000000E+00 0.  1.
<mgrwt>
<rscale>  0 0.25512385E+04</rscale>
<asrwt>0</asrwt>
<pdfrwt beam="1">  1        2 0.47567328E+00 0.25512385E+04</pdfrwt>
<pdfrwt beam="2">  1       -1 0.80966745E-01 0.25512385E+04</pdfrwt>
<totfact> 0.23387057E+00</totfact>
</mgrwt>
</event>
<event>
12    7  0.1637954E-007  0.5925464E+04  0.7818608E-02  0.7699713E-01
          2   -1    0    0  501    0  0.00000000000E+00  0.00000000000E+00  0.39033755368E+04  0.39033755368E+04  0.00000000000E+00 0. -1.
         -1   -1    0    0    0  501 -0.00000000000E+00 -0.00000000000E+00 -0.22487668024E+04  0.22487668024E+04  0.00000000000E+00 0.  1.
         24    2    1    2    0    0  0.63498487740E+03 -0.23168274303E+04  0.24763427976E+04  0.34510230054E+04  0.79943704606E+02 0.  0.
        254    2    1    2    0    0 -0.63498487740E+03  0.23168274303E+04 -0.82173406319E+03  0.27011193338E+04  0.92190219031E+03 0.  0.
         23    2    4    4    0    0 -0.73332083248E+03  0.14301452563E+04 -0.81450775447E+03  0.18041305394E+04  0.91592705043E+02 0.  0.
         23    2    4    4    0    0  0.98335955084E+02  0.88668217402E+03 -0.72263087236E+01  0.89698879442E+03  0.93066857665E+02 0.  0.
          4    1    3    3  502    0  0.51021096492E+03 -0.19319162059E+04  0.20924235470E+04  0.28932424294E+04  0.00000000000E+00 0. -1.
         -3    1    3    3    0  502  0.12477391248E+03 -0.38491122445E+03  0.38391925062E+03  0.55778057598E+03  0.00000000000E+00 0.  1.
         13    1    5    5    0    0 -0.23119682275E+03  0.51677966349E+03 -0.25128819073E+03  0.61940208770E+03  0.00000000000E+00 0. -1.
        -13    1    5    5    0    0 -0.50212400973E+03  0.91336559284E+03 -0.56321956374E+03  0.11847284517E+04  0.00000000000E+00 0.  1.
          2    1    6    6  503    0  0.23519584218E+02  0.54872444575E+03 -0.30440633031E+02  0.55007119571E+03  0.00000000000E+00 0.  1.
         -2    1    6    6    0  503  0.74816370866E+02  0.33795772827E+03  0.23214324307E+02  0.34691759872E+03  0.00000000000E+00 0. -1.
<mgrwt>
<rscale>  0 0.59254641E+04</rscale>
<asrwt>0</asrwt>
<pdfrwt beam="1">  1        2 0.60051931E+00 0.59254641E+04</pdfrwt>
<pdfrwt beam="2">  1       -1 0.34596412E+00 0.59254641E+04</pdfrwt>
<totfact> 0.51703589E-03</totfact>
</mgrwt>
</event>
<event>
12    7  0.1637954E-007  0.1595116E+04  0.7818608E-02  0.8823554E-01
         -1   -1    0    0    0  501 -0.00000000000E+00  0.00000000000E+00  0.50017441705E+03  0.50017441705E+03  0.00000000000E+00 0.  1.
          2   -1    0    0  501    0  0.00000000000E+00 -0.00000000000E+00 -0.12717542615E+04  0.12717542615E+04  0.00000000000E+00 0. -1.
         24    2    1    2    0    0  0.50381236422E+03  0.18415671908E+03 -0.15904962406E+03  0.56527726048E+03  0.80628796246E+02 0.  0.
        254    2    1    2    0    0 -0.50381236422E+03 -0.18415671908E+03 -0.61253022039E+03  0.12066514181E+04  0.89054689842E+03 0.  0.
         23    2    4    4    0    0 -0.25282870638E+03  0.20771028610E+03 -0.64797581286E+03  0.73157545124E+03  0.90906925399E+02 0.  0.
         23    2    4    4    0    0 -0.25098365784E+03 -0.39186700517E+03  0.35445592473E+02  0.47507596681E+03  0.88815752963E+02 0.  0.
          4    1    3    3  502    0  0.10661425284E+03  0.42010088961E+02 -0.48160828608E+00  0.11459353572E+03  0.00000000000E+00 0. -1.
         -3    1    3    3    0  502  0.39719811138E+03  0.14214663011E+03 -0.15856801577E+03  0.45068372476E+03  0.00000000000E+00 0.  1.
         13    1    5    5    0    0 -0.19889839038E+03  0.20099030518E+03 -0.57301106869E+03  0.63898306496E+03  0.00000000000E+00 0.  1.
        -13    1    5    5    0    0 -0.53930316004E+02  0.67199809180E+01 -0.74964744172E+02  0.92592386278E+02  0.00000000000E+00 0. -1.
          3    1    6    6  503    0 -0.16030228059E+02 -0.88800628339E+02  0.42738156786E+01  0.90337064960E+02  0.00000000000E+00 0. -1.
         -3    1    6    6    0  503 -0.23495342978E+03 -0.30306637683E+03  0.31171776794E+02  0.38473890185E+03  0.00000000000E+00 0.  1.
<mgrwt>
<rscale>  0 0.15951162E+04</rscale>
<asrwt>0</asrwt>
<pdfrwt beam="1">  1        2 0.19565450E+00 0.15951162E+04</pdfrwt>
<pdfrwt beam="2">  1       -1 0.76949910E-01 0.15951162E+04</pdfrwt>
<totfact> 0.31818080E+01</totfact>
</mgrwt>
</event>
<event>
12    7  0.1637954E-007  0.1732629E+04  0.7818608E-02  0.8742971E-01
         -1   -1    0    0    0  501 -0.00000000000E+00  0.00000000000E+00  0.79797291732E+03  0.79797291732E+03  0.00000000000E+00 0.  1.
          2   -1    0    0  501    0  0.00000000000E+00 -0.00000000000E+00 -0.94050900480E+03  0.94050900480E+03  0.00000000000E+00 0. -1.
         24    2    1    2    0    0 -0.91295588971E+02 -0.14883782314E+03  0.55417006625E+03  0.58662227050E+03  0.80830957909E+02 0.  0.
        254    2    1    2    0    0  0.91295588971E+02  0.14883782314E+03 -0.69670615374E+03  0.11518596516E+04  0.90049631327E+03 0.  0.
         23    2    4    4    0    0 -0.21232310576E+03  0.36994382027E+02  0.12450428124E+03  0.26447526981E+03  0.89421288057E+02 0.  0.
         23    2    4    4    0    0  0.30361869473E+03  0.11184344111E+03 -0.82121043498E+03  0.88738438181E+03  0.91494237264E+02 0.  0.
          2    1    3    3  502    0 -0.18887433777E+02 -0.37130366875E+02  0.49533059749E+02  0.64721892023E+02  0.00000000000E+00 0. -1.
         -1    1    3    3    0  502 -0.72408155194E+02 -0.11170745627E+03  0.50463700651E+03  0.52190037848E+03  0.00000000000E+00 0.  1.
         13    1    5    5    0    0 -0.13153894343E+03  0.45518589403E+02  0.34840393013E+02  0.14348619656E+03  0.00000000000E+00 0.  1.
        -13    1    5    5    0    0 -0.80784162329E+02 -0.85242073766E+01  0.89663888224E+02  0.12098907325E+03  0.00000000000E+00 0. -1.
          1    1    6    6  503    0  0.27034073746E+03  0.11040932126E+03 -0.64460305955E+03  0.70766336413E+03  0.00000000000E+00 0. -1.
         -1    1    6    6    0  503  0.33277957271E+02  0.14341198490E+01 -0.17660737542E+03  0.17972101768E+03  0.00000000000E+00 0.  1.
<mgrwt>
<rscale>  0 0.17326289E+04</rscale>
<asrwt>0</asrwt>
<pdfrwt beam="1">  1        2 0.14469369E+00 0.17326289E+04</pdfrwt>
<pdfrwt beam="2">  1       -1 0.12276506E+00 0.17326289E+04</pdfrwt>
<totfact> 0.17462877E+01</totfact>
</mgrwt>
</event>
<event>
12    7  0.1637954E-007  0.1380233E+04  0.7818608E-02  0.8968253E-01
          2   -1    0    0  501    0  0.00000000000E+00  0.00000000000E+00  0.30671125211E+04  0.30671125211E+04  0.00000000000E+00 0. -1.
         -1   -1    0    0    0  501 -0.00000000000E+00 -0.00000000000E+00 -0.15527982537E+03  0.15527982537E+03  0.00000000000E+00 0.  1.
         24    2    1    2    0    0  0.12955887398E+03 -0.24900309022E+03  0.14884282418E+04  0.15167493465E+04  0.79510430026E+02 0.  0.
        254    2    1    2    0    0 -0.12955887398E+03  0.24900309022E+03  0.14234044540E+04  0.17056430000E+04  0.89685548615E+03 0.  0.
         23    2    4    4    0    0  0.99688866960E+00 -0.32799701366E+03  0.53410222500E+03  0.63359808920E+03  0.92727111078E+02 0.  0.
         23    2    4    4    0    0 -0.13055576265E+03  0.57700010388E+03  0.88930222900E+03  0.10720449108E+04  0.91912508657E+02 0.  0.
          2    1    3    3  502    0  0.10739042881E+03 -0.23246369606E+03  0.14206711990E+04  0.14435645915E+04  0.00000000000E+00 0. -1.
         -1    1    3    3    0  502  0.22168445165E+02 -0.16539394152E+02  0.67757042760E+02  0.73184754994E+02  0.00000000000E+00 0.  1.
         13    1    5    5    0    0  0.53955834703E+01 -0.33321759602E+03  0.52833879554E+03  0.62466387881E+03  0.00000000000E+00 0. -1.
        -13    1    5    5    0    0 -0.43986948007E+01  0.52205823578E+01  0.57634294534E+01  0.89342103830E+01  0.00000000000E+00 0.  1.
          1    1    6    6  503    0 -0.11017402438E+03  0.48898410932E+03  0.68636880214E+03  0.84990935244E+03  0.00000000000E+00 0. -1.
         -1    1    6    6    0  503 -0.20381738262E+02  0.88015994553E+02  0.20293342686E+03  0.22213555837E+03  0.00000000000E+00 0.  1.
<mgrwt>
<rscale>  0 0.13802329E+04</rscale>
<asrwt>0</asrwt>
<pdfrwt beam="1">  1        2 0.47186342E+00 0.13802329E+04</pdfrwt>
<pdfrwt beam="2">  1       -1 0.23889206E-01 0.13802329E+04</pdfrwt>
<totfact> 0.26824726E+01</totfact>
</mgrwt>
</event>
<event>
12    7  0.1637954E-007  0.1600021E+04  0.7818608E-02  0.8820535E-01
          2   -1    0    0  501    0  0.00000000000E+00  0.00000000000E+00  0.11213775395E+04  0.11213775395E+04  0.00000000000E+00 0. -1.
         -1   -1    0    0    0  501 -0.00000000000E+00 -0.00000000000E+00 -0.57074167519E+03  0.57074167519E+03  0.00000000000E+00 0.  1.
         24    2    1    2    0    0  0.35953091328E+03 -0.40743458156E+03  0.24529485449E+03  0.60097360371E+03  0.75725100576E+02 0.  0.
        254    2    1    2    0    0 -0.35953091328E+03  0.40743458156E+03  0.30534100980E+03  0.10911456110E+04  0.89560046683E+03 0.  0.
         23    2    4    4    0    0 -0.23706926487E+03 -0.16025955185E+03 -0.16017413447E+03  0.34074667712E+03  0.92561246280E+02 0.  0.
         23    2    4    4    0    0 -0.12246164840E+03  0.56769413341E+03  0.46551514426E+03  0.75039893383E+03  0.95502491630E+02 0.  0.
          4    1    3    3  502    0  0.33081852546E+03 -0.38818369910E+03  0.20999486527E+03  0.55156624667E+03  0.00000000000E+00 0. -1.
         -3    1    3    3    0  502  0.28712387821E+02 -0.19250882467E+02  0.35299989219E+02  0.49407357033E+02  0.00000000000E+00 0.  1.
         13    1    5    5    0    0 -0.11545812108E+03 -0.34633883769E+02 -0.97399380982E+02  0.15497329784E+03  0.00000000000E+00 0. -1.
        -13    1    5    5    0    0 -0.12161114379E+03 -0.12562566808E+03 -0.62774753486E+02  0.18577337928E+03  0.00000000000E+00 0.  1.
          2    1    6    6  503    0 -0.94308006122E+01  0.12787596797E+03  0.15053949256E+03  0.19774564977E+03  0.00000000000E+00 0. -1.
         -2    1    6    6    0  503 -0.11303084779E+03  0.43981816545E+03  0.31497565170E+03  0.55265328405E+03  0.00000000000E+00 0.  1.
<mgrwt>
<rscale>  0 0.16000211E+04</rscale>
<asrwt>0</asrwt>
<pdfrwt beam="1">  1        2 0.17251962E+00 0.16000211E+04</pdfrwt>
<pdfrwt beam="2">  1       -1 0.87806412E-01 0.16000211E+04</pdfrwt>
<totfact> 0.29486434E+01</totfact>
</mgrwt>
</event>
<event>
12    7  0.1637954E-007  0.1413525E+04  0.7818608E-02  0.8944086E-01
          2   -1    0    0  501    0  0.00000000000E+00  0.00000000000E+00  0.87772240208E+03  0.87772240208E+03  0.00000000000E+00 0. -1.
         -1   -1    0    0    0  501 -0.00000000000E+00 -0.00000000000E+00 -0.56910195587E+03  0.56910195587E+03  0.00000000000E+00 0.  1.
         24    2    1    2    0    0 -0.20632006089E+03 -0.31909147829E+03  0.27085377722E+03  0.47356106391E+03  0.80690603961E+02 0.  0.
        254    2    1    2    0    0  0.20632006089E+03  0.31909147829E+03  0.37766668986E+02  0.97326329404E+03  0.89522498803E+03 0.  0.
         23    2    4    4    0    0 -0.33904289797E+03  0.13383839326E+03  0.93284547787E+02  0.38730478363E+03  0.91870487050E+02 0.  0.
         23    2    4    4    0    0  0.54536295887E+03  0.18525308503E+03 -0.55517878801E+02  0.58595851041E+03  0.92334601527E+02 0.  0.
          4    1    3    3  502    0 -0.17372052162E+03 -0.22440662013E+03  0.23046422438E+03  0.36558297212E+03  0.00000000000E+00 0. -1.
         -3    1    3    3    0  502 -0.32599539277E+02 -0.94684858163E+02  0.40389552848E+02  0.10797809179E+03  0.00000000000E+00 0.  1.
         13    1    5    5    0    0 -0.28609620348E+03  0.11775838604E+03  0.11178572663E+03  0.32895915219E+03  0.00000000000E+00 0. -1.
        -13    1    5    5    0    0 -0.52946694493E+02  0.16080007219E+02 -0.18501178846E+02  0.58345631444E+02  0.00000000000E+00 0.  1.
          4    1    6    6  503    0  0.45672412081E+03  0.17976744367E+03 -0.70593104196E+02  0.49587966553E+03  0.00000000000E+00 0. -1.
         -4    1    6    6    0  503  0.88638838062E+02  0.54856413648E+01  0.15075225395E+02  0.90078844880E+02  0.00000000000E+00 0.  1.
<mgrwt>
<rscale>  0 0.14135254E+04</rscale>
<asrwt>0</asrwt>
<pdfrwt beam="1">  1        2 0.13503422E+00 0.14135254E+04</pdfrwt>
<pdfrwt beam="2">  1       -1 0.87554147E-01 0.14135254E+04</pdfrwt>
<totfact> 0.43269035E+01</totfact>
</mgrwt>
</event>
<event>
12    7  0.1637954E-007  0.2065162E+04  0.7818608E-02  0.8576747E-01
         -1   -1    0    0    0  501 -0.00000000000E+00  0.00000000000E+00  0.61785993504E+03  0.61785993504E+03  0.00000000000E+00 0.  1.
          2   -1    0    0  501    0  0.00000000000E+00 -0.00000000000E+00 -0.17256726941E+04  0.17256726941E+04  0.00000000000E+00 0. -1.
         24    2    1    2    0    0  0.37881136105E+03  0.42075655480E+03  0.24455552822E+03  0.62187627631E+03  0.79928536754E+02 0.  0.
        254    2    1    2    0    0 -0.37881136105E+03 -0.42075655480E+03 -0.13523682873E+04  0.17216563528E+04  0.90258876966E+03 0.  0.
         23    2    4    4    0    0  0.13454070010E+03 -0.51047908654E+03 -0.65646075440E+03  0.84743366848E+03  0.92265934317E+02 0.  0.
         23    2    4    4    0    0 -0.51335206114E+03  0.89722531740E+02 -0.69590753287E+03  0.87422268433E+03  0.91638071312E+02 0.  0.
          2    1    3    3  502    0  0.34952680810E+02  0.69046582521E+02  0.54071718890E+02  0.94408004096E+02  0.00000000000E+00 0. -1.
         -1    1    3    3    0  502  0.34385868024E+03  0.35170997228E+03  0.19048380933E+03  0.52746827221E+03  0.00000000000E+00 0.  1.
         13    1    5    5    0    0 -0.21215845252E+01 -0.13219508758E+02 -0.10030498358E+01  0.13426192374E+02  0.00000000000E+00 0.  1.
        -13    1    5    5    0    0  0.13666228462E+03 -0.49725957778E+03 -0.65545770456E+03  0.83400747611E+03  0.00000000000E+00 0. -1.
          3    1    6    6  503    0 -0.27003603645E+03  0.92890941419E+02 -0.36296748801E+03  0.46183718487E+03  0.00000000000E+00 0. -1.
         -3    1    6    6    0  503 -0.24331602469E+03 -0.31684096795E+01 -0.33294004487E+03  0.41238549946E+03  0.00000000000E+00 0.  1.
<mgrwt>
<rscale>  0 0.20651625E+04</rscale>
<asrwt>0</asrwt>
<pdfrwt beam="1">  1        2 0.26548811E+00 0.20651625E+04</pdfrwt>
<pdfrwt beam="2">  1       -1 0.95055375E-01 0.20651625E+04</pdfrwt>
<totfact> 0.10679954E+01</totfact>
</mgrwt>
</event>
<event>
12    7  0.1637954E-007  0.1233706E+04  0.7818608E-02  0.9083855E-01
          2   -1    0    0  501    0  0.00000000000E+00  0.00000000000E+00  0.94392982851E+03  0.94392982851E+03  0.00000000000E+00 0. -1.
         -1   -1    0    0    0  501 -0.00000000000E+00 -0.00000000000E+00 -0.40311015997E+03  0.40311015997E+03  0.00000000000E+00 0.  1.
         24    2    1    2    0    0  0.36435202860E+02  0.47618498746E+02  0.42727951944E+03  0.44052265629E+03  0.88867190457E+02 0.  0.
        254    2    1    2    0    0 -0.36435202860E+02 -0.47618498746E+02  0.11354014909E+03  0.90651733219E+03  0.89737799320E+03 0.  0.
         23    2    4    4    0    0  0.34297323859E+03 -0.20439035660E+03 -0.11816005895E+03  0.42653456827E+03  0.92541224008E+02 0.  0.
         23    2    4    4    0    0 -0.37940844145E+03  0.15677185786E+03  0.23170020804E+03  0.47998276392E+03  0.90389636545E+02 0.  0.
          2    1    3    3  502    0  0.63402054687E+02  0.16888259923E+02  0.28713863235E+03  0.29453968841E+03  0.00000000000E+00 0. -1.
         -1    1    3    3    0  502 -0.26966851827E+02  0.30730238823E+02  0.14014088709E+03  0.14598296788E+03  0.00000000000E+00 0.  1.
         13    1    5    5    0    0  0.33387947230E+03 -0.20678303227E+03 -0.12786787844E+03  0.41301927170E+03  0.00000000000E+00 0.  1.
        -13    1    5    5    0    0  0.90937662887E+01  0.23926756737E+01  0.97078194887E+01  0.13515296572E+02  0.00000000000E+00 0. -1.
          1    1    6    6  503    0 -0.26355746334E+02  0.27811068222E+02 -0.23130343405E+00  0.38316241748E+02  0.00000000000E+00 0. -1.
         -1    1    6    6    0  503 -0.35305269512E+03  0.12896078963E+03  0.23193151147E+03  0.44166652217E+03  0.00000000000E+00 0.  1.
<mgrwt>
<rscale>  0 0.12337061E+04</rscale>
<asrwt>0</asrwt>
<pdfrwt beam="1">  1        2 0.14521997E+00 0.12337061E+04</pdfrwt>
<pdfrwt beam="2">  1       -1 0.62016948E-01 0.12337061E+04</pdfrwt>
<totfact> 0.81184013E+01</totfact>
</mgrwt>
</event>
<event>
12    7  0.1637954E-007  0.2246288E+04  0.7818608E-02  0.8499405E-01
          2   -1    0    0  501    0  0.00000000000E+00  0.00000000000E+00  0.17851267324E+04  0.17851267324E+04  0.00000000000E+00 0. -1.
         -1   -1    0    0    0  501 -0.00000000000E+00 -0.00000000000E+00 -0.70664571356E+03  0.70664571356E+03  0.00000000000E+00 0.  1.
         24    2    1    2    0    0 -0.18252321930E+03 -0.92145441244E+03  0.40214072682E+03  0.10249106095E+04  0.79571562478E+02 0.  0.
        254    2    1    2    0    0  0.18252321930E+03  0.92145441244E+03  0.67634029201E+03  0.14668618364E+04  0.90102968695E+03 0.  0.
         23    2    4    4    0    0  0.32526073266E+02  0.10676207377E+04  0.56683970782E+03  0.12126830826E+04  0.91766112247E+02 0.  0.
         23    2    4    4    0    0  0.14999714603E+03 -0.14616632530E+03  0.10950058419E+03  0.25417875383E+03  0.93555985862E+02 0.  0.
          2    1    3    3  502    0 -0.14205836570E+03 -0.83778466858E+03  0.35975210673E+03  0.92275961576E+03  0.00000000000E+00 0. -1.
         -1    1    3    3    0  502 -0.40464853597E+02 -0.83669743860E+02  0.42388620091E+02  0.10215099377E+03  0.00000000000E+00 0.  1.
         13    1    5    5    0    0  0.12745075090E+02  0.83591297570E+03  0.40203200400E+03  0.92765439261E+03  0.00000000000E+00 0. -1.
        -13    1    5    5    0    0  0.19780998176E+02  0.23170776204E+03  0.16480770382E+03  0.28502868999E+03  0.00000000000E+00 0.  1.
          3    1    6    6  503    0  0.82305800874E+02 -0.42453096956E+02  0.89379726579E+02  0.12870604423E+03  0.00000000000E+00 0. -1.
         -3    1    6    6    0  503  0.67691345157E+02 -0.10371322834E+03  0.20120857615E+02  0.12547270960E+03  0.00000000000E+00 0.  1.
<mgrwt>
<rscale>  0 0.22462877E+04</rscale>
<asrwt>0</asrwt>
<pdfrwt beam="1">  1        2 0.27463488E+00 0.22462877E+04</pdfrwt>
<pdfrwt beam="2">  1       -1 0.10871473E+00 0.22462877E+04</pdfrwt>
<totfact> 0.71541275E+00</totfact>
</mgrwt>
</event>
<event>
12    7  0.1637954E-007  0.3269564E+04  0.7818608E-02  0.8170683E-01
          2   -1    0    0  501    0  0.00000000000E+00  0.00000000000E+00  0.18327015288E+04  0.18327015288E+04  0.00000000000E+00 0. -1.
         -1   -1    0    0    0  501 -0.00000000000E+00 -0.00000000000E+00 -0.14582364690E+04  0.14582364690E+04  0.00000000000E+00 0.  1.
         24    2    1    2    0    0 -0.32212494012E+03  0.77862639762E+03 -0.10896430520E+04  0.13795451225E+04  0.76152611171E+02 0.  0.
        254    2    1    2    0    0  0.32212494012E+03 -0.77862639762E+03  0.14641081119E+04  0.19113928753E+04  0.89430789797E+03 0.  0.
         23    2    4    4    0    0  0.28270234759E+03 -0.27111136246E+02  0.43619496712E+02  0.30131223444E+03  0.90723597174E+02 0.  0.
         23    2    4    4    0    0  0.39422592529E+02 -0.75151526137E+03  0.14204886152E+04  0.16100806409E+04  0.90787859300E+02 0.  0.
          4    1    3    3  502    0 -0.89182324232E+02  0.14444385453E+03 -0.24175508219E+03  0.29540317167E+03  0.00000000000E+00 0. -1.
         -3    1    3    3    0  502 -0.23294261589E+03  0.63418254309E+03 -0.84788796984E+03  0.10841419509E+04  0.00000000000E+00 0.  1.
         13    1    5    5    0    0  0.12459346830E+03 -0.55170170693E+02  0.60474628722E+01  0.13639593793E+03  0.00000000000E+00 0.  1.
        -13    1    5    5    0    0  0.15810887930E+03  0.28059034447E+02  0.37572033840E+02  0.16491629651E+03  0.00000000000E+00 0. -1.
          3    1    6    6  503    0  0.35503141018E+02 -0.56163392159E+03  0.97416696226E+03  0.11250308464E+04  0.00000000000E+00 0. -1.
         -3    1    6    6    0  503  0.39194515114E+01 -0.18988133978E+03  0.44632165289E+03  0.48504979449E+03  0.00000000000E+00 0.  1.
<mgrwt>
<rscale>  0 0.32695640E+04</rscale>
<asrwt>0</asrwt>
<pdfrwt beam="1">  1        2 0.28195408E+00 0.32695640E+04</pdfrwt>
<pdfrwt beam="2">  1       -1 0.22434407E+00 0.32695640E+04</pdfrwt>
<totfact> 0.81151876E-01</totfact>
</mgrwt>
</event>
<event>
12    7  0.1637954E-007  0.1151562E+04  0.7818608E-02  0.9156344E-01
          2   -1    0    0  501    0  0.00000000000E+00  0.00000000000E+00  0.32954632521E+04  0.32954632521E+04  0.00000000000E+00 0. -1.
         -1   -1    0    0    0  501 -0.00000000000E+00 -0.00000000000E+00 -0.10060002332E+03  0.10060002332E+03  0.00000000000E+00 0.  1.
         24    2    1    2    0    0 -0.11886009565E+03 -0.16345601838E+02  0.14019998325E+03  0.20148729786E+03  0.80908558630E+02 0.  0.
        254    2    1    2    0    0  0.11886009565E+03  0.16345601838E+02  0.30546632456E+04  0.31945759776E+04  0.92733663345E+03 0.  0.
         23    2    4    4    0    0  0.78577961875E+02  0.44020980437E+02 -0.92887491353E+01  0.12868050307E+03  0.91433299173E+02 0.  0.
         23    2    4    4    0    0  0.40282133771E+02 -0.27675378599E+02  0.30639519947E+04  0.30658954745E+04  0.97594354290E+02 0.  0.
          4    1    3    3  502    0 -0.12131286086E+02 -0.30713449450E+02  0.14787512673E+02  0.36182241643E+02  0.00000000000E+00 0. -1.
         -3    1    3    3    0  502 -0.10672880956E+03  0.14367847613E+02  0.12541247058E+03  0.16530505622E+03  0.00000000000E+00 0.  1.
         13    1    5    5    0    0  0.29893554176E+02  0.79924779441E+01  0.40015162000E+02  0.50583766910E+02  0.00000000000E+00 0. -1.
        -13    1    5    5    0    0  0.48684407699E+02  0.36028502492E+02 -0.49303911135E+02  0.78096736155E+02  0.00000000000E+00 0.  1.
          3    1    6    6  503    0  0.47899722102E+02 -0.55758860204E+02  0.16404543064E+04  0.16421004126E+04  0.00000000000E+00 0. -1.
         -3    1    6    6    0  503 -0.76175883319E+01  0.28083481605E+02  0.14234976883E+04  0.14237950619E+04  0.00000000000E+00 0.  1.
<mgrwt>
<rscale>  0 0.11515619E+04</rscale>
<asrwt>0</asrwt>
<pdfrwt beam="1">  1        2 0.50699426E+00 0.11515619E+04</pdfrwt>
<pdfrwt beam="2">  1       -1 0.15476929E-01 0.11515619E+04</pdfrwt>
<totfact> 0.40461861E+01</totfact>
</mgrwt>
</event>
<event>
12    7  0.1639933E-007  0.1440697E+04  0.7818608E-02  0.8924875E-01
         -1   -1    0    0    0  501 -0.00000000000E+00  0.00000000000E+00  0.32690396715E+03  0.32690396715E+03  0.00000000000E+00 0.  1.
          2   -1    0    0  501    0  0.00000000000E+00 -0.00000000000E+00 -0.15873233455E+04  0.15873233455E+04  0.00000000000E+00 0. -1.
         24    2    1    2    0    0 -0.16524271536E+03 -0.13224378394E+03 -0.88653264478E+03  0.91489371875E+03  0.79352460445E+02 0.  0.
        254    2    1    2    0    0  0.16524271536E+03  0.13224378394E+03 -0.37388673356E+03  0.99933359389E+03  0.90226535397E+03 0.  0.
         23    2    4    4    0    0 -0.23327990067E+02 -0.13662249714E+03  0.24286289709E+03  0.29472443340E+03  0.93113924917E+02 0.  0.
         23    2    4    4    0    0  0.18857070543E+03  0.26886628108E+03 -0.61674963065E+03  0.70460916049E+03  0.90807346000E+02 0.  0.
          2    1    3    3  502    0 -0.16605095409E+03 -0.11038839864E+03 -0.84190710572E+03  0.86519714087E+03  0.00000000000E+00 0. -1.
         -1    1    3    3    0  502  0.80823873132E+00 -0.21855385306E+02 -0.44625539064E+02  0.49696577885E+02  0.00000000000E+00 0.  1.
         13    1    5    5    0    0  0.18735756980E+02  0.22003116844E+01  0.12967126363E+02  0.22891402911E+02  0.00000000000E+00 0.  1.
        -13    1    5    5    0    0 -0.42063747047E+02 -0.13882280882E+03  0.22989577073E+03  0.27183303049E+03  0.00000000000E+00 0. -1.
          2    1    6    6  503    0  0.46953823216E+00  0.57971069286E+02 -0.11328436459E+03  0.12725648353E+03  0.00000000000E+00 0. -1.
         -2    1    6    6    0  503  0.18810116720E+03  0.21089521180E+03 -0.50346526606E+03  0.57735267696E+03  0.00000000000E+00 0.  1.
<mgrwt>
<rscale>  0 0.14406975E+04</rscale>
<asrwt>0</asrwt>
<pdfrwt beam="1">  1        2 0.24420360E+00 0.14406975E+04</pdfrwt>
<pdfrwt beam="2">  1       -1 0.50292917E-01 0.14406975E+04</pdfrwt>
<totfact> 0.49747204E+01</totfact>
</mgrwt>
</event>
<event>
12    7  0.1637954E-007  0.2804651E+04  0.7818608E-02  0.8301826E-01
         -1   -1    0    0    0  501 -0.00000000000E+00  0.00000000000E+00  0.66343490428E+03  0.66343490428E+03  0.00000000000E+00 0.  1.
          2   -1    0    0  501    0  0.00000000000E+00 -0.00000000000E+00 -0.29641452111E+04  0.29641452111E+04  0.00000000000E+00 0. -1.
         24    2    1    2    0    0  0.25008968692E+02  0.12482127382E+04 -0.12320762513E+04  0.17558781089E+04  0.80221917949E+02 0.  0.
        254    2    1    2    0    0 -0.25008968692E+02 -0.12482127382E+04 -0.10686340555E+04  0.18717020064E+04  0.89589573509E+03 0.  0.
         23    2    4    4    0    0 -0.27867667424E+03 -0.11903304141E+04 -0.10112486737E+04  0.15891564548E+04  0.90813953129E+02 0.  0.
         23    2    4    4    0    0  0.25366770555E+03 -0.57882324044E+02 -0.57385381738E+02  0.28254555166E+03  0.94027859977E+02 0.  0.
          2    1    3    3  502    0  0.34906625429E+02  0.67687564717E+03 -0.62090443636E+03  0.91918520077E+03  0.00000000000E+00 0. -1.
         -1    1    3    3    0  502 -0.98976567369E+01  0.57133709098E+03 -0.61117181496E+03  0.83669290815E+03  0.00000000000E+00 0.  1.
         13    1    5    5    0    0 -0.59884511764E+02 -0.25636257555E+03 -0.26780367019E+03  0.37553525888E+03  0.00000000000E+00 0. -1.
        -13    1    5    5    0    0 -0.21879216247E+03 -0.93396783856E+03 -0.74344500355E+03  0.12136211959E+04  0.00000000000E+00 0.  1.
          3    1    6    6  503    0  0.20465275075E+03 -0.32331540834E+02 -0.63115442842E+01  0.20728702930E+03  0.00000000000E+00 0. -1.
         -3    1    6    6    0  503  0.49014954792E+02 -0.25550783209E+02 -0.51073837453E+02  0.75258522362E+02  0.00000000000E+00 0.  1.
<mgrwt>
<rscale>  0 0.28046514E+04</rscale>
<asrwt>0</asrwt>
<pdfrwt beam="1">  1        2 0.45602235E+00 0.28046514E+04</pdfrwt>
<pdfrwt beam="2">  1       -1 0.10206691E+00 0.28046514E+04</pdfrwt>
<totfact> 0.16473412E+00</totfact>
</mgrwt>
</event>
<event>
12    7  0.1637954E-007  0.2035825E+04  0.7818608E-02  0.8590052E-01
          2   -1    0    0  501    0  0.00000000000E+00  0.00000000000E+00  0.46384911880E+03  0.46384911880E+03  0.00000000000E+00 0. -1.
         -1   -1    0    0    0  501 -0.00000000000E+00 -0.00000000000E+00 -0.22337992477E+04  0.22337992477E+04  0.00000000000E+00 0.  1.
         24    2    1    2    0    0 -0.43257634729E+02 -0.17468549900E+02  0.36460910318E+03  0.37567023138E+03  0.77536774646E+02 0.  0.
        254    2    1    2    0    0  0.43257634729E+02  0.17468549900E+02 -0.21345592321E+04  0.23219781352E+04  0.91272283390E+03 0.  0.
         23    2    4    4    0    0 -0.87557960737E+02 -0.36104359160E+03 -0.16154509024E+04  0.16601146029E+04  0.90994534651E+02 0.  0.
         23    2    4    4    0    0  0.13081559547E+03  0.37851214150E+03 -0.51910832976E+03  0.66186353225E+03  0.90585407290E+02 0.  0.
          4    1    3    3  502    0  0.18106750170E+01  0.16456144776E+02  0.21730261037E+03  0.21793234666E+03  0.00000000000E+00 0. -1.
         -3    1    3    3    0  502 -0.45068309746E+02 -0.33924694676E+02  0.14730649281E+03  0.15773788472E+03  0.00000000000E+00 0.  1.
         13    1    5    5    0    0 -0.30325633845E+02 -0.18971598999E+03 -0.64540698456E+03  0.67339585435E+03  0.00000000000E+00 0. -1.
        -13    1    5    5    0    0 -0.57232326892E+02 -0.17132760161E+03 -0.97004391781E+03  0.98671874857E+03  0.00000000000E+00 0.  1.
          3    1    6    6  503    0  0.11914144578E+03  0.25645419908E+03 -0.40787656328E+03  0.49631313825E+03  0.00000000000E+00 0. -1.
         -3    1    6    6    0  503  0.11674149690E+02  0.12205794242E+03 -0.11123176648E+03  0.16555039400E+03  0.00000000000E+00 0.  1.
<mgrwt>
<rscale>  0 0.20358250E+04</rscale>
<asrwt>0</asrwt>
<pdfrwt beam="1">  1        2 0.71361403E-01 0.20358250E+04</pdfrwt>
<pdfrwt beam="2">  1       -1 0.34366142E+00 0.20358250E+04</pdfrwt>
<totfact> 0.12182661E+00</totfact>
</mgrwt>
</event>
<event>
12    7  0.1637954E-007  0.2122269E+04  0.7818608E-02  0.8551497E-01
         -1   -1    0    0    0  501 -0.00000000000E+00  0.00000000000E+00  0.11637225592E+04  0.11637225592E+04  0.00000000000E+00 0.  1.
          2   -1    0    0  501    0  0.00000000000E+00 -0.00000000000E+00 -0.96759042435E+03  0.96759042435E+03  0.00000000000E+00 0. -1.
         24    2    1    2    0    0 -0.35084020268E+03 -0.71618862861E+03 -0.26701252740E+03  0.84474631851E+03  0.79282111978E+02 0.  0.
        254    2    1    2    0    0  0.35084020268E+03  0.71618862861E+03  0.46314466230E+03  0.12865666651E+04  0.89707068056E+03 0.  0.
         23    2    4    4    0    0  0.19687028870E+03  0.76853034186E+03  0.64544990598E+03  0.10267771070E+04  0.90933214248E+02 0.  0.
         23    2    4    4    0    0  0.15396991397E+03 -0.52341713252E+02 -0.18230524368E+03  0.25978955805E+03  0.88368677958E+02 0.  0.
          2    1    3    3  502    0 -0.23926136406E+03 -0.39955939915E+03 -0.15382934973E+03  0.49046629101E+03  0.00000000000E+00 0. -1.
         -1    1    3    3    0  502 -0.11157883862E+03 -0.31662922946E+03 -0.11318317767E+03  0.35428002750E+03  0.00000000000E+00 0.  1.
         13    1    5    5    0    0  0.44007590846E+02  0.81686915127E+02  0.52509994376E+02  0.10661481916E+03  0.00000000000E+00 0. -1.
        -13    1    5    5    0    0  0.15286269786E+03  0.68684342673E+03  0.59293991161E+03  0.92016228787E+03  0.00000000000E+00 0.  1.
          3    1    6    6  503    0  0.19006385860E+02  0.36809096001E+01 -0.77708643222E+02  0.80083862484E+02  0.00000000000E+00 0. -1.
         -3    1    6    6    0  503  0.13496352811E+03 -0.56022622852E+02 -0.10459660046E+03  0.17970569557E+03  0.00000000000E+00 0.  1.
<mgrwt>
<rscale>  0 0.21222694E+04</rscale>
<asrwt>0</asrwt>
<pdfrwt beam="1">  1        2 0.14886007E+00 0.21222694E+04</pdfrwt>
<pdfrwt beam="2">  1       -1 0.17903424E+00 0.21222694E+04</pdfrwt>
<totfact> 0.58659879E+00</totfact>
</mgrwt>
</event>
<event>
12    7  0.1637954E-007  0.2401499E+04  0.7818608E-02  0.8438943E-01
          2   -1    0    0  501    0  0.00000000000E+00  0.00000000000E+00  0.12094217074E+04  0.12094217074E+04  0.00000000000E+00 0. -1.
         -1   -1    0    0    0  501 -0.00000000000E+00 -0.00000000000E+00 -0.11921394715E+04  0.11921394715E+04  0.00000000000E+00 0.  1.
         24    2    1    2    0    0 -0.51137016484E+03  0.46634711499E+03  0.77130364190E+03  0.10394663398E+04  0.81251992883E+02 0.  0.
        254    2    1    2    0    0  0.51137016484E+03 -0.46634711499E+03 -0.75402140604E+03  0.13620948391E+04  0.89876303490E+03 0.  0.
         23    2    4    4    0    0  0.43324571546E+03 -0.11236357669E+03  0.65050410204E+02  0.46148259860E+03  0.91690837158E+02 0.  0.
         23    2    4    4    0    0  0.78124449381E+02 -0.35398353830E+03 -0.81907181625E+03  0.90061224054E+03  0.93893517623E+02 0.  0.
          2    1    3    3  502    0 -0.29839508744E+03  0.27679736674E+03  0.51210237067E+03  0.65414466939E+03  0.00000000000E+00 0. -1.
         -1    1    3    3    0  502 -0.21297507740E+03  0.18954974824E+03  0.25920127123E+03  0.38532167038E+03  0.00000000000E+00 0.  1.
         13    1    5    5    0    0  0.38915274913E+03 -0.11617950102E+03  0.34259333464E+02  0.40756746748E+03  0.00000000000E+00 0.  1.
        -13    1    5    5    0    0  0.44092966325E+02  0.38159243336E+01  0.30791076740E+02  0.53915131129E+02  0.00000000000E+00 0. -1.
          2    1    6    6  503    0  0.79223354465E+02 -0.20269073389E+03 -0.55698344309E+03  0.59798865322E+03  0.00000000000E+00 0. -1.
         -2    1    6    6    0  503 -0.10989050837E+01 -0.15129280440E+03 -0.26208837316E+03  0.30262358732E+03  0.00000000000E+00 0.  1.
<mgrwt>
<rscale>  0 0.24014990E+04</rscale>
<asrwt>0</asrwt>
<pdfrwt beam="1">  1        2 0.18606488E+00 0.24014990E+04</pdfrwt>
<pdfrwt beam="2">  1       -1 0.18340607E+00 0.24014990E+04</pdfrwt>
<totfact> 0.37697789E+00</totfact>
</mgrwt>
</event>
<event>
12    7  0.1637954E-007  0.1118599E+04  0.7818608E-02  0.9187252E-01
          2   -1    0    0  501    0  0.00000000000E+00  0.00000000000E+00  0.82530482436E+03  0.82530482436E+03  0.00000000000E+00 0. -1.
         -1   -1    0    0    0  501 -0.00000000000E+00 -0.00000000000E+00 -0.37903054047E+03  0.37903054047E+03  0.00000000000E+00 0.  1.
         24    2    1    2    0    0  0.34484587722E+02 -0.10116361409E+03 -0.77284566265E+02  0.15383280378E+03  0.79172998750E+02 0.  0.
        254    2    1    2    0    0 -0.34484587722E+02  0.10116361409E+03  0.52355885015E+03  0.10505025611E+04  0.90444375038E+03 0.  0.
         23    2    4    4    0    0  0.21034494213E+03  0.40653577793E+03  0.12454397056E+03  0.48333769357E+03  0.92670340508E+02 0.  0.
         23    2    4    4    0    0 -0.24482952985E+03 -0.30537216385E+03  0.39901487960E+03  0.56716486748E+03  0.96278012156E+02 0.  0.
          4    1    3    3  502    0  0.27036814367E+02  0.33375832889E+01 -0.86337428024E+01  0.28577444044E+02  0.00000000000E+00 0. -1.
         -3    1    3    3    0  502  0.74477733557E+01 -0.10450119738E+03 -0.68650823463E+02  0.12525535974E+03  0.00000000000E+00 0.  1.
         13    1    5    5    0    0  0.28845441061E+02  0.11736556481E+03  0.28675445724E+01  0.12089234089E+03  0.00000000000E+00 0. -1.
        -13    1    5    5    0    0  0.18149950106E+03  0.28917021312E+03  0.12167642598E+03  0.36244535269E+03  0.00000000000E+00 0.  1.
          2    1    6    6  503    0 -0.86787585889E+02 -0.69111731434E+02  0.16577155927E+03  0.19947111658E+03  0.00000000000E+00 0. -1.
         -2    1    6    6    0  503 -0.15804194396E+03 -0.23626043241E+03  0.23324332033E+03  0.36769375090E+03  0.00000000000E+00 0.  1.
<mgrwt>
<rscale>  0 0.11185986E+04</rscale>
<asrwt>0</asrwt>
<pdfrwt beam="1">  1        2 0.12696997E+00 0.11185986E+04</pdfrwt>
<pdfrwt beam="2">  1       -1 0.58312391E-01 0.11185986E+04</pdfrwt>
<totfact> 0.11144007E+02</totfact>
</mgrwt>
</event>
<event>
12    7  0.1637954E-007  0.1799674E+04  0.7818608E-02  0.8706473E-01
         -1   -1    0    0    0  501 -0.00000000000E+00  0.00000000000E+00  0.40235839638E+03  0.40235839638E+03  0.00000000000E+00 0.  1.
          2   -1    0    0  501    0  0.00000000000E+00 -0.00000000000E+00 -0.20124009019E+04  0.20124009019E+04  0.00000000000E+00 0. -1.
         24    2    1    2    0    0 -0.17971826623E+02  0.41793562124E+02  0.29386476306E+03  0.30884752089E+03  0.83430233131E+02 0.  0.
        254    2    1    2    0    0  0.17971826623E+02 -0.41793562124E+02 -0.19039072686E+04  0.21059117774E+04  0.89885028698E+03 0.  0.
         23    2    4    4    0    0 -0.52520975047E+02  0.39970912826E+03 -0.63713525336E+03  0.75945911856E+03  0.91164585519E+02 0.  0.
         23    2    4    4    0    0  0.70492801670E+02 -0.44150269039E+03 -0.12667720152E+04  0.13464526588E+04  0.91266440820E+02 0.  0.
          2    1    3    3  502    0 -0.40679030711E+02  0.73566197375E+01  0.70667981911E+02  0.81871039208E+02  0.00000000000E+00 0. -1.
         -1    1    3    3    0  502  0.22707204089E+02  0.34436942386E+02  0.22319678115E+03  0.22697648168E+03  0.00000000000E+00 0.  1.
         13    1    5    5    0    0 -0.72141730596E+02  0.25013830079E+03 -0.43971062051E+03  0.51099807104E+03  0.00000000000E+00 0. -1.
        -13    1    5    5    0    0  0.19620755549E+02  0.14957082748E+03 -0.19742463285E+03  0.24846104752E+03  0.00000000000E+00 0.  1.
          1    1    6    6  503    0  0.91457636824E+01 -0.17339802575E+03 -0.61463057390E+03  0.63868713992E+03  0.00000000000E+00 0. -1.
         -1    1    6    6    0  503  0.61347037987E+02 -0.26810466464E+03 -0.65214144130E+03  0.70776551889E+03  0.00000000000E+00 0.  1.
<mgrwt>
<rscale>  0 0.17996737E+04</rscale>
<asrwt>0</asrwt>
<pdfrwt beam="1">  1        2 0.30960014E+00 0.17996737E+04</pdfrwt>
<pdfrwt beam="2">  1       -1 0.61901292E-01 0.17996737E+04</pdfrwt>
<totfact> 0.18715190E+01</totfact>
</mgrwt>
</event>
<event>
12    7  0.1637954E-007  0.1604858E+04  0.7818608E-02  0.8817569E-01
         -1   -1    0    0    0  501 -0.00000000000E+00  0.00000000000E+00  0.71070450821E+03  0.71070450821E+03  0.00000000000E+00 0.  1.
          2   -1    0    0  501    0  0.00000000000E+00 -0.00000000000E+00 -0.90599104818E+03  0.90599104818E+03  0.00000000000E+00 0. -1.
         24    2    1    2    0    0  0.10570057713E+03  0.24618469517E+03 -0.57203687153E+03  0.63647953913E+03  0.78105730911E+02 0.  0.
        254    2    1    2    0    0 -0.10570057713E+03 -0.24618469517E+03  0.37675033157E+03  0.98021601726E+03  0.86435126657E+03 0.  0.
         23    2    4    4    0    0  0.18173926367E+03 -0.41806739686E+02  0.54160634137E+03  0.58026169724E+03  0.92678178780E+02 0.  0.
         23    2    4    4    0    0 -0.28743984080E+03 -0.20437795548E+03 -0.16485600980E+03  0.39995432002E+03  0.91618466319E+02 0.  0.
          2    1    3    3  502    0  0.40124071014E+02  0.13569428852E+03 -0.37936761054E+03  0.40489833902E+03  0.00000000000E+00 0. -1.
         -1    1    3    3    0  502  0.65576506112E+02  0.11049040665E+03 -0.19266926099E+03  0.23158120011E+03  0.00000000000E+00 0.  1.
         13    1    5    5    0    0  0.16809387188E+03 -0.29695695301E+02  0.53377981400E+03  0.56040902376E+03  0.00000000000E+00 0. -1.
        -13    1    5    5    0    0  0.13645391793E+02 -0.12111044385E+02  0.78265273719E+01  0.19852673472E+02  0.00000000000E+00 0.  1.
          3    1    6    6  503    0 -0.14013114209E+02 -0.31607619469E+02  0.44908499475E+01  0.34865121706E+02  0.00000000000E+00 0. -1.
         -3    1    6    6    0  503 -0.27342672659E+03 -0.17277033601E+03 -0.16934685975E+03  0.36508919832E+03  0.00000000000E+00 0.  1.
<mgrwt>
<rscale>  0 0.16048575E+04</rscale>
<asrwt>0</asrwt>
<pdfrwt beam="1">  1        2 0.13938324E+00 0.16048575E+04</pdfrwt>
<pdfrwt beam="2">  1       -1 0.10933916E+00 0.16048575E+04</pdfrwt>
<totfact> 0.24607834E+01</totfact>
</mgrwt>
</event>
<event>
12    7  0.1637954E-007  0.2821884E+04  0.7818608E-02  0.8296506E-01
          2   -1    0    0  501    0  0.00000000000E+00  0.00000000000E+00  0.19089846478E+04  0.19089846478E+04  0.00000000000E+00 0. -1.
         -1   -1    0    0    0  501 -0.00000000000E+00 -0.00000000000E+00 -0.10428358865E+04  0.10428358865E+04  0.00000000000E+00 0.  1.
         24    2    1    2    0    0  0.97036811488E+03  0.81343190267E+03  0.39469471340E+03  0.13288072576E+04  0.81603140348E+02 0.  0.
        254    2    1    2    0    0 -0.97036811488E+03 -0.81343190267E+03  0.47145404782E+03  0.16230132767E+04  0.89923158216E+03 0.  0.
         23    2    4    4    0    0 -0.38792061877E+03 -0.14010123382E+03 -0.23267157207E+03  0.48432427437E+03  0.10160305170E+03 0.  0.
         23    2    4    4    0    0 -0.58244749612E+03 -0.67333066885E+03  0.70412561989E+03  0.11386890023E+04  0.90556501694E+02 0.  0.
          4    1    3    3  502    0  0.46159991320E+03  0.42373864704E+03  0.16424998717E+03  0.64777077670E+03  0.00000000000E+00 0. -1.
         -3    1    3    3    0  502  0.50876820168E+03  0.38969325563E+03  0.23044472623E+03  0.68103648094E+03  0.00000000000E+00 0.  1.
         13    1    5    5    0    0 -0.18434779104E+03 -0.58197392253E+02 -0.16649656125E+03  0.25513163158E+03  0.00000000000E+00 0.  1.
        -13    1    5    5    0    0 -0.20357282773E+03 -0.81903841568E+02 -0.66175010822E+02  0.22919264279E+03  0.00000000000E+00 0. -1.
          2    1    6    6  503    0 -0.40054112348E+03 -0.43465738785E+03  0.41697426949E+03  0.72334485402E+03  0.00000000000E+00 0.  1.
         -2    1    6    6    0  503 -0.18190637263E+03 -0.23867328100E+03  0.28715135040E+03  0.41534414827E+03  0.00000000000E+00 0. -1.
<mgrwt>
<rscale>  0 0.28218843E+04</rscale>
<asrwt>0</asrwt>
<pdfrwt beam="1">  1        2 0.29368995E+00 0.28218843E+04</pdfrwt>
<pdfrwt beam="2">  1       -1 0.16043629E+00 0.28218843E+04</pdfrwt>
<totfact> 0.21516992E+00</totfact>
</mgrwt>
</event>
<event>
12    7  0.1637954E-007  0.1944172E+04  0.7818608E-02  0.8633176E-01
          2   -1    0    0  501    0  0.00000000000E+00  0.00000000000E+00  0.20570881828E+04  0.20570881828E+04  0.00000000000E+00 0. -1.
         -1   -1    0    0    0  501 -0.00000000000E+00 -0.00000000000E+00 -0.45936370116E+03  0.45936370116E+03  0.00000000000E+00 0.  1.
         24    2    1    2    0    0  0.46002902516E+03 -0.60355262806E+03  0.54878300517E+03  0.93992758208E+03  0.79991211724E+02 0.  0.
        254    2    1    2    0    0 -0.46002902516E+03  0.60355262806E+03  0.10489414765E+04  0.15765243019E+04  0.89958222223E+03 0.  0.
         23    2    4    4    0    0 -0.56929266227E+03  0.45110978534E+03  0.11355990696E+04  0.13509948170E+04  0.89485053736E+02 0.  0.
         23    2    4    4    0    0  0.10926363711E+03  0.15244284272E+03 -0.86657593102E+02  0.22552948494E+03  0.90424816532E+02 0.  0.
          4    1    3    3  502    0  0.41073006524E+02 -0.81666186484E+02  0.42808463882E+02  0.10094019249E+03  0.00000000000E+00 0. -1.
         -3    1    3    3    0  502  0.41895601863E+03 -0.52188644158E+03  0.50597454129E+03  0.83898738959E+03  0.00000000000E+00 0.  1.
         13    1    5    5    0    0 -0.52865810316E+03  0.38448993232E+03  0.10219835657E+04  0.12131621106E+04  0.00000000000E+00 0.  1.
        -13    1    5    5    0    0 -0.40634559107E+02  0.66619853022E+02  0.11361550393E+03  0.13783270636E+03  0.00000000000E+00 0. -1.
          3    1    6    6  503    0  0.13413531553E+01  0.12316630122E+02 -0.41044601084E+02  0.42873743527E+02  0.00000000000E+00 0. -1.
         -3    1    6    6    0  503  0.10792228395E+03  0.14012621260E+03 -0.45612992018E+02  0.18265574142E+03  0.00000000000E+00 0.  1.
<mgrwt>
<rscale>  0 0.19441725E+04</rscale>
<asrwt>0</asrwt>
<pdfrwt beam="1">  1        2 0.31647510E+00 0.19441725E+04</pdfrwt>
<pdfrwt beam="2">  1       -1 0.70671340E-01 0.19441725E+04</pdfrwt>
<totfact> 0.13347966E+01</totfact>
</mgrwt>
</event>
<event>
12    7  0.1637954E-007  0.1541229E+04  0.7818608E-02  0.8857490E-01
         -1   -1    0    0    0  501 -0.00000000000E+00  0.00000000000E+00  0.52558467077E+03  0.52558467077E+03  0.00000000000E+00 0.  1.
          2   -1    0    0  501    0  0.00000000000E+00 -0.00000000000E+00 -0.11298785909E+04  0.11298785909E+04  0.00000000000E+00 0. -1.
         24    2    1    2    0    0 -0.26076537373E+03  0.32118847744E+03  0.11053608888E+03  0.43533818454E+03  0.78361277407E+02 0.  0.
        254    2    1    2    0    0  0.26076537373E+03 -0.32118847744E+03 -0.71483000902E+03  0.12201250771E+04  0.89808832744E+03 0.  0.
         23    2    4    4    0    0 -0.31043737335E+03 -0.20236344849E+03 -0.39343283906E+03  0.54787992228E+03  0.89781302817E+02 0.  0.
         23    2    4    4    0    0  0.57120274707E+03 -0.11882502896E+03 -0.32139716996E+03  0.67224515486E+03  0.90694220323E+02 0.  0.
          2    1    3    3  502    0 -0.13348815696E+03  0.16962454466E+03  0.97910135716E+02  0.23701892092E+03  0.00000000000E+00 0. -1.
         -1    1    3    3    0  502 -0.12727721676E+03  0.15156393278E+03  0.12625953168E+02  0.19831926362E+03  0.00000000000E+00 0.  1.
         13    1    5    5    0    0 -0.87655768381E+02 -0.10718874148E+03 -0.15758927563E+03  0.20977926453E+03  0.00000000000E+00 0. -1.
        -13    1    5    5    0    0 -0.22278160497E+03 -0.95174707005E+02 -0.23584356343E+03  0.33810065775E+03  0.00000000000E+00 0.  1.
          1    1    6    6  503    0  0.11787489193E+03 -0.40054205281E+02 -0.10899595581E+03  0.16546585114E+03  0.00000000000E+00 0. -1.
         -1    1    6    6    0  503  0.45332785514E+03 -0.78770823675E+02 -0.21240121415E+03  0.50677930372E+03  0.00000000000E+00 0.  1.
<mgrwt>
<rscale>  0 0.15412292E+04</rscale>
<asrwt>0</asrwt>
<pdfrwt beam="1">  1        2 0.17382747E+00 0.15412292E+04</pdfrwt>
<pdfrwt beam="2">  1       -1 0.80859181E-01 0.15412292E+04</pdfrwt>
<totfact> 0.34984283E+01</totfact>
</mgrwt>
</event>
<event>
12    7  0.1637954E-007  0.1827226E+04  0.7818608E-02  0.8691954E-01
          2   -1    0    0  501    0  0.00000000000E+00  0.00000000000E+00  0.10898569922E+04  0.10898569922E+04  0.00000000000E+00 0. -1.
         -1   -1    0    0    0  501 -0.00000000000E+00 -0.00000000000E+00 -0.76586980837E+03  0.76586980837E+03  0.00000000000E+00 0.  1.
         24    2    1    2    0    0  0.24430479312E+03 -0.90462206138E+02  0.79917243564E+03  0.84457615019E+03  0.82243838057E+02 0.  0.
        254    2    1    2    0    0 -0.24430479312E+03  0.90462206138E+02 -0.47518525184E+03  0.10111506504E+04  0.85367228576E+03 0.  0.
         23    2    4    4    0    0 -0.75457477822E+02  0.29191877717E+03  0.13343874643E+03  0.34203385289E+03  0.90944235938E+02 0.  0.
         23    2    4    4    0    0 -0.16884731530E+03 -0.20145657103E+03 -0.60862399827E+03  0.66911679747E+03  0.90553583555E+02 0.  0.
          4    1    3    3  502    0  0.11244095382E+03 -0.67276643364E+02  0.49865673549E+03  0.51558476964E+03  0.00000000000E+00 0. -1.
         -3    1    3    3    0  502  0.13186383930E+03 -0.23185562774E+02  0.30051570015E+03  0.32899138054E+03  0.00000000000E+00 0.  1.
         13    1    5    5    0    0 -0.50957404395E+01  0.19272591020E+03  0.91372252081E+02  0.21334978670E+03  0.00000000000E+00 0. -1.
        -13    1    5    5    0    0 -0.70361737382E+02  0.99192866964E+02  0.42066494351E+02  0.12868406619E+03  0.00000000000E+00 0.  1.
          3    1    6    6  503    0 -0.12153628008E+03 -0.74599978547E+02 -0.31634691236E+03  0.34700373648E+03  0.00000000000E+00 0. -1.
         -3    1    6    6    0  503 -0.47311035213E+02 -0.12685659248E+03 -0.29227708591E+03  0.32211306099E+03  0.00000000000E+00 0.  1.
<mgrwt>
<rscale>  0 0.18272258E+04</rscale>
<asrwt>0</asrwt>
<pdfrwt beam="1">  1        2 0.16767031E+00 0.18272258E+04</pdfrwt>
<pdfrwt beam="2">  1       -1 0.11782612E+00 0.18272258E+04</pdfrwt>
<totfact> 0.15375677E+01</totfact>
</mgrwt>
</event>
<event>
12    7  0.1637954E-007  0.1590001E+04  0.7818608E-02  0.8826715E-01
          2   -1    0    0  501    0  0.00000000000E+00  0.00000000000E+00  0.15347943761E+04  0.15347943761E+04  0.00000000000E+00 0. -1.
         -1   -1    0    0    0  501 -0.00000000000E+00 -0.00000000000E+00 -0.41179809680E+03  0.41179809680E+03  0.00000000000E+00 0.  1.
         24    2    1    2    0    0  0.44603652795E+02  0.35328433640E+03 -0.11238911588E+03  0.38107780320E+03  0.76089884596E+02 0.  0.
        254    2    1    2    0    0 -0.44603652795E+02 -0.35328433640E+03  0.12353853952E+04  0.15655146697E+04  0.89322998059E+03 0.  0.
         23    2    4    4    0    0  0.20717687716E+03 -0.32726196019E+03  0.12336071451E+04  0.12961406427E+04  0.90395398800E+02 0.  0.
         23    2    4    4    0    0 -0.25178052995E+03 -0.26022376208E+02  0.17782500749E+01  0.26937402702E+03  0.92133625415E+02 0.  0.
          2    1    3    3  502    0 -0.21482195379E+02  0.99717836550E+02 -0.27798850733E+02  0.10572562483E+03  0.00000000000E+00 0. -1.
         -1    1    3    3    0  502  0.66085848174E+02  0.25356649985E+03 -0.84590265147E+02  0.27535217837E+03  0.00000000000E+00 0.  1.
         13    1    5    5    0    0  0.11089897802E+03 -0.18195336993E+03  0.82148505520E+03  0.84867149597E+03  0.00000000000E+00 0.  1.
        -13    1    5    5    0    0  0.96277899137E+02 -0.14530859026E+03  0.41212208991E+03  0.44746914671E+03  0.00000000000E+00 0. -1.
          2    1    6    6  503    0 -0.52637989252E+02  0.15639991912E+02  0.32201965109E+02  0.63657943859E+02  0.00000000000E+00 0. -1.
         -2    1    6    6    0  503 -0.19914254070E+03 -0.41662368119E+02 -0.30423715034E+02  0.20571608316E+03  0.00000000000E+00 0.  1.
<mgrwt>
<rscale>  0 0.15900005E+04</rscale>
<asrwt>0</asrwt>
<pdfrwt beam="1">  1        2 0.23612221E+00 0.15900005E+04</pdfrwt>
<pdfrwt beam="2">  1       -1 0.63353554E-01 0.15900005E+04</pdfrwt>
<totfact> 0.33523624E+01</totfact>
</mgrwt>
</event>
<event>
12    7  0.1637954E-007  0.1475231E+04  0.7818608E-02  0.8901093E-01
          2   -1    0    0  501    0  0.00000000000E+00  0.00000000000E+00  0.31170021373E+04  0.31170021373E+04  0.00000000000E+00 0. -1.
         -1   -1    0    0    0  501 -0.00000000000E+00 -0.00000000000E+00 -0.17455126524E+03  0.17455126524E+03  0.00000000000E+00 0.  1.
         24    2    1    2    0    0 -0.19166776080E+03  0.37726552856E+03  0.12192501226E+04  0.12930086110E+04  0.78959465673E+02 0.  0.
        254    2    1    2    0    0  0.19166776080E+03 -0.37726552856E+03  0.17232007495E+04  0.19985447915E+04  0.91961657830E+03 0.  0.
         23    2    4    4    0    0 -0.14268650146E+03  0.24439119538E+03  0.57260761417E+03  0.64560362740E+03  0.94011009083E+02 0.  0.
         23    2    4    4    0    0  0.33435426227E+03 -0.62165672394E+03  0.11505931353E+04  0.13529411641E+04  0.91298277047E+02 0.  0.
          4    1    3    3  502    0  0.44318200368E+01  0.18365803229E+01  0.34286030241E+02  0.34620022036E+02  0.00000000000E+00 0. -1.
         -3    1    3    3    0  502 -0.19609958084E+03  0.37542894824E+03  0.11849640923E+04  0.12583885890E+04  0.00000000000E+00 0.  1.
         13    1    5    5    0    0 -0.83467702723E+02  0.18171531006E+03  0.30728879855E+03  0.36662476324E+03  0.00000000000E+00 0.  1.
        -13    1    5    5    0    0 -0.59218798739E+02  0.62675885317E+02  0.26531881562E+03  0.27897886416E+03  0.00000000000E+00 0. -1.
          3    1    6    6  503    0 -0.60916802561E+01 -0.12336609817E+02  0.21244980063E+02  0.25311058611E+02  0.00000000000E+00 0. -1.
         -3    1    6    6    0  503  0.34044594252E+03 -0.60932011413E+03  0.11293481553E+04  0.13276301055E+04  0.00000000000E+00 0.  1.
<mgrwt>
<rscale>  0 0.14752311E+04</rscale>
<asrwt>0</asrwt>
<pdfrwt beam="1">  1        2 0.47953875E+00 0.14752311E+04</pdfrwt>
<pdfrwt beam="2">  1       -1 0.26854043E-01 0.14752311E+04</pdfrwt>
<totfact> 0.20213510E+01</totfact>
</mgrwt>
</event>
<event>
12    7  0.1637954E-007  0.1358759E+04  0.7818608E-02  0.8984224E-01
          2   -1    0    0  501    0  0.00000000000E+00  0.00000000000E+00  0.27350295136E+04  0.27350295136E+04  0.00000000000E+00 0. -1.
         -1   -1    0    0    0  501 -0.00000000000E+00 -0.00000000000E+00 -0.16875735274E+03  0.16875735274E+03  0.00000000000E+00 0.  1.
         24    2    1    2    0    0 -0.23059808589E+03  0.25447349703E+03  0.41274296898E+03  0.54285678627E+03  0.80028082856E+02 0.  0.
        254    2    1    2    0    0  0.23059808589E+03 -0.25447349703E+03  0.21535291919E+04  0.23609300800E+04  0.90463839447E+03 0.  0.
         23    2    4    4    0    0  0.41038514582E+03  0.18981264089E+03  0.12692276964E+04  0.13507929176E+04  0.96217224056E+02 0.  0.
         23    2    4    4    0    0 -0.17978705993E+03 -0.44428613793E+03  0.88430149541E+03  0.10101371625E+04  0.93136421057E+02 0.  0.
          4    1    3    3  502    0 -0.21012927375E+03  0.19409060483E+03  0.36195865097E+03  0.46134535825E+03  0.00000000000E+00 0. -1.
         -3    1    3    3    0  502 -0.20468812141E+02  0.60382892202E+02  0.50784318011E+02  0.81511428015E+02  0.00000000000E+00 0.  1.
         13    1    5    5    0    0  0.36388029137E+03  0.15520560799E+03  0.10002223456E+04  0.10756125640E+04  0.00000000000E+00 0.  1.
        -13    1    5    5    0    0  0.46504854456E+02  0.34607032907E+02  0.26900535079E+03  0.27518035353E+03  0.00000000000E+00 0. -1.
          4    1    6    6  503    0 -0.89346264468E+02 -0.11049851639E+03  0.24102347432E+03  0.27979455369E+03  0.00000000000E+00 0. -1.
         -4    1    6    6    0  503 -0.90440795462E+02 -0.33378762153E+03  0.64327802110E+03  0.73034260878E+03  0.00000000000E+00 0.  1.
<mgrwt>
<rscale>  0 0.13587588E+04</rscale>
<asrwt>0</asrwt>
<pdfrwt beam="1">  1        2 0.42077374E+00 0.13587588E+04</pdfrwt>
<pdfrwt beam="2">  1       -1 0.25962672E-01 0.13587588E+04</pdfrwt>
<totfact> 0.37167512E+01</totfact>
</mgrwt>
</event>
<event>
12    7  0.1637954E-007  0.2276553E+04  0.7818608E-02  0.8487224E-01
         -3   -1    0    0    0  501 -0.00000000000E+00  0.00000000000E+00  0.84538544566E+03  0.84538544566E+03  0.00000000000E+00 0.  1.
          2   -1    0    0  501    0  0.00000000000E+00 -0.00000000000E+00 -0.15326425412E+04  0.15326425412E+04  0.00000000000E+00 0. -1.
         24    2    1    2    0    0  0.79132327096E+03 -0.49486134327E+03 -0.52938421174E+02  0.93821477955E+03  0.79776111106E+02 0.  0.
        254    2    1    2    0    0 -0.79132327096E+03  0.49486134327E+03 -0.63431867433E+03  0.14398132073E+04  0.89421564682E+03 0.  0.
         23    2    4    4    0    0 -0.56824853339E+03  0.41287108346E+03  0.48819356088E+02  0.71022287247E+03  0.93082070222E+02 0.  0.
         23    2    4    4    0    0 -0.22307473757E+03  0.81990259806E+02 -0.68313803041E+03  0.72959033480E+03  0.95602022950E+02 0.  0.
          2    1    3    3  502    0  0.72854997731E+03 -0.44511671161E+03 -0.27607625076E+02  0.85421082723E+03  0.00000000000E+00 0. -1.
         -1    1    3    3    0  502  0.62773293655E+02 -0.49744631654E+02 -0.25330796099E+02  0.84003952322E+02  0.00000000000E+00 0.  1.
         13    1    5    5    0    0 -0.50180860133E+03  0.33354457608E+03  0.20297898395E+02  0.60288959295E+03  0.00000000000E+00 0. -1.
        -13    1    5    5    0    0 -0.66439932055E+02  0.79326507378E+02  0.28521457692E+02  0.10733327952E+03  0.00000000000E+00 0.  1.
          1    1    6    6  503    0 -0.50995073244E+02  0.26384767767E+02 -0.30595269433E+03  0.31129359877E+03  0.00000000000E+00 0. -1.
         -1    1    6    6    0  503 -0.17207966433E+03  0.55605492039E+02 -0.37718533608E+03  0.41829673603E+03  0.00000000000E+00 0.  1.
<mgrwt>
<rscale>  0 0.22765533E+04</rscale>
<asrwt>0</asrwt>
<pdfrwt beam="1">  1        2 0.23579116E+00 0.22765533E+04</pdfrwt>
<pdfrwt beam="2">  1       -3 0.13005930E+00 0.22765533E+04</pdfrwt>
<totfact> 0.32517380E+00</totfact>
</mgrwt>
</event>
<event>
12    7  0.1637954E-007  0.1814503E+04  0.7818608E-02  0.8698625E-01
          2   -1    0    0  501    0  0.00000000000E+00  0.00000000000E+00  0.13744339956E+04  0.13744339956E+04  0.00000000000E+00 0. -1.
         -1   -1    0    0    0  501 -0.00000000000E+00 -0.00000000000E+00 -0.59886831937E+03  0.59886831937E+03  0.00000000000E+00 0.  1.
         24    2    1    2    0    0  0.32383392967E+03 -0.54826882403E+03  0.57889492665E+03  0.86420246273E+03  0.79116642219E+02 0.  0.
        254    2    1    2    0    0 -0.32383392967E+03  0.54826882403E+03  0.19667074963E+03  0.11090998523E+04  0.88654158457E+03 0.  0.
         23    2    4    4    0    0 -0.60212654527E+03  0.21250551664E+03  0.93730147993E+02  0.65171159116E+03  0.90706594504E+02 0.  0.
         23    2    4    4    0    0  0.27829261561E+03  0.33576330739E+03  0.10294060164E+03  0.45738826113E+03  0.91779493687E+02 0.  0.
          4    1    3    3  502    0  0.31756876212E+03 -0.50966116102E+03  0.55856609731E+03  0.82012224869E+03  0.00000000000E+00 0. -1.
         -3    1    3    3    0  502  0.62651675476E+01 -0.38607663009E+02  0.20328829335E+02  0.44080214037E+02  0.00000000000E+00 0.  1.
         13    1    5    5    0    0 -0.42346108488E+03  0.11365677149E+03  0.38207847329E+02  0.44011020405E+03  0.00000000000E+00 0.  1.
        -13    1    5    5    0    0 -0.17866546040E+03  0.98848745157E+02  0.55522300664E+02  0.21160138711E+03  0.00000000000E+00 0. -1.
          2    1    6    6  503    0  0.51274366505E+02  0.86163561637E+02 -0.11927678448E+02  0.10097271675E+03  0.00000000000E+00 0. -1.
         -2    1    6    6    0  503  0.22701824910E+03  0.24959974575E+03  0.11486828009E+03  0.35641554438E+03  0.00000000000E+00 0.  1.
<mgrwt>
<rscale>  0 0.18145027E+04</rscale>
<asrwt>0</asrwt>
<pdfrwt beam="1">  1        2 0.21145138E+00 0.18145027E+04</pdfrwt>
<pdfrwt beam="2">  1       -1 0.92133588E-01 0.18145027E+04</pdfrwt>
<totfact> 0.18449151E+01</totfact>
</mgrwt>
</event>
<event>
12    7  0.1637954E-007  0.1998952E+04  0.7818608E-02  0.8607111E-01
         -1   -1    0    0    0  501 -0.00000000000E+00  0.00000000000E+00  0.54193775779E+03  0.54193775779E+03  0.00000000000E+00 0.  1.
          2   -1    0    0  501    0  0.00000000000E+00 -0.00000000000E+00 -0.18432965793E+04  0.18432965793E+04  0.00000000000E+00 0. -1.
         24    2    1    2    0    0  0.20806587902E+03 -0.33125620130E+03 -0.13418322290E+04  0.13999607904E+04  0.79714507924E+02 0.  0.
        254    2    1    2    0    0 -0.20806587902E+03  0.33125620130E+03  0.40473407507E+02  0.98527354675E+03  0.90338462699E+03 0.  0.
         23    2    4    4    0    0  0.13175570687E+03  0.28090959551E+03 -0.33711300543E+03  0.46720451973E+03  0.91461017291E+02 0.  0.
         23    2    4    4    0    0 -0.33982158589E+03  0.50346605785E+02  0.37758641293E+03  0.51806902702E+03  0.88377183544E+02 0.  0.
          2    1    3    3  502    0  0.13692525176E+03 -0.16067428905E+03 -0.80426184700E+03  0.83150578487E+03  0.00000000000E+00 0. -1.
         -1    1    3    3    0  502  0.71140627262E+02 -0.17058191224E+03 -0.53757038204E+03  0.56845500550E+03  0.00000000000E+00 0.  1.
         13    1    5    5    0    0 -0.42540234894E+01 -0.48426548567E+01 -0.11199822413E+02  0.12922230612E+02  0.00000000000E+00 0.  1.
        -13    1    5    5    0    0  0.13600973036E+03  0.28575225037E+03 -0.32591318301E+03  0.45428228912E+03  0.00000000000E+00 0. -1.
          3    1    6    6  503    0 -0.28999513229E+03  0.56148067412E+02  0.35822184109E+03  0.46429803968E+03  0.00000000000E+00 0. -1.
         -3    1    6    6    0  503 -0.49826453607E+02 -0.58014616275E+01  0.19364571847E+02  0.53770987334E+02  0.00000000000E+00 0.  1.
<mgrwt>
<rscale>  0 0.19989517E+04</rscale>
<asrwt>0</asrwt>
<pdfrwt beam="1">  1        2 0.28358409E+00 0.19989517E+04</pdfrwt>
<pdfrwt beam="2">  1       -1 0.83375040E-01 0.19989517E+04</pdfrwt>
<totfact> 0.12330423E+01</totfact>
</mgrwt>
</event>
<event>
12    7  0.1637954E-007  0.2226296E+04  0.7818608E-02  0.8507562E-01
          2   -1    0    0  501    0  0.00000000000E+00  0.00000000000E+00  0.14092765164E+04  0.14092765164E+04  0.00000000000E+00 0. -1.
         -1   -1    0    0    0  501 -0.00000000000E+00 -0.00000000000E+00 -0.87924447962E+03  0.87924447962E+03  0.00000000000E+00 0.  1.
         24    2    1    2    0    0  0.25984419247E+03  0.70961110549E+03  0.77661094327E+03  0.10862325740E+04  0.75562703936E+02 0.  0.
        254    2    1    2    0    0 -0.25984419247E+03 -0.70961110549E+03 -0.24657890647E+03  0.12022884220E+04  0.90201406157E+03 0.  0.
         23    2    4    4    0    0 -0.16784721229E+03 -0.42841682138E+03 -0.58148965279E+03  0.74607900700E+03  0.82401510095E+02 0.  0.
         23    2    4    4    0    0 -0.91996980180E+02 -0.28119428411E+03  0.33491074633E+03  0.45620941504E+03  0.91804970417E+02 0.  0.
          4    1    3    3  502    0  0.18523900193E+03  0.41960350244E+03  0.50105013254E+03  0.67928773168E+03  0.00000000000E+00 0. -1.
         -3    1    3    3    0  502  0.74605190540E+02  0.29000760305E+03  0.27556081072E+03  0.40694484232E+03  0.00000000000E+00 0.  1.
         13    1    5    5    0    0 -0.17572861436E+03 -0.38675739756E+03 -0.52164256259E+03  0.67273530722E+03  0.00000000000E+00 0.  1.
        -13    1    5    5    0    0  0.78814020767E+01 -0.41659423826E+02 -0.59847090204E+02  0.73343699784E+02  0.00000000000E+00 0. -1.
          3    1    6    6  503    0 -0.63079416919E+02 -0.64564039618E+02  0.11466891305E+03  0.14593316165E+03  0.00000000000E+00 0. -1.
         -3    1    6    6    0  503 -0.28917563261E+02 -0.21663024449E+03  0.22024183328E+03  0.31027625339E+03  0.00000000000E+00 0.  1.
<mgrwt>
<rscale>  0 0.22262961E+04</rscale>
<asrwt>0</asrwt>
<pdfrwt beam="1">  1        2 0.21681177E+00 0.22262961E+04</pdfrwt>
<pdfrwt beam="2">  1       -1 0.13526838E+00 0.22262961E+04</pdfrwt>
<totfact> 0.68086671E+00</totfact>
</mgrwt>
</event>
<event>
12    7  0.1637954E-007  0.3079352E+04  0.7818608E-02  0.8221427E-01
          2   -1    0    0  501    0  0.00000000000E+00  0.00000000000E+00  0.23900541073E+04  0.23900541073E+04  0.00000000000E+00 0. -1.
         -1   -1    0    0    0  501 -0.00000000000E+00 -0.00000000000E+00 -0.99186150408E+03  0.99186150408E+03  0.00000000000E+00 0.  1.
         24    2    1    2    0    0  0.11511443894E+04  0.75550925864E+03  0.93891471563E+03  0.16685654821E+04  0.81377390933E+02 0.  0.
        254    2    1    2    0    0 -0.11511443894E+04 -0.75550925864E+03  0.45927788755E+03  0.17133501292E+04  0.91033227030E+03 0.  0.
         23    2    4    4    0    0 -0.10714341823E+04 -0.23705655598E+03  0.42181478613E+03  0.11795792333E+04  0.96500964192E+02 0.  0.
         23    2    4    4    0    0 -0.79710207036E+02 -0.51845270266E+03  0.37463101412E+02  0.53377089593E+03  0.91438303596E+02 0.  0.
          2    1    3    3  502    0  0.91970412734E+03  0.60710230009E+03  0.78969979877E+03  0.13557487440E+04  0.00000000000E+00 0. -1.
         -1    1    3    3    0  502  0.23144026203E+03  0.14840695855E+03  0.14921491686E+03  0.31281673812E+03  0.00000000000E+00 0.  1.
         13    1    5    5    0    0  0.13355349746E+01 -0.30641651330E+01 -0.20768846351E-01  0.33426326414E+01  0.00000000000E+00 0.  1.
        -13    1    5    5    0    0 -0.10727697173E+04 -0.23399239084E+03  0.42183555498E+03  0.11762366007E+04  0.00000000000E+00 0. -1.
          3    1    6    6  503    0 -0.84007449260E+01 -0.33777158655E+03  0.14671737793E+02  0.33819443681E+03  0.00000000000E+00 0. -1.
         -3    1    6    6    0  503 -0.71309462110E+02 -0.18068111611E+03  0.22791363620E+02  0.19557645912E+03  0.00000000000E+00 0.  1.
<mgrwt>
<rscale>  0 0.30793523E+04</rscale>
<asrwt>0</asrwt>
<pdfrwt beam="1">  1        2 0.36770063E+00 0.30793523E+04</pdfrwt>
<pdfrwt beam="2">  1       -1 0.15259408E+00 0.30793523E+04</pdfrwt>
<totfact> 0.12967387E+00</totfact>
</mgrwt>
</event>
<event>
12    7  0.1637954E-007  0.1592693E+04  0.7818608E-02  0.8825050E-01
          2   -1    0    0  501    0  0.00000000000E+00  0.00000000000E+00  0.38188283277E+04  0.38188283277E+04  0.00000000000E+00 0. -1.
         -1   -1    0    0    0  501 -0.00000000000E+00 -0.00000000000E+00 -0.16606334748E+03  0.16606334748E+03  0.00000000000E+00 0.  1.
         24    2    1    2    0    0 -0.37005458865E+03 -0.25284072017E+03  0.15475769152E+04  0.16142638126E+04  0.99922569792E+02 0.  0.
        254    2    1    2    0    0  0.37005458865E+03  0.25284072017E+03  0.21051880650E+04  0.23706278625E+04  0.99357478088E+03 0.  0.
         23    2    4    4    0    0  0.72752485004E+02 -0.26678346451E+02 -0.81390863630E+02  0.14441253335E+03  0.90696465553E+02 0.  0.
         23    2    4    4    0    0  0.29730210364E+03  0.27951906662E+03  0.21865789287E+04  0.22262153292E+04  0.91585103854E+02 0.  0.
          2    1    3    3  502    0 -0.10631168866E+03 -0.10314668010E+03  0.65621112905E+03  0.67272167993E+03  0.00000000000E+00 0. -1.
         -1    1    3    3    0  502 -0.26374289999E+03 -0.14969404007E+03  0.89136578610E+03  0.94154213265E+03  0.00000000000E+00 0.  1.
         13    1    5    5    0    0  0.86276279496E+02  0.25500619113E+00 -0.45476880383E+02  0.97528498816E+02  0.00000000000E+00 0.  1.
        -13    1    5    5    0    0 -0.13523794492E+02 -0.26933352642E+02 -0.35913983247E+02  0.46884034539E+02  0.00000000000E+00 0. -1.
          4    1    6    6  503    0  0.23679974090E+03  0.19340648106E+03  0.17892455502E+04  0.18151803831E+04  0.00000000000E+00 0.  1.
         -4    1    6    6    0  503  0.60502362747E+02  0.86112585561E+02  0.39733337845E+03  0.41103494610E+03  0.00000000000E+00 0. -1.
<mgrwt>
<rscale>  0 0.15926926E+04</rscale>
<asrwt>0</asrwt>
<pdfrwt beam="1">  1        2 0.58751198E+00 0.15926926E+04</pdfrwt>
<pdfrwt beam="2">  1       -1 0.25548210E-01 0.15926926E+04</pdfrwt>
<totfact> 0.71254222E+00</totfact>
</mgrwt>
</event>
<event>
12    7  0.1637954E-007  0.1371036E+04  0.7818608E-02  0.8975055E-01
          2   -1    0    0  501    0  0.00000000000E+00  0.00000000000E+00  0.16283767585E+04  0.16283767585E+04  0.00000000000E+00 0. -1.
         -1   -1    0    0    0  501 -0.00000000000E+00 -0.00000000000E+00 -0.28859116158E+03  0.28859116158E+03  0.00000000000E+00 0.  1.
         24    2    1    2    0    0  0.17282504553E+03  0.31411958606E+02 -0.92900759291E+02  0.21433495090E+03  0.80335002294E+02 0.  0.
        254    2    1    2    0    0 -0.17282504553E+03 -0.31411958606E+02  0.14326863562E+04  0.17026329692E+04  0.90305793004E+03 0.  0.
         23    2    4    4    0    0 -0.15837286132E+03 -0.44851586059E+03  0.65031719007E+03  0.81085561846E+03  0.91246621203E+02 0.  0.
         23    2    4    4    0    0 -0.14452184206E+02  0.41710390198E+03  0.78236916616E+03  0.89177735076E+03  0.94767085434E+02 0.  0.
          4    1    3    3  502    0  0.11284178255E+03  0.15632184898E+02 -0.15222130618E+02  0.11493192052E+03  0.00000000000E+00 0. -1.
         -3    1    3    3    0  502  0.59983262981E+02  0.15779773707E+02 -0.77678628673E+02  0.99403030379E+02  0.00000000000E+00 0.  1.
         13    1    5    5    0    0 -0.36869372114E+02 -0.23176053207E+03  0.28779690425E+03  0.37134802129E+03  0.00000000000E+00 0.  1.
        -13    1    5    5    0    0 -0.12150348921E+03 -0.21675532852E+03  0.36252028582E+03  0.43950759716E+03  0.00000000000E+00 0. -1.
          3    1    6    6  503    0  0.52854406904E+01  0.31239485407E+02  0.21081419019E+02  0.38056110675E+02  0.00000000000E+00 0. -1.
         -3    1    6    6    0  503 -0.19737624896E+02  0.38586441657E+03  0.76128774714E+03  0.85372124008E+03  0.00000000000E+00 0.  1.
<mgrwt>
<rscale>  0 0.13710363E+04</rscale>
<asrwt>0</asrwt>
<pdfrwt beam="1">  1        2 0.25051949E+00 0.13710363E+04</pdfrwt>
<pdfrwt beam="2">  1       -1 0.44398641E-01 0.13710363E+04</pdfrwt>
<totfact> 0.59993377E+01</totfact>
</mgrwt>
</event>
<event>
12    7  0.1637954E-007  0.2385799E+04  0.7818608E-02  0.8444840E-01
         -1   -1    0    0    0  501 -0.00000000000E+00  0.00000000000E+00  0.56511937431E+03  0.56511937431E+03  0.00000000000E+00 0.  1.
          2   -1    0    0  501    0  0.00000000000E+00 -0.00000000000E+00 -0.25180676758E+04  0.25180676758E+04  0.00000000000E+00 0. -1.
         24    2    1    2    0    0 -0.40522781294E+03  0.80445306658E+03 -0.14476270113E+04  0.17071483639E+04  0.85890952933E+02 0.  0.
        254    2    1    2    0    0  0.40522781294E+03 -0.80445306658E+03 -0.50532129016E+03  0.13760386862E+04  0.90927363477E+03 0.  0.
         23    2    4    4    0    0  0.46346505833E+03 -0.29369504771E+03 -0.62835536156E+03  0.83982814498E+03  0.97078377418E+02 0.  0.
         23    2    4    4    0    0 -0.58237245383E+02 -0.51075801886E+03  0.12303407140E+03  0.53621054120E+03  0.90105666779E+02 0.  0.
          4    1    3    3  502    0 -0.25717455372E+03  0.46016645597E+03 -0.91277448670E+03  0.10540631774E+04  0.00000000000E+00 0. -1.
         -3    1    3    3    0  502 -0.14805325922E+03  0.34428661061E+03 -0.53485252462E+03  0.65308518656E+03  0.00000000000E+00 0.  1.
         13    1    5    5    0    0  0.23117530128E+03 -0.17908040922E+03 -0.27271621355E+03  0.39985740711E+03  0.00000000000E+00 0.  1.
        -13    1    5    5    0    0  0.23228975705E+03 -0.11461463849E+03 -0.35563914801E+03  0.43997073787E+03  0.00000000000E+00 0. -1.
          3    1    6    6  503    0 -0.38514281881E+02 -0.32875199894E+03  0.12306879918E+03  0.35313900386E+03  0.00000000000E+00 0. -1.
         -3    1    6    6    0  503 -0.19722963502E+02 -0.18200601992E+03 -0.34727781560E-01  0.18307153734E+03  0.00000000000E+00 0.  1.
<mgrwt>
<rscale>  0 0.23857987E+04</rscale>
<asrwt>0</asrwt>
<pdfrwt beam="1">  1        2 0.38739503E+00 0.23857987E+04</pdfrwt>
<pdfrwt beam="2">  1       -1 0.86941442E-01 0.23857987E+04</pdfrwt>
<totfact> 0.45353099E+00</totfact>
</mgrwt>
</event>
<event>
12    7  0.1637954E-007  0.2079745E+04  0.7818608E-02  0.8570219E-01
          2   -1    0    0  501    0  0.00000000000E+00  0.00000000000E+00  0.16058875346E+04  0.16058875346E+04  0.00000000000E+00 0. -1.
         -1   -1    0    0    0  501 -0.00000000000E+00 -0.00000000000E+00 -0.67335649627E+03  0.67335649627E+03  0.00000000000E+00 0.  1.
         24    2    1    2    0    0  0.22257563772E+03 -0.78623622066E+03  0.16409173321E+03  0.83745359293E+03  0.81823677674E+02 0.  0.
        254    2    1    2    0    0 -0.22257563772E+03  0.78623622066E+03  0.76843930517E+03  0.14417904380E+04  0.90584402199E+03 0.  0.
         23    2    4    4    0    0 -0.24947319137E+03  0.96426358664E+03  0.53604156214E+03  0.11345384364E+04  0.88293654968E+02 0.  0.
         23    2    4    4    0    0  0.26897553652E+02 -0.17802736598E+03  0.23239774303E+03  0.30725200163E+03  0.89318867607E+02 0.  0.
          2    1    3    3  502    0  0.65472743603E+02 -0.12377638160E+03  0.18702688380E+02  0.14126947069E+03  0.00000000000E+00 0. -1.
         -1    1    3    3    0  502  0.15710289411E+03 -0.66245983905E+03  0.14538904483E+03  0.69618412224E+03  0.00000000000E+00 0.  1.
         13    1    5    5    0    0 -0.64671243763E+02  0.39606346761E+03  0.24172283790E+03  0.46848540053E+03  0.00000000000E+00 0. -1.
        -13    1    5    5    0    0 -0.18480194761E+03  0.56820011902E+03  0.29431872424E+03  0.66605303582E+03  0.00000000000E+00 0.  1.
          3    1    6    6  503    0  0.56771881065E+02 -0.10491181146E+03  0.16383776034E+03  0.20266313522E+03  0.00000000000E+00 0. -1.
         -3    1    6    6    0  503 -0.29874327413E+02 -0.73115554520E+02  0.68559982696E+02  0.10458886642E+03  0.00000000000E+00 0.  1.
<mgrwt>
<rscale>  0 0.20797450E+04</rscale>
<asrwt>0</asrwt>
<pdfrwt beam="1">  1        2 0.24705962E+00 0.20797450E+04</pdfrwt>
<pdfrwt beam="2">  1       -1 0.10359331E+00 0.20797450E+04</pdfrwt>
<totfact> 0.10223179E+01</totfact>
</mgrwt>
</event>
<event>
12    7  0.1637954E-007  0.1805881E+04  0.7818608E-02  0.8703178E-01
          2   -1    0    0  501    0  0.00000000000E+00  0.00000000000E+00  0.15263001012E+04  0.15263001012E+04  0.00000000000E+00 0. -1.
         -1   -1    0    0    0  501 -0.00000000000E+00 -0.00000000000E+00 -0.53416860411E+03  0.53416860411E+03  0.00000000000E+00 0.  1.
         24    2    1    2    0    0  0.59756389702E+02  0.35062889155E+03  0.10220657407E+04  0.10851123277E+04  0.79617459163E+02 0.  0.
        254    2    1    2    0    0 -0.59756389702E+02 -0.35062889155E+03 -0.29934243604E+02  0.97535637758E+03  0.90769629207E+03 0.  0.
         23    2    4    4    0    0 -0.17563074531E+03 -0.62596912333E+03 -0.79775216810E+02  0.66123159605E+03  0.90441341950E+02 0.  0.
         23    2    4    4    0    0  0.11587435561E+03  0.27534023179E+03  0.49840973205E+02  0.31412478153E+03  0.83373534352E+02 0.  0.
          4    1    3    3  502    0  0.54947183990E+02  0.29106718362E+03  0.74603560892E+03  0.80268825093E+03  0.00000000000E+00 0. -1.
         -3    1    3    3    0  502  0.48092057116E+01  0.59561707925E+02  0.27603013174E+03  0.28242407676E+03  0.00000000000E+00 0.  1.
         13    1    5    5    0    0 -0.95328161967E+02 -0.35792979610E+03 -0.90186648203E+02  0.38122805369E+03  0.00000000000E+00 0. -1.
        -13    1    5    5    0    0 -0.80302583344E+02 -0.26803932723E+03  0.10411431393E+02  0.28000354237E+03  0.00000000000E+00 0.  1.
          4    1    6    6  503    0  0.98369471839E+02  0.26064793828E+03  0.65790886495E+02  0.28625572740E+03  0.00000000000E+00 0. -1.
         -4    1    6    6    0  503  0.17504883770E+02  0.14692293505E+02 -0.15949913289E+02  0.27869054131E+02  0.00000000000E+00 0.  1.
<mgrwt>
<rscale>  0 0.18058811E+04</rscale>
<asrwt>0</asrwt>
<pdfrwt beam="1">  1        2 0.23481540E+00 0.18058811E+04</pdfrwt>
<pdfrwt beam="2">  1       -1 0.82179786E-01 0.18058811E+04</pdfrwt>
<totfact> 0.19423123E+01</totfact>
</mgrwt>
</event>
<event>
12    7  0.1637954E-007  0.1744725E+04  0.7818608E-02  0.8736259E-01
          2   -1    0    0  501    0  0.00000000000E+00  0.00000000000E+00  0.18127411260E+04  0.18127411260E+04  0.00000000000E+00 0. -1.
         -1   -1    0    0    0  501 -0.00000000000E+00 -0.00000000000E+00 -0.41981546286E+03  0.41981546286E+03  0.00000000000E+00 0.  1.
         24    2    1    2    0    0 -0.46154503754E+03  0.20836902251E+03  0.12828559248E+02  0.51289138066E+03  0.80321386965E+02 0.  0.
        254    2    1    2    0    0  0.46154503754E+03 -0.20836902251E+03  0.13800971039E+04  0.17196652082E+04  0.89226618279E+03 0.  0.
         23    2    4    4    0    0  0.19046267035E+03 -0.51998772039E+03  0.54639477033E+03  0.78378974290E+03  0.95477001840E+02 0.  0.
         23    2    4    4    0    0  0.27108236719E+03  0.31161869788E+03  0.83370233358E+03  0.93587546533E+03  0.10105168440E+03 0.  0.
          2    1    3    3  502    0 -0.50929604288E+02  0.51883918351E+02 -0.68691759806E+01  0.73027057691E+02  0.00000000000E+00 0. -1.
         -1    1    3    3    0  502 -0.41061543325E+03  0.15648510416E+03  0.19697735228E+02  0.43986432296E+03  0.00000000000E+00 0.  1.
         13    1    5    5    0    0  0.16345674890E+03 -0.50309905905E+03  0.52585863651E+03  0.74589146500E+03  0.00000000000E+00 0. -1.
        -13    1    5    5    0    0  0.27005921447E+02 -0.16888661340E+02  0.20536133821E+02  0.37898277895E+02  0.00000000000E+00 0.  1.
          4    1    6    6  503    0  0.22870837401E+03  0.20461420951E+03  0.65491029446E+03  0.72324407282E+03  0.00000000000E+00 0. -1.
         -4    1    6    6    0  503  0.42373993175E+02  0.10700448836E+03  0.17879203912E+03  0.21263139251E+03  0.00000000000E+00 0.  1.
<mgrwt>
<rscale>  0 0.17447255E+04</rscale>
<asrwt>0</asrwt>
<pdfrwt beam="1">  1        2 0.27888325E+00 0.17447255E+04</pdfrwt>
<pdfrwt beam="2">  1       -1 0.64586995E-01 0.17447255E+04</pdfrwt>
<totfact> 0.22286405E+01</totfact>
</mgrwt>
</event>
<event>
12    7  0.1637954E-007  0.1603351E+04  0.7818608E-02  0.8818492E-01
          2   -1    0    0  501    0  0.00000000000E+00  0.00000000000E+00  0.11548664293E+04  0.11548664293E+04  0.00000000000E+00 0. -1.
         -1   -1    0    0    0  501 -0.00000000000E+00 -0.00000000000E+00 -0.55650050582E+03  0.55650050582E+03  0.00000000000E+00 0.  1.
         24    2    1    2    0    0 -0.68626661984E+02 -0.48790660887E+03  0.44507979098E+03  0.66892791171E+03  0.81277629163E+02 0.  0.
        254    2    1    2    0    0  0.68626661984E+02  0.48790660887E+03  0.15328613252E+03  0.10424390234E+04  0.90577039111E+03 0.  0.
         23    2    4    4    0    0 -0.24185483637E+03 -0.13779096546E+03  0.16866104617E+03  0.33780753965E+03  0.90483552712E+02 0.  0.
         23    2    4    4    0    0  0.31048149836E+03  0.62569757434E+03 -0.15374913659E+02  0.70463148377E+03  0.91503686247E+02 0.  0.
          4    1    3    3  502    0 -0.38840408801E+02 -0.37567309006E+03  0.29534986182E+03  0.47944800430E+03  0.00000000000E+00 0. -1.
         -3    1    3    3    0  502 -0.29786253184E+02 -0.11223351882E+03  0.14972992916E+03  0.18947990741E+03  0.00000000000E+00 0.  1.
         13    1    5    5    0    0 -0.40193750058E+02  0.10132961165E+02  0.34899441627E+02  0.54186580180E+02  0.00000000000E+00 0.  1.
        -13    1    5    5    0    0 -0.20166108631E+03 -0.14792392663E+03  0.13376160455E+03  0.28362095947E+03  0.00000000000E+00 0. -1.
          4    1    6    6  503    0  0.19027737748E+03  0.38199248098E+03 -0.54001015273E+02  0.43016258037E+03  0.00000000000E+00 0. -1.
         -4    1    6    6    0  503  0.12020412088E+03  0.24370509336E+03  0.38626101614E+02  0.27446890340E+03  0.00000000000E+00 0.  1.
<mgrwt>
<rscale>  0 0.16033512E+04</rscale>
<asrwt>0</asrwt>
<pdfrwt beam="1">  1        2 0.17767176E+00 0.16033512E+04</pdfrwt>
<pdfrwt beam="2">  1       -1 0.85615462E-01 0.16033512E+04</pdfrwt>
<totfact> 0.29717641E+01</totfact>
</mgrwt>
</event>
<event>
12    7  0.1637954E-007  0.2158155E+04  0.7818608E-02  0.8536049E-01
          2   -1    0    0  501    0  0.00000000000E+00  0.00000000000E+00  0.24601698339E+04  0.24601698339E+04  0.00000000000E+00 0. -1.
         -1   -1    0    0    0  501 -0.00000000000E+00 -0.00000000000E+00 -0.47330422835E+03  0.47330422835E+03  0.00000000000E+00 0.  1.
         24    2    1    2    0    0 -0.10915376552E+03 -0.81450714842E+03  0.37864868974E+03  0.90940923623E+03  0.91180531633E+02 0.  0.
        254    2    1    2    0    0  0.10915376552E+03  0.81450714842E+03  0.16082169158E+04  0.20240648260E+04  0.91386012730E+03 0.  0.
         23    2    4    4    0    0  0.41754195414E+03  0.63755189205E+03  0.67734270971E+03  0.10234709287E+04  0.88802572981E+02 0.  0.
         23    2    4    4    0    0 -0.30838818862E+03  0.17695525638E+03  0.93087420611E+03  0.10005938973E+04  0.90801553593E+02 0.  0.
          4    1    3    3  502    0 -0.38056792342E+02 -0.39214884645E+03  0.22905429586E+03  0.45573556770E+03  0.00000000000E+00 0. -1.
         -3    1    3    3    0  502 -0.71096973178E+02 -0.42235830197E+03  0.14959439387E+03  0.45367366853E+03  0.00000000000E+00 0.  1.
         13    1    5    5    0    0  0.39471163123E+03  0.59470651220E+03  0.60150377541E+03  0.93342375121E+03  0.00000000000E+00 0. -1.
        -13    1    5    5    0    0  0.22830322909E+02  0.42845379847E+02  0.75838934294E+02  0.90047177486E+02  0.00000000000E+00 0.  1.
          1    1    6    6  503    0 -0.24598557928E+03  0.11353611701E+03  0.77662480494E+03  0.82252382502E+03  0.00000000000E+00 0. -1.
         -1    1    6    6    0  503 -0.62402609343E+02  0.63419139371E+02  0.15424940116E+03  0.17807007231E+03  0.00000000000E+00 0.  1.
<mgrwt>
<rscale>  0 0.21581555E+04</rscale>
<asrwt>0</asrwt>
<pdfrwt beam="1">  1        2 0.37848766E+00 0.21581555E+04</pdfrwt>
<pdfrwt beam="2">  1       -1 0.72816036E-01 0.21581555E+04</pdfrwt>
<totfact> 0.72874056E+00</totfact>
</mgrwt>
</event>
<event>
12    7  0.1637954E-007  0.1801429E+04  0.7818608E-02  0.8705540E-01
         -1   -1    0    0    0  501 -0.00000000000E+00  0.00000000000E+00  0.58114979582E+03  0.58114979582E+03  0.00000000000E+00 0.  1.
          2   -1    0    0  501    0  0.00000000000E+00 -0.00000000000E+00 -0.13960027393E+04  0.13960027393E+04  0.00000000000E+00 0. -1.
         24    2    1    2    0    0  0.27176058624E+03  0.35663692305E+03  0.25391999621E+03  0.52135265017E+03  0.79306432631E+02 0.  0.
        254    2    1    2    0    0 -0.27176058624E+03 -0.35663692305E+03 -0.10687729396E+04  0.14557998849E+04  0.88092791831E+03 0.  0.
         23    2    4    4    0    0 -0.26634946854E+03 -0.10139730572E+03 -0.11388003883E+04  0.11774397946E+04  0.90965336741E+02 0.  0.
         23    2    4    4    0    0 -0.54111176928E+01 -0.25523961733E+03  0.70027448672E+02  0.27836009030E+03  0.86046230929E+02 0.  0.
          4    1    3    3  502    0  0.20208617891E+03  0.20203876981E+03  0.16062321237E+03  0.32780833511E+03  0.00000000000E+00 0. -1.
         -3    1    3    3    0  502  0.69674407324E+02  0.15459815323E+03  0.93296783836E+02  0.19354431506E+03  0.00000000000E+00 0.  1.
         13    1    5    5    0    0 -0.77332486780E+02 -0.28698709755E+02 -0.51570727690E+03  0.52226231427E+03  0.00000000000E+00 0. -1.
        -13    1    5    5    0    0 -0.18901698176E+03 -0.72698595965E+02 -0.62309311141E+03  0.65517748033E+03  0.00000000000E+00 0.  1.
          2    1    6    6  503    0 -0.15349891457E+02 -0.17533143989E+03  0.70667088166E+01  0.17614389389E+03  0.00000000000E+00 0. -1.
         -2    1    6    6    0  503  0.99387737644E+01 -0.79908177434E+02  0.62960739855E+02  0.10221619641E+03  0.00000000000E+00 0.  1.
<mgrwt>
<rscale>  0 0.18014291E+04</rscale>
<asrwt>0</asrwt>
<pdfrwt beam="1">  1        2 0.21476965E+00 0.18014291E+04</pdfrwt>
<pdfrwt beam="2">  1       -1 0.89407661E-01 0.18014291E+04</pdfrwt>
<totfact> 0.19183314E+01</totfact>
</mgrwt>
</event>
<event>
12    7  0.1637954E-007  0.1149766E+04  0.7818608E-02  0.9158000E-01
         -1   -1    0    0    0  501 -0.00000000000E+00  0.00000000000E+00  0.66752916437E+03  0.66752916437E+03  0.00000000000E+00 0.  1.
          2   -1    0    0  501    0  0.00000000000E+00 -0.00000000000E+00 -0.49509488061E+03  0.49509488061E+03  0.00000000000E+00 0. -1.
         24    2    1    2    0    0  0.16450767158E+03 -0.61992331721E+02  0.20605029905E+03  0.28227594130E+03  0.79480551711E+02 0.  0.
        254    2    1    2    0    0 -0.16450767158E+03  0.61992331721E+02 -0.33616015292E+02  0.88034810367E+03  0.86196109190E+03 0.  0.
         23    2    4    4    0    0  0.19939392819E+03 -0.11461062904E+03 -0.29891724023E+03  0.38788151296E+03  0.90592586332E+02 0.  0.
         23    2    4    4    0    0 -0.36390159977E+03  0.17660296076E+03  0.26530122494E+03  0.49246659071E+03  0.92334299956E+02 0.  0.
          2    1    3    3  502    0 -0.28013648377E+01  0.99477071063E+01  0.16039343773E+02  0.19080489257E+02  0.00000000000E+00 0. -1.
         -1    1    3    3    0  502  0.16730903641E+03 -0.71940038827E+02  0.19001095527E+03  0.26319545204E+03  0.00000000000E+00 0.  1.
         13    1    5    5    0    0  0.13593951962E+02  0.15297054251E+02 -0.25734490591E+02  0.32879467829E+02  0.00000000000E+00 0. -1.
        -13    1    5    5    0    0  0.18579997623E+03 -0.12990768329E+03 -0.27318274964E+03  0.35500204513E+03  0.00000000000E+00 0.  1.
          4    1    6    6  503    0 -0.16818792816E+03  0.10752148160E+03  0.82867137281E+02  0.21613655550E+03  0.00000000000E+00 0. -1.
         -4    1    6    6    0  503 -0.19571367161E+03  0.69081479163E+02  0.18243408766E+03  0.27633003521E+03  0.00000000000E+00 0.  1.
<mgrwt>
<rscale>  0 0.11497657E+04</rscale>
<asrwt>0</asrwt>
<pdfrwt beam="1">  1        2 0.76168443E-01 0.11497657E+04</pdfrwt>
<pdfrwt beam="2">  1       -1 0.10269679E+00 0.11497657E+04</pdfrwt>
<totfact> 0.63248474E+01</totfact>
</mgrwt>
</event>
<event>
12    7  0.1637954E-007  0.2692857E+04  0.7818608E-02  0.8337326E-01
         -1   -1    0    0    0  501 -0.00000000000E+00  0.00000000000E+00  0.13195975647E+04  0.13195975647E+04  0.00000000000E+00 0.  1.
          2   -1    0    0  501    0  0.00000000000E+00 -0.00000000000E+00 -0.13738052590E+04  0.13738052590E+04  0.00000000000E+00 0. -1.
         24    2    1    2    0    0  0.62470515116E+03  0.85742782199E+01 -0.10426766526E+04  0.12180954468E+04  0.79068777018E+02 0.  0.
        254    2    1    2    0    0 -0.62470515116E+03 -0.85742782199E+01  0.98846895821E+03  0.14753073769E+04  0.89951705421E+03 0.  0.
         23    2    4    4    0    0 -0.30457178003E+03 -0.35682453187E+03  0.84775469625E+03  0.97323996572E+03  0.91762138851E+02 0.  0.
         23    2    4    4    0    0 -0.32013337113E+03  0.34825025365E+03  0.14071426197E+03  0.50206741117E+03  0.92236475168E+02 0.  0.
          2    1    3    3  502    0  0.53348519991E+03  0.24624706718E+02 -0.84213656804E+03  0.99719949555E+03  0.00000000000E+00 0. -1.
         -1    1    3    3    0  502  0.91219951249E+02 -0.16050428498E+02 -0.20054008453E+03  0.22089595121E+03  0.00000000000E+00 0.  1.
         13    1    5    5    0    0 -0.77030004854E+00 -0.28872196836E+02  0.76782509725E+02  0.82035059041E+02  0.00000000000E+00 0.  1.
        -13    1    5    5    0    0 -0.30380147998E+03 -0.32795233504E+03  0.77097218652E+03  0.89120490668E+03  0.00000000000E+00 0. -1.
          4    1    6    6  503    0 -0.23427398031E+03  0.30426652962E+03  0.96498211551E+02  0.39594737495E+03  0.00000000000E+00 0. -1.
         -4    1    6    6    0  503 -0.85859390827E+02  0.43983724039E+02  0.44216050416E+02  0.10612003622E+03  0.00000000000E+00 0.  1.
<mgrwt>
<rscale>  0 0.26928573E+04</rscale>
<asrwt>0</asrwt>
<pdfrwt beam="1">  1        2 0.21135466E+00 0.26928573E+04</pdfrwt>
<pdfrwt beam="2">  1       -1 0.20301501E+00 0.26928573E+04</pdfrwt>
<totfact> 0.21493292E+00</totfact>
</mgrwt>
</event>
<event>
12    7  0.1637954E-007  0.1772330E+04  0.7818608E-02  0.8721154E-01
          2   -1    0    0  501    0  0.00000000000E+00  0.00000000000E+00  0.14455470943E+04  0.14455470943E+04  0.00000000000E+00 0. -1.
         -1   -1    0    0    0  501 -0.00000000000E+00 -0.00000000000E+00 -0.54324666274E+03  0.54324666274E+03  0.00000000000E+00 0.  1.
         24    2    1    2    0    0 -0.34969430013E+03 -0.45504194284E+03 -0.37543771675E+02  0.58110301907E+03  0.83198020971E+02 0.  0.
        254    2    1    2    0    0  0.34969430013E+03  0.45504194284E+03  0.93984420323E+03  0.14076907380E+04  0.87689042312E+03 0.  0.
         23    2    4    4    0    0  0.39778932982E+03  0.59752014237E+02  0.31673840501E+02  0.41194099751E+03  0.82978907784E+02 0.  0.
         23    2    4    4    0    0 -0.48095029692E+02  0.39528992860E+03  0.90817036273E+03  0.99574974046E+03  0.90426093344E+02 0.  0.
          4    1    3    3  502    0 -0.90122058588E+02 -0.12058839022E+03 -0.46759776837E+02  0.15763889758E+03  0.00000000000E+00 0. -1.
         -3    1    3    3    0  502 -0.25957224154E+03 -0.33445355262E+03  0.92160051615E+01  0.42346412149E+03  0.00000000000E+00 0.  1.
         13    1    5    5    0    0  0.20351571457E+03 -0.10658119752E+02  0.80216857192E+01  0.20395241856E+03  0.00000000000E+00 0.  1.
        -13    1    5    5    0    0  0.19427361525E+03  0.70410133989E+02  0.23652154782E+02  0.20798857895E+03  0.00000000000E+00 0. -1.
          1    1    6    6  503    0 -0.89688351859E+01  0.46070465839E+01  0.63333540218E+02  0.64131132840E+02  0.00000000000E+00 0. -1.
         -1    1    6    6    0  503 -0.39126194506E+02  0.39068288202E+03  0.84483682251E+03  0.93161860762E+03  0.00000000000E+00 0.  1.
<mgrwt>
<rscale>  0 0.17723303E+04</rscale>
<asrwt>0</asrwt>
<pdfrwt beam="1">  1        2 0.22239186E+00 0.17723303E+04</pdfrwt>
<pdfrwt beam="2">  1       -1 0.83576410E-01 0.17723303E+04</pdfrwt>
<totfact> 0.20869793E+01</totfact>
</mgrwt>
</event>
<event>
12    7  0.1637954E-007  0.2781190E+04  0.7818608E-02  0.8309132E-01
          2   -1    0    0  501    0  0.00000000000E+00  0.00000000000E+00  0.17864021902E+04  0.17864021902E+04  0.00000000000E+00 0. -1.
         -1   -1    0    0    0  501 -0.00000000000E+00 -0.00000000000E+00 -0.10824854398E+04  0.10824854398E+04  0.00000000000E+00 0.  1.
         24    2    1    2    0    0  0.64162582491E+03  0.86882265428E+03 -0.31754808301E+03  0.11286171303E+04  0.80020859799E+02 0.  0.
        254    2    1    2    0    0 -0.64162582491E+03 -0.86882265428E+03  0.10214648334E+04  0.17402704998E+04  0.90477317752E+03 0.  0.
         23    2    4    4    0    0 -0.53052607553E+03 -0.22817408060E+03  0.89866098051E+03  0.10723389378E+04  0.93797184743E+02 0.  0.
         23    2    4    4    0    0 -0.11109974938E+03 -0.64064857368E+03  0.12280385290E+03  0.66793156194E+03  0.90983712186E+02 0.  0.
          2    1    3    3  502    0  0.21687101485E+03  0.33442695326E+03 -0.85867156108E+02  0.40773470866E+03  0.00000000000E+00 0. -1.
         -1    1    3    3    0  502  0.42475481006E+03  0.53439570102E+03 -0.23168092690E+03  0.72088242164E+03  0.00000000000E+00 0.  1.
         13    1    5    5    0    0 -0.72767977381E+02  0.73914166956E+00  0.12716608637E+03  0.14651600044E+03  0.00000000000E+00 0. -1.
        -13    1    5    5    0    0 -0.45775809815E+03 -0.22891322227E+03  0.77149489414E+03  0.92582293741E+03  0.00000000000E+00 0.  1.
          3    1    6    6  503    0 -0.70858614354E+02 -0.22348762939E+03  0.74794952836E+02  0.24609337393E+03  0.00000000000E+00 0. -1.
         -3    1    6    6    0  503 -0.40241135030E+02 -0.41716094428E+03  0.48008900068E+02  0.42183818802E+03  0.00000000000E+00 0.  1.
<mgrwt>
<rscale>  0 0.27811899E+04</rscale>
<asrwt>0</asrwt>
<pdfrwt beam="1">  1        2 0.27483111E+00 0.27811899E+04</pdfrwt>
<pdfrwt beam="2">  1       -1 0.16653622E+00 0.27811899E+04</pdfrwt>
<totfact> 0.22731819E+00</totfact>
</mgrwt>
</event>
<event>
12    7  0.1637954E-007  0.2133931E+04  0.7818608E-02  0.8546442E-01
          2   -1    0    0  501    0  0.00000000000E+00  0.00000000000E+00  0.17265564354E+04  0.17265564354E+04  0.00000000000E+00 0. -1.
         -1   -1    0    0    0  501 -0.00000000000E+00 -0.00000000000E+00 -0.65935571024E+03  0.65935571024E+03  0.00000000000E+00 0.  1.
         24    2    1    2    0    0 -0.27193695010E+03  0.63304972660E+03 -0.16872758173E+03  0.71410216785E+03  0.82287593927E+02 0.  0.
        254    2    1    2    0    0  0.27193695010E+03 -0.63304972660E+03  0.12359283069E+04  0.16718099778E+04  0.89035282944E+03 0.  0.
         23    2    4    4    0    0  0.48336273971E+03 -0.20603456754E+03  0.99684339688E+03  0.11305139929E+04  0.90968945570E+02 0.  0.
         23    2    4    4    0    0 -0.21142578960E+03 -0.42701515906E+03  0.23908491004E+03  0.54129598493E+03  0.93791995988E+02 0.  0.
          2    1    3    3  502    0 -0.16679455458E+03  0.44190857399E+03 -0.82302180207E+02  0.47945517003E+03  0.00000000000E+00 0. -1.
         -3    1    3    3    0  502 -0.10514239553E+03  0.19114115261E+03 -0.86425401522E+02  0.23464699782E+03  0.00000000000E+00 0.  1.
         13    1    5    5    0    0  0.19721490890E+03 -0.96197605867E+02  0.32601043043E+03  0.39297646292E+03  0.00000000000E+00 0.  1.
        -13    1    5    5    0    0  0.28614783081E+03 -0.10983696167E+03  0.67083296645E+03  0.73753752996E+03  0.00000000000E+00 0. -1.
          3    1    6    6  503    0 -0.24930704592E+02 -0.12452315283E+03  0.36003991669E+02  0.13199940545E+03  0.00000000000E+00 0. -1.
         -3    1    6    6    0  503 -0.18649508501E+03 -0.30249200623E+03  0.20308091837E+03  0.40929657948E+03  0.00000000000E+00 0.  1.
<mgrwt>
<rscale>  0 0.21339305E+04</rscale>
<asrwt>0</asrwt>
<pdfrwt beam="1">  1        2 0.26562406E+00 0.21339305E+04</pdfrwt>
<pdfrwt beam="2">  1       -1 0.10143934E+00 0.21339305E+04</pdfrwt>
<totfact> 0.91488476E+00</totfact>
</mgrwt>
</event>
<event>
12    7  0.1637954E-007  0.1179299E+04  0.7818608E-02  0.9131172E-01
         -1   -1    0    0    0  501 -0.00000000000E+00  0.00000000000E+00  0.47303082372E+03  0.47303082372E+03  0.00000000000E+00 0.  1.
          2   -1    0    0  501    0  0.00000000000E+00 -0.00000000000E+00 -0.73501858564E+03  0.73501858564E+03  0.00000000000E+00 0. -1.
         24    2    1    2    0    0  0.26406113015E+03 -0.32931971543E+02 -0.65648864925E+02  0.28709782740E+03  0.85455215348E+02 0.  0.
        254    2    1    2    0    0 -0.26406113015E+03  0.32931971543E+02 -0.19633889699E+03  0.92095158196E+03  0.85952897487E+03 0.  0.
         23    2    4    4    0    0 -0.55575245532E+03  0.12728263492E+03 -0.97396850694E+02  0.58545918990E+03  0.90634738199E+02 0.  0.
         23    2    4    4    0    0  0.29169132517E+03 -0.94350663378E+02 -0.98942046300E+02  0.33549239206E+03  0.93700265465E+02 0.  0.
          4    1    3    3  502    0  0.17064333714E+03 -0.96753579920E+01 -0.81799497487E+02  0.18948329439E+03  0.00000000000E+00 0. -1.
         -3    1    3    3    0  502  0.93417793007E+02 -0.23256613551E+02  0.16150632561E+02  0.97614533018E+02  0.00000000000E+00 0.  1.
         13    1    5    5    0    0 -0.35302018178E+03  0.44139959264E+02 -0.34200630237E+02  0.35740910433E+03  0.00000000000E+00 0.  1.
        -13    1    5    5    0    0 -0.20273227354E+03  0.83142675657E+02 -0.63196220457E+02  0.22805008557E+03  0.00000000000E+00 0. -1.
          4    1    6    6  503    0  0.28624547769E+03 -0.80023176513E+02 -0.74126516512E+02  0.30632486469E+03  0.00000000000E+00 0. -1.
         -4    1    6    6    0  503  0.54458474823E+01 -0.14327486864E+02 -0.24815529787E+02  0.29167527377E+02  0.00000000000E+00 0.  1.
<mgrwt>
<rscale>  0 0.11792989E+04</rscale>
<asrwt>0</asrwt>
<pdfrwt beam="1">  1        2 0.11307978E+00 0.11792989E+04</pdfrwt>
<pdfrwt beam="2">  1       -1 0.72773973E-01 0.11792989E+04</pdfrwt>
<totfact> 0.82723631E+01</totfact>
</mgrwt>
</event>
<event>
12    7  0.1637954E-007  0.1348571E+04  0.7818608E-02  0.8991911E-01
         -1   -1    0    0    0  501 -0.00000000000E+00  0.00000000000E+00  0.10785312000E+04  0.10785312000E+04  0.00000000000E+00 0.  1.
          2   -1    0    0  501    0  0.00000000000E+00 -0.00000000000E+00 -0.42155562432E+03  0.42155562432E+03  0.00000000000E+00 0. -1.
         24    2    1    2    0    0 -0.41036601658E+02  0.30309151245E+03  0.40880395915E+03  0.51524803083E+03  0.69364174235E+02 0.  0.
        254    2    1    2    0    0  0.41036601658E+02 -0.30309151245E+03  0.24817161650E+03  0.98483879345E+03  0.90264601603E+03 0.  0.
         23    2    4    4    0    0  0.16207743259E+03  0.27824673152E+03 -0.62749151413E+00  0.33390972292E+03  0.88345750074E+02 0.  0.
         23    2    4    4    0    0 -0.12104083093E+03 -0.58133824397E+03  0.24879910801E+03  0.65092907053E+03  0.95930297922E+02 0.  0.
          2    1    3    3  502    0 -0.24834814661E+02  0.75783734574E+02  0.65531581727E+02  0.10321981713E+03  0.00000000000E+00 0. -1.
         -1    1    3    3    0  502 -0.16201786997E+02  0.22730777787E+03  0.34327237742E+03  0.41202821370E+03  0.00000000000E+00 0.  1.
         13    1    5    5    0    0  0.14628409554E+03  0.26405788232E+03  0.22261865435E+02  0.30268992794E+03  0.00000000000E+00 0. -1.
        -13    1    5    5    0    0  0.15793337051E+02  0.14188849198E+02 -0.22889356950E+02  0.31219794976E+02  0.00000000000E+00 0.  1.
          1    1    6    6  503    0 -0.13715357080E+03 -0.49560266531E+03  0.21525816133E+03  0.55746675225E+03  0.00000000000E+00 0. -1.
         -1    1    6    6    0  503  0.16112739865E+02 -0.85735578656E+02  0.33540946682E+02  0.93462318277E+02  0.00000000000E+00 0.  1.
<mgrwt>
<rscale>  0 0.13485709E+04</rscale>
<asrwt>0</asrwt>
<pdfrwt beam="1">  1        2 0.64854712E-01 0.13485709E+04</pdfrwt>
<pdfrwt beam="2">  1       -1 0.16592788E+00 0.13485709E+04</pdfrwt>
<totfact> 0.22086486E+01</totfact>
</mgrwt>
</event>
<event>
12    7  0.1637954E-007  0.4006072E+04  0.7818608E-02  0.8003323E-01
         -1   -1    0    0    0  501 -0.00000000000E+00  0.00000000000E+00  0.16349520802E+04  0.16349520802E+04  0.00000000000E+00 0.  1.
          2   -1    0    0  501    0  0.00000000000E+00 -0.00000000000E+00 -0.24539883899E+04  0.24539883899E+04  0.00000000000E+00 0. -1.
         24    2    1    2    0    0  0.63017258067E+03  0.11307835299E+03  0.14371183675E+04  0.15751219328E+04  0.76129531196E+02 0.  0.
        254    2    1    2    0    0 -0.63017258067E+03 -0.11307835299E+03 -0.22561546772E+04  0.25138185372E+04  0.90506658054E+03 0.  0.
         23    2    4    4    0    0 -0.84150766079E+03 -0.15344173476E+03 -0.15886347422E+04  0.18064723810E+04  0.88896626019E+02 0.  0.
         23    2    4    4    0    0  0.21133508012E+03  0.40363381769E+02 -0.66751993508E+03  0.70734615626E+03  0.92000012899E+02 0.  0.
          2    1    3    3  502    0  0.23833126871E+03  0.77374046984E+02  0.59544007542E+03  0.64601657889E+03  0.00000000000E+00 0. -1.
         -1    1    3    3    0  502  0.39184131196E+03  0.35704306006E+02  0.84167829210E+03  0.92910535389E+03  0.00000000000E+00 0.  1.
         13    1    5    5    0    0 -0.81495288833E+03 -0.15643011898E+03 -0.15042815664E+04  0.17179876668E+04  0.00000000000E+00 0.  1.
        -13    1    5    5    0    0 -0.26554772460E+02  0.29883842200E+01 -0.84353175724E+02  0.88484714134E+02  0.00000000000E+00 0. -1.
          2    1    6    6  503    0  0.10974015690E+03  0.86578468956E+01 -0.20443153026E+03  0.23218550970E+03  0.00000000000E+00 0. -1.
         -2    1    6    6    0  503  0.10159492322E+03  0.31705534873E+02 -0.46308840482E+03  0.47516064656E+03  0.00000000000E+00 0.  1.
<mgrwt>
<rscale>  0 0.40060721E+04</rscale>
<asrwt>0</asrwt>
<pdfrwt beam="1">  1        2 0.37753667E+00 0.40060721E+04</pdfrwt>
<pdfrwt beam="2">  1       -1 0.25153109E+00 0.40060721E+04</pdfrwt>
<totfact> 0.22601776E-01</totfact>
</mgrwt>
</event>
<event>
12    7  0.1637954E-007  0.1571615E+04  0.7818608E-02  0.8838178E-01
         -1   -1    0    0    0  501 -0.00000000000E+00  0.00000000000E+00  0.35537963182E+03  0.35537963182E+03  0.00000000000E+00 0.  1.
          2   -1    0    0  501    0  0.00000000000E+00 -0.00000000000E+00 -0.17375593557E+04  0.17375593557E+04  0.00000000000E+00 0. -1.
         24    2    1    2    0    0  0.94271475653E+02  0.35290009641E+03 -0.96982042580E+03  0.10393391689E+04  0.79048469090E+02 0.  0.
        254    2    1    2    0    0 -0.94271475653E+02 -0.35290009641E+03 -0.41235929813E+03  0.10535998187E+04  0.89811290940E+03 0.  0.
         23    2    4    4    0    0 -0.40093990204E+03 -0.38969264138E+03 -0.45821618635E+03  0.72859572215E+03  0.90975233487E+02 0.  0.
         23    2    4    4    0    0  0.30666842639E+03  0.36792544970E+02  0.45856888212E+02  0.32500409655E+03  0.90142073806E+02 0.  0.
          2    1    3    3  502    0  0.46204488927E+02  0.21652648061E+03 -0.47958524685E+03  0.52822398715E+03  0.00000000000E+00 0. -1.
         -1    1    3    3    0  502  0.48066986726E+02  0.13637361580E+03 -0.49023517895E+03  0.51111518171E+03  0.00000000000E+00 0.  1.
         13    1    5    5    0    0 -0.14478885584E+03 -0.96954737913E+02 -0.10678526506E+03  0.20437007318E+03  0.00000000000E+00 0. -1.
        -13    1    5    5    0    0 -0.25615104620E+03 -0.29273790347E+03 -0.35143092128E+03  0.52422564897E+03  0.00000000000E+00 0.  1.
          3    1    6    6  503    0  0.10057956073E+03  0.22889659245E+02 -0.25873074588E+02  0.10634660562E+03  0.00000000000E+00 0. -1.
         -3    1    6    6    0  503  0.20608886565E+03  0.13902885725E+02  0.71729962800E+02  0.21865749093E+03  0.00000000000E+00 0.  1.
<mgrwt>
<rscale>  0 0.15716147E+04</rscale>
<asrwt>0</asrwt>
<pdfrwt beam="1">  1        2 0.26731682E+00 0.15716147E+04</pdfrwt>
<pdfrwt beam="2">  1       -1 0.54673790E-01 0.15716147E+04</pdfrwt>
<totfact> 0.34582207E+01</totfact>
</mgrwt>
</event>
<event>
12    7  0.1637954E-007  0.2906084E+04  0.7818608E-02  0.8271070E-01
          2   -1    0    0  501    0  0.00000000000E+00  0.00000000000E+00  0.15048028220E+04  0.15048028220E+04  0.00000000000E+00 0. -1.
         -1   -1    0    0    0  501 -0.00000000000E+00 -0.00000000000E+00 -0.14030618720E+04  0.14030618720E+04  0.00000000000E+00 0.  1.
         24    2    1    2    0    0  0.26766655605E+03 -0.12488852573E+04  0.26343447391E+03  0.13064863658E+04  0.78416393982E+02 0.  0.
        254    2    1    2    0    0 -0.26766655605E+03  0.12488852573E+04 -0.16169352394E+03  0.16013783282E+04  0.95231716528E+03 0.  0.
         23    2    4    4    0    0 -0.35468089265E+03  0.14652070715E+03  0.18957462992E+03  0.43760433978E+03  0.91061323576E+02 0.  0.
         23    2    4    4    0    0  0.87014336604E+02  0.11023645501E+04 -0.35126815386E+03  0.11637739884E+04  0.90562045301E+02 0.  0.
          4    1    3    3  502    0  0.42312197267E+02 -0.22704196060E+03  0.78122954937E+02  0.24380641911E+03  0.00000000000E+00 0. -1.
         -3    1    3    3    0  502  0.22535435878E+03 -0.10218432967E+04  0.18531151898E+03  0.10626799467E+04  0.00000000000E+00 0.  1.
         13    1    5    5    0    0 -0.25776335723E+03  0.61125973609E+02  0.13573724542E+03  0.29766244770E+03  0.00000000000E+00 0. -1.
        -13    1    5    5    0    0 -0.96917535423E+02  0.85394733536E+02  0.53837384501E+02  0.13994189208E+03  0.00000000000E+00 0.  1.
          2    1    6    6  503    0  0.99407241248E+02  0.89629239936E+03 -0.30721183108E+03  0.95268094025E+03  0.00000000000E+00 0. -1.
         -2    1    6    6    0  503 -0.12392904644E+02  0.20607215077E+03 -0.44056322785E+02  0.21109304817E+03  0.00000000000E+00 0.  1.
<mgrwt>
<rscale>  0 0.29060843E+04</rscale>
<asrwt>0</asrwt>
<pdfrwt beam="1">  1        2 0.23150813E+00 0.29060843E+04</pdfrwt>
<pdfrwt beam="2">  1       -1 0.21585567E+00 0.29060843E+04</pdfrwt>
<totfact> 0.14540456E+00</totfact>
</mgrwt>
</event>
<event>
12    7  0.1637954E-007  0.2768584E+04  0.7818608E-02  0.8313088E-01
         -1   -1    0    0    0  501 -0.00000000000E+00  0.00000000000E+00  0.85089131739E+03  0.85089131739E+03  0.00000000000E+00 0.  1.
          2   -1    0    0  501    0  0.00000000000E+00 -0.00000000000E+00 -0.22520678570E+04  0.22520678570E+04  0.00000000000E+00 0. -1.
         24    2    1    2    0    0  0.64778113253E+03  0.22163751229E+03  0.52609849588E+03  0.86709058605E+03  0.79516504706E+02 0.  0.
        254    2    1    2    0    0 -0.64778113253E+03 -0.22163751229E+03 -0.19272750355E+04  0.22358685884E+04  0.90331373254E+03 0.  0.
         23    2    4    4    0    0 -0.71009083251E+03  0.15048404270E+03 -0.14011069056E+04  0.15807352491E+04  0.93535710389E+02 0.  0.
         23    2    4    4    0    0  0.62309699975E+02 -0.37212155499E+03 -0.52616812992E+03  0.65513333932E+03  0.99949191866E+02 0.  0.
          2    1    3    3  502    0  0.42109693496E+03  0.10979186996E+03  0.30685212983E+03  0.53248015261E+03  0.00000000000E+00 0. -1.
         -1    1    3    3    0  502  0.22668419757E+03  0.11184564233E+03  0.21924636605E+03  0.33461043344E+03  0.00000000000E+00 0.  1.
         13    1    5    5    0    0 -0.46264302501E+03  0.60419366932E+02 -0.83901267926E+03  0.96001632509E+03  0.00000000000E+00 0. -1.
        -13    1    5    5    0    0 -0.24744780750E+03  0.90064675770E+02 -0.56209422637E+03  0.62071892397E+03  0.00000000000E+00 0.  1.
          1    1    6    6  503    0  0.80605395825E+02 -0.29590490979E+03 -0.45831858788E+03  0.55146429936E+03  0.00000000000E+00 0. -1.
         -1    1    6    6    0  503 -0.18295695849E+02 -0.76216645198E+02 -0.67849542034E+02  0.10366903996E+03  0.00000000000E+00 0.  1.
<mgrwt>
<rscale>  0 0.27685845E+04</rscale>
<asrwt>0</asrwt>
<pdfrwt beam="1">  1        2 0.34647198E+00 0.27685845E+04</pdfrwt>
<pdfrwt beam="2">  1       -1 0.13090636E+00 0.27685845E+04</pdfrwt>
<totfact> 0.23855030E+00</totfact>
</mgrwt>
</event>
<event>
12    7  0.1637954E-007  0.2361480E+04  0.7818608E-02  0.8454067E-01
         -1   -1    0    0    0  501 -0.00000000000E+00  0.00000000000E+00  0.63318192138E+03  0.63318192138E+03  0.00000000000E+00 0.  1.
          2   -1    0    0  501    0  0.00000000000E+00 -0.00000000000E+00 -0.22018113256E+04  0.22018113256E+04  0.00000000000E+00 0. -1.
         24    2    1    2    0    0  0.97893404163E+03 -0.59723137281E+02 -0.31154872445E+03  0.10321773778E+04  0.80304548174E+02 0.  0.
        254    2    1    2    0    0 -0.97893404163E+03  0.59723137281E+02 -0.12570806798E+04  0.18028158692E+04  0.84143598207E+03 0.  0.
         23    2    4    4    0    0 -0.45765591698E+03  0.19800460440E+03 -0.11349940259E+04  0.12427819399E+04  0.87411381022E+02 0.  0.
         23    2    4    4    0    0 -0.52127812465E+03 -0.13828146711E+03 -0.12208665391E+03  0.56003392940E+03  0.88770511006E+02 0.  0.
          2    1    3    3  502    0  0.10757019154E+03 -0.31792827876E+02 -0.38993591328E+02  0.11875449539E+03  0.00000000000E+00 0. -1.
         -1    1    3    3    0  502  0.87136385009E+03 -0.27930309405E+02 -0.27255513312E+03  0.91342288236E+03  0.00000000000E+00 0.  1.
         13    1    5    5    0    0 -0.90490050294E+02  0.46510311215E+02 -0.15559178475E+03  0.18590444248E+03  0.00000000000E+00 0.  1.
        -13    1    5    5    0    0 -0.36716586668E+03  0.15149429318E+03 -0.97940224113E+03  0.10568774974E+04  0.00000000000E+00 0. -1.
          3    1    6    6  503    0 -0.46268270297E+03 -0.91658300199E+02 -0.10649729190E+03  0.48354751660E+03  0.00000000000E+00 0. -1.
         -3    1    6    6    0  503 -0.58595421682E+02 -0.46623166916E+02 -0.15589362005E+02  0.76486412800E+02  0.00000000000E+00 0.  1.
<mgrwt>
<rscale>  0 0.23614802E+04</rscale>
<asrwt>0</asrwt>
<pdfrwt beam="1">  1        2 0.33874021E+00 0.23614802E+04</pdfrwt>
<pdfrwt beam="2">  1       -1 0.97412603E-01 0.23614802E+04</pdfrwt>
<totfact> 0.53493227E+00</totfact>
</mgrwt>
</event>
<event>
12    7  0.1637954E-007  0.1819445E+04  0.7818608E-02  0.8696026E-01
         -1   -1    0    0    0  501 -0.00000000000E+00  0.00000000000E+00  0.32613275039E+03  0.32613275039E+03  0.00000000000E+00 0.  1.
          2   -1    0    0  501    0  0.00000000000E+00 -0.00000000000E+00 -0.25376030039E+04  0.25376030039E+04  0.00000000000E+00 0. -1.
         24    2    1    2    0    0 -0.63315216473E+03 -0.62113448292E+02 -0.43178166787E+03  0.77296891645E+03  0.79409022967E+02 0.  0.
        254    2    1    2    0    0  0.63315216473E+03  0.62113448292E+02 -0.17796885856E+04  0.20907668378E+04  0.89402167991E+03 0.  0.
         23    2    4    4    0    0  0.82350115515E+03 -0.71571521675E+02 -0.12005684485E+04  0.14601094917E+04  0.85314085732E+02 0.  0.
         23    2    4    4    0    0 -0.19034899042E+03  0.13368496997E+03 -0.57912013715E+03  0.63065734605E+03  0.90797277091E+02 0.  0.
          4    1    3    3  502    0 -0.49534864884E+03 -0.54929771711E+02 -0.37519727520E+03  0.62382734715E+03  0.00000000000E+00 0. -1.
         -3    1    3    3    0  502 -0.13780351589E+03 -0.71836765810E+01 -0.56584392667E+02  0.14914156931E+03  0.00000000000E+00 0.  1.
         13    1    5    5    0    0  0.75820200867E+03 -0.56991714302E+02 -0.10607689511E+04  0.13051241738E+04  0.00000000000E+00 0.  1.
        -13    1    5    5    0    0  0.65299146472E+02 -0.14579807373E+02 -0.13979949740E+03  0.15498531797E+03  0.00000000000E+00 0. -1.
          2    1    6    6  503    0 -0.92531886175E+02  0.45598805748E+02 -0.15189012433E+03  0.18360830840E+03  0.00000000000E+00 0.  1.
         -2    1    6    6    0  503 -0.97817104241E+02  0.88086164219E+02 -0.42723001282E+03  0.44704903765E+03  0.00000000000E+00 0. -1.
<mgrwt>
<rscale>  0 0.18194455E+04</rscale>
<asrwt>0</asrwt>
<pdfrwt beam="1">  1        2 0.39040047E+00 0.18194455E+04</pdfrwt>
<pdfrwt beam="2">  1       -1 0.50174268E-01 0.18194455E+04</pdfrwt>
<totfact> 0.14182771E+01</totfact>
</mgrwt>
</event>
<event>
12    7  0.1637954E-007  0.1415779E+04  0.7818608E-02  0.8942475E-01
          2   -1    0    0  501    0  0.00000000000E+00  0.00000000000E+00  0.26123935005E+04  0.26123935005E+04  0.00000000000E+00 0. -1.
         -1   -1    0    0    0  501 -0.00000000000E+00 -0.00000000000E+00 -0.19181936108E+03  0.19181936108E+03  0.00000000000E+00 0.  1.
         24    2    1    2    0    0  0.54428866099E+01  0.41528655053E+03  0.74056262678E+03  0.85234361214E+03  0.74592793938E+02 0.  0.
        254    2    1    2    0    0 -0.54428866099E+01 -0.41528655053E+03  0.16800115126E+04  0.19518692494E+04  0.90269725836E+03 0.  0.
         23    2    4    4    0    0 -0.25922677756E+02 -0.36916442396E+03  0.17713142497E+04  0.18118789141E+04  0.91633351827E+02 0.  0.
         23    2    4    4    0    0  0.20479791146E+02 -0.46122126567E+02 -0.91302737061E+02  0.13999033531E+03  0.93351120940E+02 0.  0.
          4    1    3    3  502    0  0.12176894356E+02  0.39065552596E+02  0.40552764769E+02  0.57610076256E+02  0.00000000000E+00 0. -1.
         -1    1    3    3    0  502 -0.67340077461E+01  0.37622099793E+03  0.70000986202E+03  0.79473353589E+03  0.00000000000E+00 0.  1.
         13    1    5    5    0    0  0.21570909114E+02 -0.25671321350E+03  0.12758242523E+04  0.13015738553E+04  0.00000000000E+00 0.  1.
        -13    1    5    5    0    0 -0.47493586869E+02 -0.11245121046E+03  0.49548999739E+03  0.51030505881E+03  0.00000000000E+00 0. -1.
          3    1    6    6  503    0 -0.21346100698E+01 -0.64778236962E+02 -0.28740557756E+02  0.70899902709E+02  0.00000000000E+00 0. -1.
         -3    1    6    6    0  503  0.22614401216E+02  0.18656110395E+02 -0.62562179306E+02  0.69090432600E+02  0.00000000000E+00 0.  1.
<mgrwt>
<rscale>  0 0.14157792E+04</rscale>
<asrwt>0</asrwt>
<pdfrwt beam="1">  1        2 0.40190667E+00 0.14157792E+04</pdfrwt>
<pdfrwt beam="2">  1       -1 0.29510673E-01 0.14157792E+04</pdfrwt>
<totfact> 0.34957825E+01</totfact>
</mgrwt>
</event>
<event>
12    7  0.1637954E-007  0.1106152E+04  0.7818608E-02  0.9199217E-01
          2   -1    0    0  501    0  0.00000000000E+00  0.00000000000E+00  0.18998602454E+04  0.18998602454E+04  0.00000000000E+00 0. -1.
         -1   -1    0    0    0  501 -0.00000000000E+00 -0.00000000000E+00 -0.16100813230E+03  0.16100813230E+03  0.00000000000E+00 0.  1.
         24    2    1    2    0    0 -0.14984626736E+03  0.42421492704E+01  0.12187600797E+03  0.20842485386E+03  0.78200119672E+02 0.  0.
        254    2    1    2    0    0  0.14984626736E+03 -0.42421492704E+01  0.16169761051E+04  0.18524435238E+04  0.89132675535E+03 0.  0.
         23    2    4    4    0    0  0.39294955591E+03  0.90038319880E+01  0.15237681845E+04  0.15761928546E+04  0.89576850957E+02 0.  0.
         23    2    4    4    0    0 -0.24310328855E+03 -0.13245981258E+02  0.93207920592E+02  0.27625066924E+03  0.91389555589E+02 0.  0.
          4    1    3    3  502    0  0.65195896960E+01  0.35124135503E+01  0.21185698164E+02  0.22442725001E+02  0.00000000000E+00 0. -1.
         -1    1    3    3    0  502 -0.15636585705E+03  0.72973572012E+00  0.10069030980E+03  0.18598212886E+03  0.00000000000E+00 0.  1.
         13    1    5    5    0    0  0.26833803877E+03  0.40379663044E+02  0.11233691343E+04  0.11556790351E+04  0.00000000000E+00 0. -1.
        -13    1    5    5    0    0  0.12461151714E+03 -0.31375831056E+02  0.40039905025E+03  0.42051381953E+03  0.00000000000E+00 0.  1.
          3    1    6    6  503    0 -0.93374133151E+02 -0.47193265297E+02  0.54269322887E+02  0.11786047869E+03  0.00000000000E+00 0. -1.
         -3    1    6    6    0  503 -0.14972915540E+03  0.33947284039E+02  0.38938597705E+02  0.15839019054E+03  0.00000000000E+00 0.  1.
<mgrwt>
<rscale>  0 0.11061518E+04</rscale>
<asrwt>0</asrwt>
<pdfrwt beam="1">  1        2 0.29228618E+00 0.11061518E+04</pdfrwt>
<pdfrwt beam="2">  1       -1 0.24770483E-01 0.11061518E+04</pdfrwt>
<totfact> 0.12235494E+02</totfact>
</mgrwt>
</event>
<event>
12    7  0.1637954E-007  0.1831690E+04  0.7818608E-02  0.8689626E-01
          2   -1    0    0  501    0  0.00000000000E+00  0.00000000000E+00  0.29485611664E+04  0.29485611664E+04  0.00000000000E+00 0. -1.
         -1   -1    0    0    0  501 -0.00000000000E+00 -0.00000000000E+00 -0.28446831204E+03  0.28446831204E+03  0.00000000000E+00 0.  1.
         24    2    1    2    0    0 -0.62256605412E+03  0.29205234098E+03  0.90710481204E+03  0.11411114575E+04  0.80082187731E+02 0.  0.
        254    2    1    2    0    0  0.62256605412E+03 -0.29205234098E+03  0.17569880423E+04  0.20919180210E+04  0.90345501487E+03 0.  0.
         23    2    4    4    0    0  0.61550471201E+03 -0.15312303265E+03  0.18083855237E+04  0.19188535309E+04  0.97200601253E+02 0.  0.
         23    2    4    4    0    0  0.70613421144E+01 -0.13892930833E+03 -0.51397481366E+02  0.17306449011E+03  0.89209872675E+02 0.  0.
          2    1    3    3  502    0 -0.26734436087E+02  0.59370402879E+01  0.16289025135E+02  0.31863942946E+02  0.00000000000E+00 0. -1.
         -1    1    3    3    0  502 -0.59583161804E+03  0.28611530069E+03  0.89081578691E+03  0.11092475146E+04  0.00000000000E+00 0.  1.
         13    1    5    5    0    0  0.25888132043E+03 -0.25243449090E+02  0.82401661393E+03  0.86409498889E+03  0.00000000000E+00 0. -1.
        -13    1    5    5    0    0  0.35662339158E+03 -0.12787958356E+03  0.98436890978E+03  0.10547585420E+04  0.00000000000E+00 0.  1.
          1    1    6    6  503    0  0.29138520834E+02 -0.88496347912E+02  0.62149719223E+01  0.93377100331E+02  0.00000000000E+00 0. -1.
         -1    1    6    6    0  503 -0.22077178720E+02 -0.50432960416E+02 -0.57612453288E+02  0.79687389783E+02  0.00000000000E+00 0.  1.
<mgrwt>
<rscale>  0 0.18316902E+04</rscale>
<asrwt>0</asrwt>
<pdfrwt beam="1">  1        2 0.45362477E+00 0.18316902E+04</pdfrwt>
<pdfrwt beam="2">  1       -1 0.43764358E-01 0.18316902E+04</pdfrwt>
<totfact> 0.10401817E+01</totfact>
</mgrwt>
</event>
<event>
12    7  0.1637954E-007  0.2136193E+04  0.7818608E-02  0.8545466E-01
          2   -1    0    0  501    0  0.00000000000E+00  0.00000000000E+00  0.21847463221E+04  0.21847463221E+04  0.00000000000E+00 0. -1.
         -1   -1    0    0    0  501 -0.00000000000E+00 -0.00000000000E+00 -0.52217971914E+03  0.52217971914E+03  0.00000000000E+00 0.  1.
         24    2    1    2    0    0 -0.27133503469E+03 -0.81105847779E+03  0.56556986068E+03  0.10283423823E+04  0.78614454688E+02 0.  0.
        254    2    1    2    0    0  0.27133503469E+03  0.81105847779E+03  0.10969967423E+04  0.16785836589E+04  0.93957580433E+03 0.  0.
         23    2    4    4    0    0  0.41334163731E+03  0.86129716067E+03  0.55491150593E+03  0.11085723064E+04  0.91223193386E+02 0.  0.
         23    2    4    4    0    0 -0.14200660262E+03 -0.50238682882E+02  0.54208523634E+03  0.57001135253E+03  0.91469875433E+02 0.  0.
          2    1    3    3  502    0 -0.25927366132E+03 -0.78598733225E+03  0.56170023950E+03  0.10002530065E+04  0.00000000000E+00 0. -1.
         -1    1    3    3    0  502 -0.12061373371E+02 -0.25071145537E+02  0.38696211810E+01  0.28089375825E+02  0.00000000000E+00 0.  1.
         13    1    5    5    0    0  0.22722961262E+03  0.48992084476E+03  0.26174277284E+03  0.60013749267E+03  0.00000000000E+00 0. -1.
        -13    1    5    5    0    0  0.18611202470E+03  0.37137631591E+03  0.29316873310E+03  0.50843481374E+03  0.00000000000E+00 0.  1.
          1    1    6    6  503    0 -0.15524287344E+03 -0.49529589907E+02  0.50356637799E+03  0.52927556818E+03  0.00000000000E+00 0. -1.
         -1    1    6    6    0  503  0.13236270822E+02 -0.70909297560E+00  0.38518858355E+02  0.40735784356E+02  0.00000000000E+00 0.  1.
<mgrwt>
<rscale>  0 0.21361931E+04</rscale>
<asrwt>0</asrwt>
<pdfrwt beam="1">  1        2 0.33611481E+00 0.21361931E+04</pdfrwt>
<pdfrwt beam="2">  1       -1 0.80335343E-01 0.21361931E+04</pdfrwt>
<totfact> 0.85153750E+00</totfact>
</mgrwt>
</event>
<event>
12    7  0.2910909E-007  0.1516637E+04  0.7818608E-02  0.8873464E-01
         -1   -1    0    0    0  501 -0.00000000000E+00  0.00000000000E+00  0.40225671590E+03  0.40225671590E+03  0.00000000000E+00 0.  1.
          2   -1    0    0  501    0  0.00000000000E+00 -0.00000000000E+00 -0.14295518719E+04  0.14295518719E+04  0.00000000000E+00 0. -1.
         24    2    1    2    0    0 -0.24063436782E+02  0.31296465851E+03 -0.75672395214E+03  0.82330368830E+03  0.81681680689E+02 0.  0.
        254    2    1    2    0    0  0.24063436782E+02 -0.31296465851E+03 -0.27057120383E+03  0.10085048995E+04  0.91942777282E+03 0.  0.
         23    2    4    4    0    0  0.22785308236E+03 -0.27161020099E+03  0.24757671723E+03  0.44183570982E+03  0.90749298241E+02 0.  0.
         23    2    4    4    0    0 -0.20378964558E+03 -0.41354457521E+02 -0.51814792107E+03  0.56666918965E+03  0.96934470594E+02 0.  0.
          4    1    3    3  502    0 -0.40425785341E+02  0.29899723840E+03 -0.68696801924E+03  0.75030570580E+03  0.00000000000E+00 0. -1.
         -3    1    3    3    0  502  0.16362348559E+02  0.13967420109E+02 -0.69755932899E+02  0.72997982503E+02  0.00000000000E+00 0.  1.
         13    1    5    5    0    0  0.23389470772E+03 -0.24525546304E+03  0.23025548219E+03  0.40972498524E+03  0.00000000000E+00 0. -1.
        -13    1    5    5    0    0 -0.60416253621E+01 -0.26354737953E+02  0.17321235042E+02  0.32110724579E+02  0.00000000000E+00 0.  1.
          1    1    6    6  503    0 -0.21440631141E+03 -0.41623198471E+02 -0.50037670466E+03  0.54596648577E+03  0.00000000000E+00 0. -1.
         -1    1    6    6    0  503  0.10616665832E+02  0.26874094981E+00 -0.17771216407E+02  0.20702703873E+02  0.00000000000E+00 0.  1.
<mgrwt>
<rscale>  0 0.15166369E+04</rscale>
<asrwt>0</asrwt>
<pdfrwt beam="1">  1        2 0.21993106E+00 0.15166369E+04</pdfrwt>
<pdfrwt beam="2">  1       -1 0.61885649E-01 0.15166369E+04</pdfrwt>
<totfact> 0.40536244E+01</totfact>
</mgrwt>
</event>
<event>
12    7  0.1637954E-007  0.1315914E+04  0.7818608E-02  0.9017039E-01
          2   -1    0    0  501    0  0.00000000000E+00  0.00000000000E+00  0.55108365117E+03  0.55108365117E+03  0.00000000000E+00 0. -1.
         -1   -1    0    0    0  501 -0.00000000000E+00 -0.00000000000E+00 -0.78555701742E+03  0.78555701742E+03  0.00000000000E+00 0.  1.
         24    2    1    2    0    0 -0.12191287255E+03 -0.10763799688E+02 -0.39004887431E+03  0.41558441118E+03  0.74790845617E+02 0.  0.
        254    2    1    2    0    0  0.12191287255E+03  0.10763799688E+02  0.15557550807E+03  0.92105625741E+03  0.89953448112E+03 0.  0.
         23    2    4    4    0    0  0.23923534046E+03 -0.27630849499E+03  0.37406576796E+03  0.53098058630E+03  0.91843626582E+02 0.  0.
         23    2    4    4    0    0 -0.11732246791E+03  0.28707229468E+03 -0.21849025989E+03  0.39007567111E+03  0.90807332711E+02 0.  0.
          2    1    3    3  502    0 -0.47402117770E+02  0.56725669746E+01 -0.59201164764E+02  0.76052065683E+02  0.00000000000E+00 0. -1.
         -1    1    3    3    0  502 -0.74510754776E+02 -0.16436366663E+02 -0.33084770955E+03  0.33953234550E+03  0.00000000000E+00 0.  1.
         13    1    5    5    0    0  0.13789408635E+03 -0.17756793682E+03  0.16644042464E+03  0.27972766433E+03  0.00000000000E+00 0. -1.
        -13    1    5    5    0    0  0.10134125411E+03 -0.98740558169E+02  0.20762534332E+03  0.25125292197E+03  0.00000000000E+00 0.  1.
          3    1    6    6  503    0 -0.80408188957E+02  0.20865891599E+03 -0.10436269634E+03  0.24677032330E+03  0.00000000000E+00 0. -1.
         -3    1    6    6    0  503 -0.36914278954E+02  0.78413378685E+02 -0.11412756356E+03  0.14330534781E+03  0.00000000000E+00 0.  1.
<mgrwt>
<rscale>  0 0.13159143E+04</rscale>
<asrwt>0</asrwt>
<pdfrwt beam="1">  1        2 0.84782101E-01 0.13159143E+04</pdfrwt>
<pdfrwt beam="2">  1       -1 0.12085493E+00 0.13159143E+04</pdfrwt>
<totfact> 0.37412618E+01</totfact>
</mgrwt>
</event>
<event>
12    7  0.1637954E-007  0.1845279E+04  0.7818608E-02  0.8682585E-01
         -1   -1    0    0    0  501 -0.00000000000E+00  0.00000000000E+00  0.14868661278E+04  0.14868661278E+04  0.00000000000E+00 0.  1.
          2   -1    0    0  501    0  0.00000000000E+00 -0.00000000000E+00 -0.57252176408E+03  0.57252176408E+03  0.00000000000E+00 0. -1.
         24    2    1    2    0    0  0.49388475624E+03 -0.29024086316E+03 -0.12910369977E+03  0.59347340096E+03  0.85912753774E+02 0.  0.
        254    2    1    2    0    0 -0.49388475624E+03  0.29024086316E+03  0.10434480635E+04  0.14659144909E+04  0.85554632978E+03 0.  0.
         23    2    4    4    0    0 -0.12560066131E+03 -0.29036281227E+03  0.26442491287E+03  0.42295293550E+03  0.94247346044E+02 0.  0.
         23    2    4    4    0    0 -0.36828409492E+03  0.58060367543E+03  0.77902315064E+03  0.10429615554E+04  0.90321284097E+02 0.  0.
          2    1    3    3  502    0  0.28232710834E+03 -0.12759546887E+03 -0.97255353811E+02  0.32472727576E+03  0.00000000000E+00 0. -1.
         -1    1    3    3    0  502  0.21155764790E+03 -0.16264539429E+03 -0.31848345958E+02  0.26874612520E+03  0.00000000000E+00 0.  1.
         13    1    5    5    0    0 -0.43246027363E+02 -0.13200423579E+03  0.59285014850E+02  0.15102996436E+03  0.00000000000E+00 0. -1.
        -13    1    5    5    0    0 -0.82354633948E+02 -0.15835857648E+03  0.20513989802E+03  0.27192297114E+03  0.00000000000E+00 0.  1.
          3    1    6    6  503    0 -0.20822558896E+03  0.26399289937E+03  0.42305113534E+03  0.54039097876E+03  0.00000000000E+00 0. -1.
         -3    1    6    6    0  503 -0.16005850596E+03  0.31661077606E+03  0.35597201531E+03  0.50257057666E+03  0.00000000000E+00 0.  1.
<mgrwt>
<rscale>  0 0.18452785E+04</rscale>
<asrwt>0</asrwt>
<pdfrwt beam="1">  1        2 0.88080272E-01 0.18452785E+04</pdfrwt>
<pdfrwt beam="2">  1       -1 0.22874863E+00 0.18452785E+04</pdfrwt>
<totfact> 0.54249949E+00</totfact>
</mgrwt>
</event>
<event>
12    7  0.1637954E-007  0.1073504E+04  0.7818608E-02  0.9231408E-01
          2   -1    0    0  501    0  0.00000000000E+00  0.00000000000E+00  0.90627869455E+03  0.90627869455E+03  0.00000000000E+00 0. -1.
         -1   -1    0    0    0  501 -0.00000000000E+00 -0.00000000000E+00 -0.31789665930E+03  0.31789665930E+03  0.00000000000E+00 0.  1.
         24    2    1    2    0    0  0.22358595642E+02 -0.12674999401E+03  0.86850820269E+02  0.18474756814E+03  0.10011558905E+03 0.  0.
        254    2    1    2    0    0 -0.22358595642E+02  0.12674999401E+03  0.50153121498E+03  0.10394277857E+04  0.90128302676E+03 0.  0.
         23    2    4    4    0    0  0.34769235043E+03 -0.96491824155E+02  0.25395170215E+01  0.37275566652E+03  0.93486336448E+02 0.  0.
         23    2    4    4    0    0 -0.37005094607E+03  0.22324181817E+03  0.49899169795E+03  0.66667211919E+03  0.93190062836E+02 0.  0.
          2    1    3    3  502    0  0.81088036805E+01 -0.11721584704E+03  0.10656315972E+03  0.15862223836E+03  0.00000000000E+00 0. -1.
         -1    1    3    3    0  502  0.14249791961E+02 -0.95341469746E+01 -0.19712339447E+02  0.26125329777E+02  0.00000000000E+00 0.  1.
         13    1    5    5    0    0  0.15038048628E+03 -0.90137155520E+02  0.18718625863E-01  0.17532540548E+03  0.00000000000E+00 0. -1.
        -13    1    5    5    0    0  0.19731186415E+03 -0.63546686343E+01  0.25207983957E+01  0.19743026104E+03  0.00000000000E+00 0.  1.
          4    1    6    6  503    0 -0.29485609794E+03  0.21561971893E+03  0.39365015576E+03  0.53702181223E+03  0.00000000000E+00 0. -1.
         -4    1    6    6    0  503 -0.75194848129E+02  0.76220992363E+01  0.10534154219E+03  0.12965030695E+03  0.00000000000E+00 0.  1.
<mgrwt>
<rscale>  0 0.10735045E+04</rscale>
<asrwt>0</asrwt>
<pdfrwt beam="1">  1        2 0.13942749E+00 0.10735045E+04</pdfrwt>
<pdfrwt beam="2">  1       -1 0.48907179E-01 0.10735045E+04</pdfrwt>
<totfact> 0.13784239E+02</totfact>
</mgrwt>
</event>
<event>
12    7  0.1795181E-007  0.2518642E+04  0.7818608E-02  0.8396374E-01
          2   -1    0    0  501    0  0.00000000000E+00  0.00000000000E+00  0.10031036779E+04  0.10031036779E+04  0.00000000000E+00 0. -1.
         -1   -1    0    0    0  501 -0.00000000000E+00 -0.00000000000E+00 -0.15809823994E+04  0.15809823994E+04  0.00000000000E+00 0.  1.
         24    2    1    2    0    0  0.89603637173E+03  0.38688415833E+03  0.25015213172E+03  0.10106717648E+04  0.79503432426E+02 0.  0.
        254    2    1    2    0    0 -0.89603637173E+03 -0.38688415833E+03 -0.82803085318E+03  0.15734143125E+04  0.91511582521E+03 0.  0.
         23    2    4    4    0    0  0.14041994004E+03  0.57713395030E+02 -0.23971988968E+03  0.29816338038E+03  0.91581550353E+02 0.  0.
         23    2    4    4    0    0 -0.10364563118E+04 -0.44459755336E+03 -0.58831096350E+03  0.12752509321E+04  0.90810128633E+02 0.  0.
          2    1    3    3  502    0  0.86092644797E+03  0.35682630349E+03  0.22805241216E+03  0.95944111981E+03  0.00000000000E+00 0. -1.
         -1    1    3    3    0  502  0.35109923752E+02  0.30057854838E+02  0.22099719558E+02  0.51230645007E+02  0.00000000000E+00 0.  1.
         13    1    5    5    0    0  0.12295638794E+03  0.65297597308E+02 -0.14296155116E+03  0.19954962956E+03  0.00000000000E+00 0. -1.
        -13    1    5    5    0    0  0.17463552094E+02 -0.75842022781E+01 -0.96758338525E+02  0.98613750816E+02  0.00000000000E+00 0.  1.
          3    1    6    6  503    0 -0.82836480219E+03 -0.35811461457E+03 -0.51052719401E+03  0.10368569518E+04  0.00000000000E+00 0. -1.
         -3    1    6    6    0  503 -0.20809150957E+03 -0.86482938787E+02 -0.77783769492E+02  0.23839398032E+03  0.00000000000E+00 0.  1.
<mgrwt>
<rscale>  0 0.25186419E+04</rscale>
<asrwt>0</asrwt>
<pdfrwt beam="1">  1        2 0.15432364E+00 0.25186419E+04</pdfrwt>
<pdfrwt beam="2">  1       -1 0.24322806E+00 0.25186419E+04</pdfrwt>
<totfact> 0.19653707E+00</totfact>
</mgrwt>
</event>
<event>
12    7  0.1637954E-007  0.3850301E+04  0.7818608E-02  0.8035446E-01
         -1   -1    0    0    0  501 -0.00000000000E+00  0.00000000000E+00  0.26495997807E+04  0.26495997807E+04  0.00000000000E+00 0.  1.
          2   -1    0    0  501    0  0.00000000000E+00 -0.00000000000E+00 -0.13987792764E+04  0.13987792764E+04  0.00000000000E+00 0. -1.
         24    2    1    2    0    0 -0.12778258424E+04  0.12110134839E+04  0.10718843024E+04  0.20627493401E+04  0.81279398921E+02 0.  0.
        254    2    1    2    0    0  0.12778258424E+04 -0.12110134839E+04  0.17893620193E+03  0.19856297170E+04  0.90073007446E+03 0.  0.
         23    2    4    4    0    0  0.65085648227E+02 -0.60864693764E+03  0.20470505521E+02  0.61924544174E+03  0.91425593898E+02 0.  0.
         23    2    4    4    0    0  0.12127401942E+04 -0.60236654622E+03  0.15846569641E+03  0.13663842753E+04  0.91161264262E+02 0.  0.
          4    1    3    3  502    0 -0.11579097191E+04  0.11169916822E+04  0.95764040963E+03  0.18722981840E+04  0.00000000000E+00 0. -1.
         -3    1    3    3    0  502 -0.11991612333E+03  0.94021801651E+02  0.11424389276E+03  0.19045115608E+03  0.00000000000E+00 0.  1.
         13    1    5    5    0    0  0.25569754773E+02 -0.51521747600E+03  0.47867944629E+00  0.51585180921E+03  0.00000000000E+00 0. -1.
        -13    1    5    5    0    0  0.39515893454E+02 -0.93429461637E+02  0.19991826075E+02  0.10339363253E+03  0.00000000000E+00 0.  1.
          3    1    6    6  503    0  0.68516741890E+03 -0.39053576677E+03  0.92541344624E+02  0.79406327047E+03  0.00000000000E+00 0. -1.
         -3    1    6    6    0  503  0.52757277532E+03 -0.21183077945E+03  0.65924351785E+02  0.57232100481E+03  0.00000000000E+00 0.  1.
<mgrwt>
<rscale>  0 0.38503014E+04</rscale>
<asrwt>0</asrwt>
<pdfrwt beam="1">  1        2 0.21519681E+00 0.38503014E+04</pdfrwt>
<pdfrwt beam="2">  1       -1 0.40763074E+00 0.38503014E+04</pdfrwt>
<totfact> 0.83546779E-02</totfact>
</mgrwt>
</event>
<event>
12    7  0.1637954E-007  0.1651598E+04  0.7818608E-02  0.8789462E-01
         -1   -1    0    0    0  501 -0.00000000000E+00  0.00000000000E+00  0.25314549638E+03  0.25314549638E+03  0.00000000000E+00 0.  1.
          2   -1    0    0  501    0  0.00000000000E+00 -0.00000000000E+00 -0.26938814359E+04  0.26938814359E+04  0.00000000000E+00 0. -1.
         24    2    1    2    0    0  0.26379765457E+03 -0.51075977747E+03 -0.92778872700E+03  0.10943561734E+04  0.79741829481E+02 0.  0.
        254    2    1    2    0    0 -0.26379765457E+03  0.51075977747E+03 -0.15129472126E+04  0.18526707589E+04  0.90161794584E+03 0.  0.
         23    2    4    4    0    0  0.26592269642E+03  0.50089629771E+02 -0.79689453494E+03  0.84573963511E+03  0.83730395254E+02 0.  0.
         23    2    4    4    0    0 -0.52972035099E+03  0.46067014770E+03 -0.71605267761E+03  0.10069311238E+04  0.91423278302E+02 0.  0.
          2    1    3    3  502    0  0.25171758743E+03 -0.50512815299E+03 -0.88589457455E+03  0.10503929703E+04  0.00000000000E+00 0. -1.
         -1    1    3    3    0  502  0.12080067142E+02 -0.56316244845E+01 -0.41894152448E+02  0.43963203088E+02  0.00000000000E+00 0.  1.
         13    1    5    5    0    0  0.17783626572E+02  0.11203673722E+02 -0.19113660223E+02  0.28409711122E+02  0.00000000000E+00 0.  1.
        -13    1    5    5    0    0  0.24813906985E+03  0.38885956048E+02 -0.77778087472E+03  0.81732992398E+03  0.00000000000E+00 0. -1.
          2    1    6    6  503    0 -0.42825125962E+03  0.41202759580E+03 -0.62216578590E+03  0.86038139579E+03  0.00000000000E+00 0. -1.
         -2    1    6    6    0  503 -0.10146909137E+03  0.48642551898E+02 -0.93886891707E+02  0.14654972806E+03  0.00000000000E+00 0.  1.
<mgrwt>
<rscale>  0 0.16515980E+04</rscale>
<asrwt>0</asrwt>
<pdfrwt beam="1">  1        2 0.41444332E+00 0.16515980E+04</pdfrwt>
<pdfrwt beam="2">  1       -1 0.38945459E-01 0.16515980E+04</pdfrwt>
<totfact> 0.18684544E+01</totfact>
</mgrwt>
</event>
<event>
12    7  0.1637954E-007  0.1624398E+04  0.7818608E-02  0.8805698E-01
         -1   -1    0    0    0  501 -0.00000000000E+00  0.00000000000E+00  0.54357940935E+03  0.54357940935E+03  0.00000000000E+00 0.  1.
          2   -1    0    0  501    0  0.00000000000E+00 -0.00000000000E+00 -0.12135612529E+04  0.12135612529E+04  0.00000000000E+00 0. -1.
         24    2    1    2    0    0  0.76460137850E+02  0.25433391417E+03 -0.79016893248E+03  0.83778571580E+03  0.83582720522E+02 0.  0.
        254    2    1    2    0    0 -0.76460137850E+02 -0.25433391417E+03  0.12018708889E+03  0.91935494649E+03  0.87191552843E+03 0.  0.
         23    2    4    4    0    0 -0.45533617145E+03 -0.43159150203E+02  0.96082118846E+02  0.47576087952E+03  0.89010671522E+02 0.  0.
         23    2    4    4    0    0  0.37887603360E+03 -0.21117476396E+03  0.24104970046E+02  0.44359406697E+03  0.89737488798E+02 0.  0.
          4    1    3    3  502    0  0.93637800337E+02  0.18995181985E+03 -0.60385825004E+03  0.63991758662E+03  0.00000000000E+00 0. -1.
         -3    1    3    3    0  502 -0.17177662487E+02  0.64382094320E+02 -0.18631068244E+03  0.19786812919E+03  0.00000000000E+00 0.  1.
         13    1    5    5    0    0 -0.42006106839E+03 -0.52444533169E+02  0.10888693583E+03  0.43710192751E+03  0.00000000000E+00 0.  1.
        -13    1    5    5    0    0 -0.35275103056E+02  0.92853829660E+01 -0.12804816987E+02  0.38658952010E+02  0.00000000000E+00 0. -1.
          4    1    6    6  503    0  0.19845149938E+03 -0.15941029872E+03  0.16587723294E+01  0.25455331951E+03  0.00000000000E+00 0. -1.
         -4    1    6    6    0  503  0.18042453421E+03 -0.51764465245E+02  0.22446197717E+02  0.18904074746E+03  0.00000000000E+00 0.  1.
<mgrwt>
<rscale>  0 0.16243976E+04</rscale>
<asrwt>0</asrwt>
<pdfrwt beam="1">  1        2 0.18670173E+00 0.16243976E+04</pdfrwt>
<pdfrwt beam="2">  1       -1 0.83627602E-01 0.16243976E+04</pdfrwt>
<totfact> 0.28778283E+01</totfact>
</mgrwt>
</event>
<event>
12    7  0.1637954E-007  0.3944954E+04  0.7818608E-02  0.8015744E-01
         -1   -1    0    0    0  501 -0.00000000000E+00  0.00000000000E+00  0.18391872796E+04  0.18391872796E+04  0.00000000000E+00 0.  1.
          2   -1    0    0  501    0  0.00000000000E+00 -0.00000000000E+00 -0.21154264093E+04  0.21154264093E+04  0.00000000000E+00 0. -1.
         24    2    1    2    0    0 -0.11666409847E+03  0.14531942100E+04  0.10385062768E+04  0.17914458874E+04  0.73478954959E+02 0.  0.
        254    2    1    2    0    0  0.11666409847E+03 -0.14531942100E+04 -0.13147454065E+04  0.21631678014E+04  0.90849079756E+03 0.  0.
         23    2    4    4    0    0  0.13092801859E+03  0.54521819686E+02 -0.29618484025E+03  0.34130638772E+03  0.93004386094E+02 0.  0.
         23    2    4    4    0    0 -0.14263920114E+02 -0.15077160296E+04 -0.10185605663E+04  0.18218614137E+04  0.91116946697E+02 0.  0.
          4    1    3    3  502    0 -0.16132203503E+02  0.63446640304E+03  0.43797396015E+03  0.77112194519E+03  0.00000000000E+00 0. -1.
         -3    1    3    3    0  502 -0.10053189497E+03  0.81872780692E+03  0.60053231669E+03  0.10203239422E+04  0.00000000000E+00 0.  1.
         13    1    5    5    0    0  0.11002339295E+02 -0.13132696123E+02 -0.10099266374E+03  0.10243552756E+03  0.00000000000E+00 0. -1.
        -13    1    5    5    0    0  0.11992567929E+03  0.67654515809E+02 -0.19519217650E+03  0.23887086016E+03  0.00000000000E+00 0.  1.
          1    1    6    6  503    0  0.23079879815E+02 -0.12845289822E+03 -0.78739439249E+02  0.15242285657E+03  0.00000000000E+00 0. -1.
         -1    1    6    6    0  503 -0.37343799929E+02 -0.13792631314E+04 -0.93982112704E+03  0.16694385571E+04  0.00000000000E+00 0.  1.
<mgrwt>
<rscale>  0 0.39449539E+04</rscale>
<asrwt>0</asrwt>
<pdfrwt beam="1">  1        2 0.32545021E+00 0.39449539E+04</pdfrwt>
<pdfrwt beam="2">  1       -1 0.28295189E+00 0.39449539E+04</pdfrwt>
<totfact> 0.22112276E-01</totfact>
</mgrwt>
</event>
<event>
12    7  0.1637954E-007  0.1955478E+04  0.7818608E-02  0.8627724E-01
         -1   -1    0    0    0  501 -0.00000000000E+00  0.00000000000E+00  0.24801643929E+03  0.24801643929E+03  0.00000000000E+00 0.  1.
          2   -1    0    0  501    0  0.00000000000E+00 -0.00000000000E+00 -0.38544777845E+04  0.38544777845E+04  0.00000000000E+00 0. -1.
         24    2    1    2    0    0 -0.53234431446E+03 -0.17691297050E+03 -0.25238683551E+04  0.25867226625E+04  0.80833103780E+02 0.  0.
        254    2    1    2    0    0  0.53234431446E+03  0.17691297050E+03 -0.10825929902E+04  0.15157715613E+04  0.90048163529E+03 0.  0.
         23    2    4    4    0    0 -0.94840260495E+02 -0.25394089333E+03 -0.21781934086E+03  0.35968985901E+03  0.91928652247E+02 0.  0.
         23    2    4    4    0    0  0.62718457495E+03  0.43085386383E+03 -0.86477364931E+03  0.11560817023E+04  0.98467735103E+02 0.  0.
          2    1    3    3  502    0 -0.33438007578E+03 -0.95188543537E+02 -0.13911466206E+04  0.14339315931E+04  0.00000000000E+00 0. -1.
         -1    1    3    3    0  502 -0.19796423868E+03 -0.81724426966E+02 -0.11327217345E+04  0.11527910694E+04  0.00000000000E+00 0.  1.
         13    1    5    5    0    0 -0.86712298156E+02 -0.11082465027E+03 -0.85796365006E+02  0.16480941116E+03  0.00000000000E+00 0. -1.
        -13    1    5    5    0    0 -0.81279623391E+01 -0.14311624306E+03 -0.13202297585E+03  0.19488044785E+03  0.00000000000E+00 0.  1.
          1    1    6    6  503    0  0.24482331059E+03  0.11134167169E+03 -0.30756986448E+03  0.40857636104E+03  0.00000000000E+00 0. -1.
         -1    1    6    6    0  503  0.38236126436E+03  0.31951219215E+03 -0.55720378482E+03  0.74750534128E+03  0.00000000000E+00 0.  1.
<mgrwt>
<rscale>  0 0.19554783E+04</rscale>
<asrwt>0</asrwt>
<pdfrwt beam="1">  1        2 0.59299659E+00 0.19554783E+04</pdfrwt>
<pdfrwt beam="2">  1       -1 0.38156375E-01 0.19554783E+04</pdfrwt>
<totfact> 0.31734078E+00</totfact>
</mgrwt>
</event>
<event>
12    7  0.1637954E-007  0.1714758E+04  0.7818608E-02  0.8752992E-01
         -1   -1    0    0    0  501 -0.00000000000E+00  0.00000000000E+00  0.52161560016E+03  0.52161560016E+03  0.00000000000E+00 0.  1.
          2   -1    0    0  501    0  0.00000000000E+00 -0.00000000000E+00 -0.14092735931E+04  0.14092735931E+04  0.00000000000E+00 0. -1.
         24    2    1    2    0    0 -0.35995974040E+03 -0.40765778899E+03 -0.63599486877E+03  0.84063929967E+03  0.80181490483E+02 0.  0.
        254    2    1    2    0    0  0.35995974040E+03  0.40765778899E+03 -0.25166312419E+03  0.10902498936E+04  0.91079888824E+03 0.  0.
         23    2    4    4    0    0 -0.14677561304E+03  0.46356211943E+03 -0.28581145682E+03  0.57099885941E+03  0.88986456523E+02 0.  0.
         23    2    4    4    0    0  0.50673535344E+03 -0.55904330449E+02  0.34148332629E+02  0.51925103420E+03  0.92463589126E+02 0.  0.
          2    1    3    3  502    0 -0.20219484012E+03 -0.24862344963E+03 -0.43024840137E+03  0.53647931922E+03  0.00000000000E+00 0. -1.
         -1    1    3    3    0  502 -0.15776490028E+03 -0.15903433936E+03 -0.20574646741E+03  0.30415998045E+03  0.00000000000E+00 0.  1.
         13    1    5    5    0    0 -0.99627578600E+02  0.24790988234E+03 -0.20172317327E+03  0.33477933451E+03  0.00000000000E+00 0.  1.
        -13    1    5    5    0    0 -0.47148034439E+02  0.21565223710E+03 -0.84088283545E+02  0.23621952491E+03  0.00000000000E+00 0. -1.
          1    1    6    6  503    0  0.13153198664E+03 -0.11245468651E+02 -0.31551397514E+02  0.13572993317E+03  0.00000000000E+00 0. -1.
         -1    1    6    6    0  503  0.37520336680E+03 -0.44658861798E+02  0.65699730143E+02  0.38352110103E+03  0.00000000000E+00 0.  1.
<mgrwt>
<rscale>  0 0.17147584E+04</rscale>
<asrwt>0</asrwt>
<pdfrwt beam="1">  1        2 0.21681132E+00 0.17147584E+04</pdfrwt>
<pdfrwt beam="2">  1       -1 0.80248555E-01 0.17147584E+04</pdfrwt>
<totfact> 0.23995581E+01</totfact>
</mgrwt>
</event>
<event>
12    7  0.1637954E-007  0.1706904E+04  0.7818608E-02  0.8757437E-01
          2   -1    0    0  501    0  0.00000000000E+00  0.00000000000E+00  0.92177672360E+03  0.92177672360E+03  0.00000000000E+00 0. -1.
         -1   -1    0    0    0  501 -0.00000000000E+00 -0.00000000000E+00 -0.79019151307E+03  0.79019151307E+03  0.00000000000E+00 0.  1.
         24    2    1    2    0    0  0.44915949069E+03  0.65846100418E+02 -0.36672563517E+03  0.58918546722E+03  0.81067048063E+02 0.  0.
        254    2    1    2    0    0 -0.44915949069E+03 -0.65846100418E+02  0.49831084570E+03  0.11227827694E+04  0.89791285291E+03 0.  0.
         23    2    4    4    0    0 -0.35979882358E+03 -0.43783845684E+03  0.44348202798E+03  0.72567158348E+03  0.93622808078E+02 0.  0.
         23    2    4    4    0    0 -0.89360667102E+02  0.37199235642E+03  0.54828817714E+02  0.39711118596E+03  0.91254877713E+02 0.  0.
          2    1    3    3  502    0  0.90067044651E+02  0.41916689560E+02 -0.58093389586E+02  0.11508224585E+03  0.00000000000E+00 0. -1.
         -1    1    3    3    0  502  0.35909244603E+03  0.23929410857E+02 -0.30863224558E+03  0.47410322137E+03  0.00000000000E+00 0.  1.
         13    1    5    5    0    0 -0.28649631425E+03 -0.28713933021E+03  0.29223698993E+03  0.49993158664E+03  0.00000000000E+00 0.  1.
        -13    1    5    5    0    0 -0.73302509332E+02 -0.15069912663E+03  0.15124503805E+03  0.22573999684E+03  0.00000000000E+00 0. -1.
          1    1    6    6  503    0 -0.77942862770E+02  0.14530852819E+03  0.63187174530E+01  0.16501389157E+03  0.00000000000E+00 0. -1.
         -1    1    6    6    0  503 -0.11417804331E+02  0.22668382823E+03  0.48510100261E+02  0.23209729439E+03  0.00000000000E+00 0.  1.
<mgrwt>
<rscale>  0 0.17069038E+04</rscale>
<asrwt>0</asrwt>
<pdfrwt beam="1">  1        2 0.14181180E+00 0.17069038E+04</pdfrwt>
<pdfrwt beam="2">  1       -1 0.12156792E+00 0.17069038E+04</pdfrwt>
<totfact> 0.18451011E+01</totfact>
</mgrwt>
</event>
<event>
12    7  0.1637954E-007  0.2873688E+04  0.7818608E-02  0.8280749E-01
          2   -1    0    0  501    0  0.00000000000E+00  0.00000000000E+00  0.18865092337E+04  0.18865092337E+04  0.00000000000E+00 0. -1.
         -1   -1    0    0    0  501 -0.00000000000E+00 -0.00000000000E+00 -0.10943603544E+04  0.10943603544E+04  0.00000000000E+00 0.  1.
         24    2    1    2    0    0  0.82100183112E+02  0.12812062517E+04  0.51502757674E+03  0.13858614237E+04  0.84430927124E+02 0.  0.
        254    2    1    2    0    0 -0.82100183112E+02 -0.12812062517E+04  0.27712130255E+03  0.15950081645E+04  0.90499996078E+03 0.  0.
         23    2    4    4    0    0  0.12957555439E+03 -0.11439579207E+04 -0.69183443327E+02  0.11570787923E+04  0.92819362487E+02 0.  0.
         23    2    4    4    0    0 -0.21167573750E+03 -0.13724833095E+03  0.34630474588E+03  0.43792937218E+03  0.90616973042E+02 0.  0.
          4    1    3    3  502    0  0.68777309808E+02  0.78448380578E+03  0.27599822447E+03  0.83445801560E+03  0.00000000000E+00 0. -1.
         -3    1    3    3    0  502  0.13322873305E+02  0.49672244590E+03  0.23902935227E+03  0.55140340810E+03  0.00000000000E+00 0.  1.
         13    1    5    5    0    0  0.41916896895E+02 -0.13804176031E+03  0.73613826405E+01  0.14445325815E+03  0.00000000000E+00 0.  1.
        -13    1    5    5    0    0  0.87658657497E+02 -0.10059161604E+04 -0.76544825968E+02  0.10126255341E+04  0.00000000000E+00 0. -1.
          1    1    6    6  503    0 -0.19016644570E+03 -0.14540092796E+03  0.33641267643E+03  0.41289005290E+03  0.00000000000E+00 0. -1.
         -1    1    6    6    0  503 -0.21509291809E+02  0.81525970102E+01  0.98920694512E+01  0.25039319283E+02  0.00000000000E+00 0.  1.
<mgrwt>
<rscale>  0 0.28736882E+04</rscale>
<asrwt>0</asrwt>
<pdfrwt beam="1">  1        2 0.29023219E+00 0.28736882E+04</pdfrwt>
<pdfrwt beam="2">  1       -1 0.16836313E+00 0.28736882E+04</pdfrwt>
<totfact> 0.19236252E+00</totfact>
</mgrwt>
</event>
<event>
12    7  0.1637954E-007  0.1196030E+04  0.7818608E-02  0.9116339E-01
         -1   -1    0    0    0  501 -0.00000000000E+00  0.00000000000E+00  0.12598599812E+04  0.12598599812E+04  0.00000000000E+00 0.  1.
          2   -1    0    0  501    0  0.00000000000E+00 -0.00000000000E+00 -0.28385844179E+03  0.28385844179E+03  0.00000000000E+00 0. -1.
         24    2    1    2    0    0  0.17044644762E+03 -0.11367857478E+03  0.13178892767E+03  0.25797133523E+03  0.84888623933E+02 0.  0.
        254    2    1    2    0    0 -0.17044644762E+03  0.11367857478E+03  0.84421261176E+03  0.12857470878E+04  0.94787964954E+03 0.  0.
         23    2    4    4    0    0 -0.40244092932E+03 -0.24672132723E+03  0.64596277178E+03  0.80536193144E+03  0.92248702902E+02 0.  0.
         23    2    4    4    0    0  0.23199448170E+03  0.36039990201E+03  0.19824983998E+03  0.48038515634E+03  0.88075935825E+02 0.  0.
          4    1    3    3  502    0  0.13355056452E+03 -0.40109046135E+02  0.84592812504E+02  0.16309639111E+03  0.00000000000E+00 0. -1.
         -3    1    3    3    0  502  0.36895883092E+02 -0.73569528641E+02  0.47196115168E+02  0.94874944114E+02  0.00000000000E+00 0.  1.
         13    1    5    5    0    0 -0.19175392878E+03 -0.11334706897E+03  0.22856618472E+03  0.31915455197E+03  0.00000000000E+00 0. -1.
        -13    1    5    5    0    0 -0.21068700054E+03 -0.13337425826E+03  0.41739658705E+03  0.48620737947E+03  0.00000000000E+00 0.  1.
          1    1    6    6  503    0  0.68060058928E+02  0.11138420468E+03  0.10646245798E+03  0.16844247574E+03  0.00000000000E+00 0. -1.
         -1    1    6    6    0  503  0.16393442278E+03  0.24901569733E+03  0.91787381999E+02  0.31194268060E+03  0.00000000000E+00 0.  1.
<mgrwt>
<rscale>  0 0.11960299E+04</rscale>
<asrwt>0</asrwt>
<pdfrwt beam="1">  1        2 0.43670530E-01 0.11960299E+04</pdfrwt>
<pdfrwt beam="2">  1       -1 0.19382461E+00 0.11960299E+04</pdfrwt>
<totfact> 0.21949289E+01</totfact>
</mgrwt>
</event>
<event>
12    7  0.1637954E-007  0.1599187E+04  0.7818608E-02  0.8821048E-01
          2   -1    0    0  501    0  0.00000000000E+00  0.00000000000E+00  0.94847747281E+03  0.94847747281E+03  0.00000000000E+00 0. -1.
         -1   -1    0    0    0  501 -0.00000000000E+00 -0.00000000000E+00 -0.67408005868E+03  0.67408005868E+03  0.00000000000E+00 0.  1.
         24    2    1    2    0    0  0.13420524906E+03 -0.16221194359E+02  0.62722651954E+03  0.64651926864E+03  0.79371795279E+02 0.  0.
        254    2    1    2    0    0 -0.13420524906E+03  0.16221194359E+02 -0.35282910541E+03  0.97603826284E+03  0.89993785168E+03 0.  0.
         23    2    4    4    0    0  0.83701988913E+02 -0.12590553364E+03  0.25447260887E+03  0.30899693638E+03  0.88682420364E+02 0.  0.
         23    2    4    4    0    0 -0.21790723797E+03  0.14212672800E+03 -0.60730171428E+03  0.66704132646E+03  0.91897703292E+02 0.  0.
          4    1    3    3  502    0  0.13014140864E+03 -0.17249076418E+02  0.43810752483E+03  0.45735382385E+03  0.00000000000E+00 0. -1.
         -3    1    3    3    0  502  0.40638404132E+01  0.10278820589E+01  0.18911899471E+03  0.18916544479E+03  0.00000000000E+00 0.  1.
         13    1    5    5    0    0  0.24587270073E+02 -0.33291849663E+02  0.12476867457E+02  0.43226766304E+02  0.00000000000E+00 0.  1.
        -13    1    5    5    0    0  0.59114718841E+02 -0.92613683982E+02  0.24199574141E+03  0.26577017008E+03  0.00000000000E+00 0. -1.
          4    1    6    6  503    0 -0.79523413113E+02  0.10445801310E+03 -0.25916405472E+03  0.29051928850E+03  0.00000000000E+00 0. -1.
         -4    1    6    6    0  503 -0.13838382486E+03  0.37668714899E+02 -0.34813765956E+03  0.37652203796E+03  0.00000000000E+00 0.  1.
<mgrwt>
<rscale>  0 0.15991870E+04</rscale>
<asrwt>0</asrwt>
<pdfrwt beam="1">  1        2 0.14591961E+00 0.15991870E+04</pdfrwt>
<pdfrwt beam="2">  1       -1 0.10370463E+00 0.15991870E+04</pdfrwt>
<totfact> 0.26102754E+01</totfact>
</mgrwt>
</event>
<event>
12    7  0.1637954E-007  0.1238261E+04  0.7818608E-02  0.9080010E-01
         -1   -1    0    0    0  501 -0.00000000000E+00  0.00000000000E+00  0.29383965068E+03  0.29383965068E+03  0.00000000000E+00 0.  1.
          2   -1    0    0  501    0  0.00000000000E+00 -0.00000000000E+00 -0.13045307100E+04  0.13045307100E+04  0.00000000000E+00 0. -1.
         24    2    1    2    0    0 -0.12391247228E+02 -0.35229650279E+02 -0.58939564432E+03  0.59576517838E+03  0.78449034151E+02 0.  0.
        254    2    1    2    0    0  0.12391247228E+02  0.35229650279E+02 -0.42129541502E+03  0.10026051823E+04  0.90902841190E+03 0.  0.
         23    2    4    4    0    0 -0.10566334968E+03 -0.36981538394E+03  0.65945498238E+01  0.39466043807E+03  0.88233846257E+02 0.  0.
         23    2    4    4    0    0  0.11805459690E+03  0.40504503422E+03 -0.42788996485E+03  0.60794474426E+03  0.92242194589E+02 0.  0.
          2    1    3    3  502    0 -0.33435423040E+02 -0.44034590434E+02 -0.51477025442E+03  0.51773099917E+03  0.00000000000E+00 0. -1.
         -1    1    3    3    0  502  0.21044175812E+02  0.88049401553E+01 -0.74625389907E+02  0.78034179214E+02  0.00000000000E+00 0.  1.
         13    1    5    5    0    0 -0.12440469887E+02 -0.71499220571E+02 -0.32806088799E+02  0.79643852842E+02  0.00000000000E+00 0. -1.
        -13    1    5    5    0    0 -0.93222879788E+02 -0.29831616337E+03  0.39400638623E+02  0.31501658523E+03  0.00000000000E+00 0.  1.
          2    1    6    6  503    0  0.84308218587E+02  0.36172912581E+03 -0.40172832429E+03  0.54712108597E+03  0.00000000000E+00 0.  1.
         -2    1    6    6    0  503  0.33746378316E+02  0.43315908413E+02 -0.26161640557E+02  0.60823658290E+02  0.00000000000E+00 0. -1.
<mgrwt>
<rscale>  0 0.12382614E+04</rscale>
<asrwt>0</asrwt>
<pdfrwt beam="1">  1        2 0.20069703E+00 0.12382614E+04</pdfrwt>
<pdfrwt beam="2">  1       -1 0.45206100E-01 0.12382614E+04</pdfrwt>
<totfact> 0.89471088E+01</totfact>
</mgrwt>
</event>
<event>
12    7  0.1637954E-007  0.1888939E+04  0.7818608E-02  0.8660382E-01
         -1   -1    0    0    0  501 -0.00000000000E+00  0.00000000000E+00  0.65568899565E+03  0.65568899565E+03  0.00000000000E+00 0.  1.
          2   -1    0    0  501    0  0.00000000000E+00 -0.00000000000E+00 -0.13604350956E+04  0.13604350956E+04  0.00000000000E+00 0. -1.
         24    2    1    2    0    0  0.37359316374E+03  0.19875730341E+03 -0.91140042462E+03  0.10079873589E+04  0.79444723349E+02 0.  0.
        254    2    1    2    0    0 -0.37359316374E+03 -0.19875730341E+03  0.20665432469E+03  0.10081367323E+04  0.89137946101E+03 0.  0.
         23    2    4    4    0    0  0.22476305389E+03  0.47596993882E+02  0.25148601676E+03  0.35251874927E+03  0.90776361136E+02 0.  0.
         23    2    4    4    0    0 -0.59835621763E+03 -0.24635429729E+03 -0.44831692074E+02  0.65561798306E+03  0.95417273750E+02 0.  0.
          2    1    3    3  502    0  0.31659684138E+03  0.15775825002E+03 -0.81745874497E+03  0.89070759801E+03  0.00000000000E+00 0. -1.
         -1    1    3    3    0  502  0.56996322357E+02  0.40999053388E+02 -0.93941679652E+02  0.11727976090E+03  0.00000000000E+00 0.  1.
         13    1    5    5    0    0  0.13710588642E+03  0.69380008804E+02  0.18426105330E+03  0.23992445785E+03  0.00000000000E+00 0. -1.
        -13    1    5    5    0    0  0.87657167471E+02 -0.21783014921E+02  0.67224963465E+02  0.11259429142E+03  0.00000000000E+00 0.  1.
          3    1    6    6  503    0 -0.43062909954E+03 -0.19145912732E+03  0.81878931848E+01  0.47134388762E+03  0.00000000000E+00 0. -1.
         -3    1    6    6    0  503 -0.16772711808E+03 -0.54895169973E+02 -0.53019585259E+02  0.18427409543E+03  0.00000000000E+00 0.  1.
<mgrwt>
<rscale>  0 0.18889387E+04</rscale>
<asrwt>0</asrwt>
<pdfrwt beam="1">  1        2 0.20929771E+00 0.18889387E+04</pdfrwt>
<pdfrwt beam="2">  1       -1 0.10087523E+00 0.18889387E+04</pdfrwt>
<totfact> 0.15221333E+01</totfact>
</mgrwt>
</event>
<event>
12    7  0.1637954E-007  0.1166655E+04  0.7818608E-02  0.9142555E-01
         -1   -1    0    0    0  501 -0.00000000000E+00  0.00000000000E+00  0.12400659764E+04  0.12400659764E+04  0.00000000000E+00 0.  1.
          2   -1    0    0  501    0  0.00000000000E+00 -0.00000000000E+00 -0.27439750613E+03  0.27439750613E+03  0.00000000000E+00 0. -1.
         24    2    1    2    0    0 -0.66993350632E+02 -0.11353685716E+03 -0.51883673627E+02  0.16337787018E+03  0.81373742165E+02 0.  0.
        254    2    1    2    0    0  0.66993350632E+02  0.11353685716E+03  0.10175521439E+04  0.13510856124E+04  0.87900013617E+03 0.  0.
         23    2    4    4    0    0 -0.31656184677E+02 -0.20422955834E+03 -0.48584986875E+02  0.23059573375E+03  0.90011471181E+02 0.  0.
         23    2    4    4    0    0  0.98649535308E+02  0.31776641550E+03  0.10661371308E+04  0.11204898786E+04  0.90232814510E+02 0.  0.
          2    1    3    3  502    0 -0.66607703473E+02 -0.32912700547E+02 -0.24845483799E+02  0.78339837148E+02  0.00000000000E+00 0. -1.
         -1    1    3    3    0  502 -0.38564715832E+00 -0.80624156610E+02 -0.27038189828E+02  0.85038033032E+02  0.00000000000E+00 0.  1.
         13    1    5    5    0    0 -0.22013107810E+02 -0.10591490509E+03 -0.70871709527E+02  0.12932649863E+03  0.00000000000E+00 0. -1.
        -13    1    5    5    0    0 -0.96430768669E+01 -0.98314653249E+02  0.22286722652E+02  0.10126923512E+03  0.00000000000E+00 0.  1.
          4    1    6    6  503    0  0.85241943466E+02  0.19162348890E+03  0.77582638993E+03  0.80367427341E+03  0.00000000000E+00 0. -1.
         -4    1    6    6    0  503  0.13407591842E+02  0.12614292660E+03  0.29031074084E+03  0.31681560520E+03  0.00000000000E+00 0.  1.
<mgrwt>
<rscale>  0 0.11666551E+04</rscale>
<asrwt>0</asrwt>
<pdfrwt beam="1">  1        2 0.42215002E-01 0.11666551E+04</pdfrwt>
<pdfrwt beam="2">  1       -1 0.19077938E+00 0.11666551E+04</pdfrwt>
<totfact> 0.23993221E+01</totfact>
</mgrwt>
</event>
<event>
12    7  0.1637954E-007  0.1917971E+04  0.7818608E-02  0.8645962E-01
          2   -1    0    0  501    0  0.00000000000E+00  0.00000000000E+00  0.11356831044E+04  0.11356831044E+04  0.00000000000E+00 0. -1.
         -1   -1    0    0    0  501 -0.00000000000E+00 -0.00000000000E+00 -0.80978009635E+03  0.80978009635E+03  0.00000000000E+00 0.  1.
         24    2    1    2    0    0  0.48836185070E+03  0.22771336529E+03 -0.36247378155E+03  0.65447787215E+03  0.81261115362E+02 0.  0.
        254    2    1    2    0    0 -0.48836185070E+03 -0.22771336529E+03  0.68837678958E+03  0.12909853286E+04  0.94996307309E+03 0.  0.
         23    2    4    4    0    0 -0.57783411885E+03  0.17337291676E+03  0.19091779550E+03  0.63932393248E+03  0.91296488556E+02 0.  0.
         23    2    4    4    0    0  0.89472268159E+02 -0.40108628206E+03  0.49745899408E+03  0.65166139610E+03  0.91222979330E+02 0.  0.
          4    1    3    3  502    0  0.15525380010E+03  0.99077953796E+02 -0.16011236458E+03  0.24404129295E+03  0.00000000000E+00 0. -1.
         -3    1    3    3    0  502  0.33310805060E+03  0.12863541150E+03 -0.20236141697E+03  0.41043657920E+03  0.00000000000E+00 0.  1.
         13    1    5    5    0    0 -0.56053711003E+03  0.14853224323E+03  0.18144361201E+03  0.60760633912E+03  0.00000000000E+00 0.  1.
        -13    1    5    5    0    0 -0.17297008825E+02  0.24840673528E+02  0.94741834980E+01  0.31717593360E+02  0.00000000000E+00 0. -1.
          3    1    6    6  503    0  0.52507694394E+02 -0.10515906080E+03  0.97246413097E+02  0.15255278070E+03  0.00000000000E+00 0. -1.
         -3    1    6    6    0  503  0.36964573765E+02 -0.29592722126E+03  0.40021258098E+03  0.49910861540E+03  0.00000000000E+00 0.  1.
<mgrwt>
<rscale>  0 0.19179714E+04</rscale>
<asrwt>0</asrwt>
<pdfrwt beam="1">  1        2 0.17472048E+00 0.19179714E+04</pdfrwt>
<pdfrwt beam="2">  1       -1 0.12458155E+00 0.19179714E+04</pdfrwt>
<totfact> 0.12468182E+01</totfact>
</mgrwt>
</event>
<event>
12    7  0.1637954E-007  0.1528792E+04  0.7818608E-02  0.8865529E-01
          2   -1    0    0  501    0  0.00000000000E+00  0.00000000000E+00  0.61149256417E+03  0.61149256417E+03  0.00000000000E+00 0. -1.
         -1   -1    0    0    0  501 -0.00000000000E+00 -0.00000000000E+00 -0.95553294362E+03  0.95553294362E+03  0.00000000000E+00 0.  1.
         24    2    1    2    0    0 -0.22099653074E+03  0.13444529407E+03 -0.55063174849E+03  0.61366894103E+03  0.80493745361E+02 0.  0.
        254    2    1    2    0    0  0.22099653074E+03 -0.13444529407E+03  0.20659136904E+03  0.95335656675E+03  0.89403229579E+03 0.  0.
         23    2    4    4    0    0 -0.24625753196E+03  0.11265589870E+03 -0.13641458182E+03  0.31681736163E+03  0.91816005920E+02 0.  0.
         23    2    4    4    0    0  0.46725406270E+03 -0.24710119277E+03  0.34300595086E+03  0.63653920512E+03  0.90242555142E+02 0.  0.
          4    1    3    3  502    0 -0.14242862347E+03  0.62801072869E+02 -0.24699163453E+03  0.29194991876E+03  0.00000000000E+00 0. -1.
         -3    1    3    3    0  502 -0.78567907276E+02  0.71644221205E+02 -0.30364011396E+03  0.32171902227E+03  0.00000000000E+00 0.  1.
         13    1    5    5    0    0 -0.68417533774E+02 -0.58606109786E+01 -0.55525814389E+02  0.88308673143E+02  0.00000000000E+00 0. -1.
        -13    1    5    5    0    0 -0.17783999818E+03  0.11851650968E+03 -0.80888767430E+02  0.22850868849E+03  0.00000000000E+00 0.  1.
          1    1    6    6  503    0  0.23814406341E+03 -0.89339059004E+02  0.12667889492E+03  0.28415067274E+03  0.00000000000E+00 0. -1.
         -1    1    6    6    0  503  0.22910999929E+03 -0.15776213377E+03  0.21632705594E+03  0.35238853238E+03  0.00000000000E+00 0.  1.
<mgrwt>
<rscale>  0 0.15287921E+04</rscale>
<asrwt>0</asrwt>
<pdfrwt beam="1">  1        2 0.94075780E-01 0.15287921E+04</pdfrwt>
<pdfrwt beam="2">  1       -1 0.14700507E+00 0.15287921E+04</pdfrwt>
<totfact> 0.19666792E+01</totfact>
</mgrwt>
</event>
<event>
12    7  0.1637954E-007  0.1908952E+04  0.7818608E-02  0.8650413E-01
          2   -1    0    0  501    0  0.00000000000E+00  0.00000000000E+00  0.29368884219E+04  0.29368884219E+04  0.00000000000E+00 0. -1.
         -1   -1    0    0    0  501 -0.00000000000E+00 -0.00000000000E+00 -0.31020054830E+03  0.31020054830E+03  0.00000000000E+00 0.  1.
         24    2    1    2    0    0 -0.17944573199E+02 -0.67234154211E+03  0.15510765799E+04  0.16928494563E+04  0.86807649492E+02 0.  0.
        254    2    1    2    0    0  0.17944573199E+02  0.67234154211E+03  0.10756112937E+04  0.15542395139E+04  0.89797308118E+03 0.  0.
         23    2    4    4    0    0  0.50434315784E+01  0.85456547255E+03  0.10347719939E+04  0.13458909480E+04  0.10179283703E+03 0.  0.
         23    2    4    4    0    0  0.12901141620E+02 -0.18222393044E+03  0.40839299865E+02  0.20834856589E+03  0.91483748347E+02 0.  0.
          4    1    3    3  502    0 -0.42161987701E+02 -0.60552056720E+03  0.13971798650E+04  0.15233333075E+04  0.00000000000E+00 0. -1.
         -3    1    3    3    0  502  0.24217414502E+02 -0.66820974903E+02  0.15389671494E+03  0.16951614885E+03  0.00000000000E+00 0.  1.
         13    1    5    5    0    0  0.30791578075E+02  0.75434549448E+03  0.93929099191E+03  0.12050945248E+04  0.00000000000E+00 0. -1.
        -13    1    5    5    0    0 -0.25748146497E+02  0.10021997807E+03  0.95481001945E+02  0.14079642320E+03  0.00000000000E+00 0.  1.
          4    1    6    6  503    0  0.31958316295E+02 -0.18186763164E+03  0.41564214250E+02  0.18927428068E+03  0.00000000000E+00 0. -1.
         -4    1    6    6    0  503 -0.19057174674E+02 -0.35629880291E+00 -0.72491438491E+00  0.19074285210E+02  0.00000000000E+00 0.  1.
<mgrwt>
<rscale>  0 0.19089520E+04</rscale>
<asrwt>0</asrwt>
<pdfrwt beam="1">  1        2 0.45182897E+00 0.19089520E+04</pdfrwt>
<pdfrwt beam="2">  1       -1 0.47723163E-01 0.19089520E+04</pdfrwt>
<totfact> 0.89298159E+00</totfact>
</mgrwt>
</event>
<event>
12    7  0.1637954E-007  0.1446964E+04  0.7818608E-02  0.8920508E-01
         -1   -1    0    0    0  501 -0.00000000000E+00  0.00000000000E+00  0.68614308682E+03  0.68614308682E+03  0.00000000000E+00 0.  1.
          2   -1    0    0  501    0  0.00000000000E+00 -0.00000000000E+00 -0.76285313235E+03  0.76285313235E+03  0.00000000000E+00 0. -1.
         24    2    1    2    0    0  0.28506240176E+03 -0.13124670501E+03  0.28561976799E+03  0.42963035851E+03  0.67211030429E+02 0.  0.
        254    2    1    2    0    0 -0.28506240176E+03  0.13124670501E+03 -0.36232981353E+03  0.10193658607E+04  0.89963192120E+03 0.  0.
         23    2    4    4    0    0  0.24370963339E+03 -0.10892518956E+03 -0.32199354382E+03  0.43017632481E+03  0.10056214914E+03 0.  0.
         23    2    4    4    0    0 -0.52877203515E+03  0.24017189457E+03 -0.40336269702E+02  0.58918953585E+03  0.90746296878E+02 0.  0.
          4    1    3    3  502    0  0.31042004025E+01  0.45861198839E+01 -0.53040059343E+00  0.55632616798E+01  0.00000000000E+00 0. -1.
         -3    1    3    3    0  502  0.28195820136E+03 -0.13583282490E+03  0.28615016859E+03  0.42406709683E+03  0.00000000000E+00 0.  1.
         13    1    5    5    0    0  0.24665309822E+03 -0.96699209711E+02 -0.27633577502E+03  0.38281842769E+03  0.00000000000E+00 0. -1.
        -13    1    5    5    0    0 -0.29434648284E+01 -0.12225979851E+02 -0.45657768799E+02  0.47357897126E+02  0.00000000000E+00 0.  1.
          1    1    6    6  503    0 -0.44001433950E+03  0.19527285249E+03  0.11947674943E+01  0.48139955687E+03  0.00000000000E+00 0. -1.
         -1    1    6    6    0  503 -0.88757695655E+02  0.44899042087E+02 -0.41531037196E+02  0.10778997898E+03  0.00000000000E+00 0.  1.
<mgrwt>
<rscale>  0 0.14469643E+04</rscale>
<asrwt>0</asrwt>
<pdfrwt beam="1">  1        2 0.11736202E+00 0.14469643E+04</pdfrwt>
<pdfrwt beam="2">  1       -1 0.10556048E+00 0.14469643E+04</pdfrwt>
<totfact> 0.34173384E+01</totfact>
</mgrwt>
</event>
<event>
12    7  0.1637954E-007  0.1380777E+04  0.7818608E-02  0.8967852E-01
          2   -1    0    0  501    0  0.00000000000E+00  0.00000000000E+00  0.19241080739E+04  0.19241080739E+04  0.00000000000E+00 0. -1.
         -1   -1    0    0    0  501 -0.00000000000E+00 -0.00000000000E+00 -0.24771813664E+03  0.24771813664E+03  0.00000000000E+00 0.  1.
         24    2    1    2    0    0 -0.23528718250E+03  0.22337401085E+02 -0.16272802102E+01  0.24980801042E+03  0.80884957137E+02 0.  0.
        254    2    1    2    0    0  0.23528718250E+03 -0.22337401085E+02  0.16780172175E+04  0.19220182002E+04  0.90694716590E+03 0.  0.
         23    2    4    4    0    0  0.49899923645E+03 -0.23850085436E+03  0.12286213864E+04  0.13504321320E+04  0.90958982855E+02 0.  0.
         23    2    4    4    0    0 -0.26371205395E+03  0.21616345328E+03  0.44939583116E+03  0.57158606818E+03  0.92105018013E+02 0.  0.
          4    1    3    3  502    0 -0.17998391890E+02 -0.12666363604E+02 -0.18942380358E+02  0.29037779723E+02  0.00000000000E+00 0. -1.
         -3    1    3    3    0  502 -0.21728879061E+03  0.35003764689E+02  0.17315100148E+02  0.22077023069E+03  0.00000000000E+00 0.  1.
         13    1    5    5    0    0  0.35347969216E+03 -0.15876577770E+03  0.75591268316E+03  0.84944596620E+03  0.00000000000E+00 0. -1.
        -13    1    5    5    0    0  0.14551954429E+03 -0.79735076662E+02  0.47270870321E+03  0.50098616579E+03  0.00000000000E+00 0.  1.
          3    1    6    6  503    0 -0.14154198756E+03  0.11718052433E+03  0.31528565717E+03  0.36492527337E+03  0.00000000000E+00 0. -1.
         -3    1    6    6    0  503 -0.12217006639E+03  0.98982928950E+02  0.13411017399E+03  0.20666079482E+03  0.00000000000E+00 0.  1.
<mgrwt>
<rscale>  0 0.13807773E+04</rscale>
<asrwt>0</asrwt>
<pdfrwt beam="1">  1        2 0.29601662E+00 0.13807773E+04</pdfrwt>
<pdfrwt beam="2">  1       -1 0.38110484E-01 0.13807773E+04</pdfrwt>
<totfact> 0.54413030E+01</totfact>
</mgrwt>
</event>
<event>
12    7  0.1637954E-007  0.2241046E+04  0.7818608E-02  0.8501536E-01
         -3   -1    0    0    0  501 -0.00000000000E+00  0.00000000000E+00  0.92118021105E+03  0.92118021105E+03  0.00000000000E+00 0.  1.
          2   -1    0    0  501    0  0.00000000000E+00 -0.00000000000E+00 -0.13630028659E+04  0.13630028659E+04  0.00000000000E+00 0. -1.
         24    2    1    2    0    0 -0.46887101753E+03  0.69514230128E+03 -0.61058197352E+03  0.10403523394E+04  0.80372841764E+02 0.  0.
        254    2    1    2    0    0  0.46887101753E+03 -0.69514230128E+03  0.16875931867E+03  0.12438307375E+04  0.90309044167E+03 0.  0.
         23    2    4    4    0    0  0.22587748166E+02  0.37456927718E+02  0.34887389110E+03  0.36238446923E+03  0.87728466569E+02 0.  0.
         23    2    4    4    0    0  0.44628326936E+03 -0.73259922900E+03 -0.18011457243E+03  0.88144626828E+03  0.92929423874E+02 0.  0.
          2    1    3    3  502    0 -0.45475994537E+03  0.64172515688E+03 -0.57956240442E+03  0.97699046336E+03  0.00000000000E+00 0. -1.
         -1    1    3    3    0  502 -0.14111072156E+02  0.53417144401E+02 -0.31019569101E+02  0.63361876081E+02  0.00000000000E+00 0.  1.
         13    1    5    5    0    0  0.56561470095E+02  0.23534772215E+02  0.21249147197E+03  0.22114635666E+03  0.00000000000E+00 0. -1.
        -13    1    5    5    0    0 -0.33973721929E+02  0.13922155503E+02  0.13638241913E+03  0.14123811258E+03  0.00000000000E+00 0.  1.
          3    1    6    6  503    0  0.32823245268E+02 -0.98957353931E+02 -0.41676670871E+02  0.11228031093E+03  0.00000000000E+00 0. -1.
         -3    1    6    6    0  503  0.41346002410E+03 -0.63364187506E+03 -0.13843790156E+03  0.76916595735E+03  0.00000000000E+00 0.  1.
<mgrwt>
<rscale>  0 0.22410455E+04</rscale>
<asrwt>0</asrwt>
<pdfrwt beam="1">  1        2 0.20969275E+00 0.22410455E+04</pdfrwt>
<pdfrwt beam="2">  1       -3 0.14172003E+00 0.22410455E+04</pdfrwt>
<totfact> 0.32746830E+00</totfact>
</mgrwt>
</event>
<event>
12    7  0.1637954E-007  0.1376805E+04  0.7818608E-02  0.8970781E-01
         -1   -1    0    0    0  501 -0.00000000000E+00  0.00000000000E+00  0.25956737606E+03  0.25956737606E+03  0.00000000000E+00 0.  1.
          2   -1    0    0  501    0  0.00000000000E+00 -0.00000000000E+00 -0.18257229531E+04  0.18257229531E+04  0.00000000000E+00 0. -1.
         24    2    1    2    0    0 -0.76770994720E+02 -0.37175321315E+03 -0.24540664772E+03  0.45893212473E+03  0.79372761337E+02 0.  0.
        254    2    1    2    0    0  0.76770994720E+02  0.37175321315E+03 -0.13207489294E+04  0.16263582045E+04  0.86980977099E+03 0.  0.
         23    2    4    4    0    0  0.21957846446E+03  0.60098574172E+02  0.12111242722E+02  0.24750287260E+03  0.96355846077E+02 0.  0.
         23    2    4    4    0    0 -0.14280746974E+03  0.31165463898E+03 -0.13328601721E+04  0.13788553319E+04  0.84871670614E+02 0.  0.
          2    1    3    3  502    0 -0.19681902631E+02 -0.11913402476E+02 -0.95286161367E+01  0.24901826745E+02  0.00000000000E+00 0. -1.
         -1    1    3    3    0  502 -0.57089092089E+02 -0.35983981068E+03 -0.23587803158E+03  0.43403029798E+03  0.00000000000E+00 0.  1.
         13    1    5    5    0    0  0.28600695247E+02 -0.24995987871E+02  0.49175554091E+01  0.38301194883E+02  0.00000000000E+00 0. -1.
        -13    1    5    5    0    0  0.19097776922E+03  0.85094562043E+02  0.71936873125E+01  0.20920167772E+03  0.00000000000E+00 0.  1.
          1    1    6    6  503    0  0.99664506127E+01  0.12463729303E+02 -0.40088320479E+02  0.43147979382E+02  0.00000000000E+00 0. -1.
         -1    1    6    6    0  503 -0.15277392036E+03  0.29919090968E+03 -0.12927718516E+04  0.13357073525E+04  0.00000000000E+00 0.  1.
<mgrwt>
<rscale>  0 0.13768052E+04</rscale>
<asrwt>0</asrwt>
<pdfrwt beam="1">  1        2 0.28088044E+00 0.13768052E+04</pdfrwt>
<pdfrwt beam="2">  1       -1 0.39933444E-01 0.13768052E+04</pdfrwt>
<totfact> 0.56664895E+01</totfact>
</mgrwt>
</event>
<event>
12    7  0.1637954E-007  0.1434275E+04  0.7818608E-02  0.8929376E-01
         -1   -1    0    0    0  501 -0.00000000000E+00  0.00000000000E+00  0.13177384786E+04  0.13177384786E+04  0.00000000000E+00 0.  1.
          2   -1    0    0  501    0  0.00000000000E+00 -0.00000000000E+00 -0.39027938973E+03  0.39027938973E+03  0.00000000000E+00 0. -1.
         24    2    1    2    0    0 -0.38573166294E+03  0.18915652658E+03  0.25656378585E+03  0.50680143514E+03  0.80334370627E+02 0.  0.
        254    2    1    2    0    0  0.38573166294E+03 -0.18915652658E+03  0.67089530299E+03  0.12012164332E+04  0.89902797754E+03 0.  0.
         23    2    4    4    0    0  0.16238350521E+03  0.35315878254E+03  0.31907694881E+03  0.51123136757E+03  0.91966752001E+02 0.  0.
         23    2    4    4    0    0  0.22334815774E+03 -0.54231530912E+03  0.35181835418E+03  0.68998506560E+03  0.91175338461E+02 0.  0.
          4    1    3    3  502    0 -0.24617826206E+03  0.84251835198E+02  0.12793229018E+03  0.28994616623E+03  0.00000000000E+00 0. -1.
         -3    1    3    3    0  502 -0.13955340089E+03  0.10490469138E+03  0.12863149567E+03  0.21685526890E+03  0.00000000000E+00 0.  1.
         13    1    5    5    0    0  0.13609201577E+03  0.20739329373E+03  0.23067436659E+03  0.33873836282E+03  0.00000000000E+00 0. -1.
        -13    1    5    5    0    0  0.26291489435E+02  0.14576548881E+03  0.88402582218E+02  0.17249300475E+03  0.00000000000E+00 0.  1.
          4    1    6    6  503    0  0.59236237575E+02 -0.20561614930E+03  0.85667674903E+02  0.23049052739E+03  0.00000000000E+00 0. -1.
         -4    1    6    6    0  503  0.16411192016E+03 -0.33669915982E+03  0.26615067928E+03  0.45949453821E+03  0.00000000000E+00 0.  1.
<mgrwt>
<rscale>  0 0.14342750E+04</rscale>
<asrwt>0</asrwt>
<pdfrwt beam="1">  1        2 0.60042984E-01 0.14342750E+04</pdfrwt>
<pdfrwt beam="2">  1       -1 0.20272899E+00 0.14342750E+04</pdfrwt>
<totfact> 0.13090349E+01</totfact>
</mgrwt>
</event>
<event>
12    7  0.1637954E-007  0.2447845E+04  0.7818608E-02  0.8421805E-01
         -1   -1    0    0    0  501 -0.00000000000E+00  0.00000000000E+00  0.15991449273E+04  0.15991449273E+04  0.00000000000E+00 0.  1.
          2   -1    0    0  501    0  0.00000000000E+00 -0.00000000000E+00 -0.93674214408E+03  0.93674214408E+03  0.00000000000E+00 0. -1.
         24    2    1    2    0    0  0.85501683968E+03 -0.40665938982E+03 -0.19669724809E+03  0.97012040767E+03  0.77576687999E+02 0.  0.
        254    2    1    2    0    0 -0.85501683968E+03  0.40665938982E+03  0.85910003133E+03  0.15657666637E+04  0.90396168389E+03 0.  0.
         23    2    4    4    0    0 -0.99603072791E+03  0.48766300185E+03  0.79836983317E+03  0.13695713431E+04  0.91863262925E+02 0.  0.
         23    2    4    4    0    0  0.14101388823E+03 -0.81003612034E+02  0.60730198162E+02  0.19619532060E+03  0.91421797304E+02 0.  0.
          4    1    3    3  502    0  0.70209947056E+03 -0.33413953928E+03 -0.19153984040E+03  0.80079985560E+03  0.00000000000E+00 0. -1.
         -3    1    3    3    0  502  0.15291736912E+03 -0.72519850538E+02 -0.51574076847E+01  0.16932055207E+03  0.00000000000E+00 0.  1.
         13    1    5    5    0    0 -0.27408228059E+03  0.13355248214E+03  0.27123006123E+03  0.40807243001E+03  0.00000000000E+00 0.  1.
        -13    1    5    5    0    0 -0.72194844732E+03  0.35411051971E+03  0.52713977194E+03  0.96149891311E+03  0.00000000000E+00 0. -1.
          3    1    6    6  503    0  0.75751849598E+02 -0.18186182192E+02  0.70524934019E+02  0.10508494782E+03  0.00000000000E+00 0. -1.
         -3    1    6    6    0  503  0.65262038631E+02 -0.62817429842E+02 -0.97947358565E+01  0.91110372783E+02  0.00000000000E+00 0.  1.
<mgrwt>
<rscale>  0 0.24478451E+04</rscale>
<asrwt>0</asrwt>
<pdfrwt beam="1">  1        2 0.14411418E+00 0.24478451E+04</pdfrwt>
<pdfrwt beam="2">  1       -1 0.24602230E+00 0.24478451E+04</pdfrwt>
<totfact> 0.20945365E+00</totfact>
</mgrwt>
</event>
<event>
12    7  0.1637954E-007  0.1702425E+04  0.7818608E-02  0.8759983E-01
          2   -1    0    0  501    0  0.00000000000E+00  0.00000000000E+00  0.13154421626E+04  0.13154421626E+04  0.00000000000E+00 0. -1.
         -1   -1    0    0    0  501 -0.00000000000E+00 -0.00000000000E+00 -0.55081273523E+03  0.55081273523E+03  0.00000000000E+00 0.  1.
         24    2    1    2    0    0 -0.64495464655E+02 -0.60706396487E+03  0.18944732787E+03  0.64420629069E+03  0.80156924386E+02 0.  0.
        254    2    1    2    0    0  0.64495464655E+02  0.60706396487E+03  0.57518209951E+03  0.12220486072E+04  0.88875307495E+03 0.  0.
         23    2    4    4    0    0  0.90192759200E+01  0.69230622854E+03  0.73349905128E+03  0.10128129413E+04  0.91651156379E+02 0.  0.
         23    2    4    4    0    0  0.55476188735E+02 -0.85242263670E+02 -0.15831695176E+03  0.20923566583E+03  0.91495658959E+02 0.  0.
          4    1    3    3  502    0 -0.11208114837E-01 -0.60748729376E+02 -0.44881984239E+01  0.60914301863E+02  0.00000000000E+00 0. -1.
         -3    1    3    3    0  502 -0.64484256541E+02 -0.54631523549E+03  0.19393552629E+03  0.58329198883E+03  0.00000000000E+00 0.  1.
         13    1    5    5    0    0 -0.19317250908E+02  0.60861932236E+03  0.65882642722E+03  0.89713036786E+03  0.00000000000E+00 0.  1.
        -13    1    5    5    0    0  0.28336526828E+02  0.83686906178E+02  0.74672624058E+02  0.11568257346E+03  0.00000000000E+00 0. -1.
          3    1    6    6  503    0 -0.21471584673E+02 -0.20513356526E+02 -0.67494981161E+02  0.73738722705E+02  0.00000000000E+00 0. -1.
         -3    1    6    6    0  503  0.76947773408E+02 -0.64728907144E+02 -0.90821970602E+02  0.13549694313E+03  0.00000000000E+00 0.  1.
<mgrwt>
<rscale>  0 0.17024245E+04</rscale>
<asrwt>0</asrwt>
<pdfrwt beam="1">  1        2 0.20237572E+00 0.17024245E+04</pdfrwt>
<pdfrwt beam="2">  1       -1 0.84740421E-01 0.17024245E+04</pdfrwt>
<totfact> 0.24203928E+01</totfact>
</mgrwt>
</event>
<event>
12    7  0.1637954E-007  0.1525793E+04  0.7818608E-02  0.8867480E-01
          2   -1    0    0  501    0  0.00000000000E+00  0.00000000000E+00  0.44464304628E+03  0.44464304628E+03  0.00000000000E+00 0. -1.
         -3   -1    0    0    0  501 -0.00000000000E+00 -0.00000000000E+00 -0.13089397152E+04  0.13089397152E+04  0.00000000000E+00 0.  1.
         24    2    1    2    0    0  0.17649055437E+03 -0.16814075624E+03  0.22201157317E+03  0.33948035023E+03  0.80855054783E+02 0.  0.
        254    2    1    2    0    0 -0.17649055437E+03  0.16814075624E+03 -0.10863082420E+04  0.14141024112E+04  0.87189437604E+03 0.  0.
         23    2    4    4    0    0 -0.35082294448E+03  0.13163962705E+03 -0.86966414337E+02  0.39507910790E+03  0.90103354504E+02 0.  0.
         23    2    4    4    0    0  0.17433239011E+03  0.36501129193E+02 -0.99934182771E+03  0.10190233033E+04  0.89444336967E+02 0.  0.
          4    1    3    3  502    0  0.18462089783E+03 -0.15405852658E+03  0.20548938271E+03  0.31629858036E+03  0.00000000000E+00 0. -1.
         -3    1    3    3    0  502 -0.81303434661E+01 -0.14082229663E+02  0.16522190457E+02  0.23181769878E+02  0.00000000000E+00 0.  1.
         13    1    5    5    0    0 -0.31840616656E+03  0.14248761017E+03 -0.66134258102E+02  0.35504780812E+03  0.00000000000E+00 0. -1.
        -13    1    5    5    0    0 -0.32416777921E+02 -0.10847983126E+02 -0.20832156235E+02  0.40031299780E+02  0.00000000000E+00 0.  1.
          4    1    6    6  503    0  0.16269041335E+03  0.56022453795E+02 -0.79416571603E+03  0.81259206890E+03  0.00000000000E+00 0. -1.
         -4    1    6    6    0  503  0.11641976756E+02 -0.19521324602E+02 -0.20517611168E+03  0.20643123441E+03  0.00000000000E+00 0.  1.
<mgrwt>
<rscale>  0 0.15257928E+04</rscale>
<asrwt>0</asrwt>
<pdfrwt beam="1">  1        2 0.68406623E-01 0.15257928E+04</pdfrwt>
<pdfrwt beam="2">  1       -3 0.20137534E+00 0.15257928E+04</pdfrwt>
<totfact> 0.61004876E+00</totfact>
</mgrwt>
</event>
<event>
12    7  0.1637954E-007  0.1527431E+04  0.7818608E-02  0.8866414E-01
         -1   -1    0    0    0  501 -0.00000000000E+00  0.00000000000E+00  0.48026561616E+03  0.48026561616E+03  0.00000000000E+00 0.  1.
          2   -1    0    0  501    0  0.00000000000E+00 -0.00000000000E+00 -0.12144557239E+04  0.12144557239E+04  0.00000000000E+00 0. -1.
         24    2    1    2    0    0  0.27342082398E+03 -0.20728919799E+03 -0.61419128167E+03  0.70803946387E+03  0.79757089521E+02 0.  0.
        254    2    1    2    0    0 -0.27342082398E+03  0.20728919799E+03 -0.11999882609E+03  0.98668187622E+03  0.91728602301E+03 0.  0.
         23    2    4    4    0    0 -0.20603575425E+03  0.17832138427E+03 -0.50701396671E+03  0.58212442214E+03  0.86927741742E+02 0.  0.
         23    2    4    4    0    0 -0.67385069726E+02  0.28967813715E+02  0.38701514063E+03  0.40455745408E+03  0.92228697935E+02 0.  0.
          2    1    3    3  502    0  0.24275053971E+03 -0.18998659669E+03 -0.58884746321E+03  0.66465334302E+03  0.00000000000E+00 0. -1.
         -1    1    3    3    0  502  0.30670284264E+02 -0.17302601299E+02 -0.25343818460E+02  0.43386120853E+02  0.00000000000E+00 0.  1.
         13    1    5    5    0    0 -0.20273756427E+03  0.18370498745E+03 -0.46401944322E+03  0.53866880926E+03  0.00000000000E+00 0. -1.
        -13    1    5    5    0    0 -0.32981899819E+01 -0.53836031737E+01 -0.42994523492E+02  0.43455612878E+02  0.00000000000E+00 0.  1.
          4    1    6    6  503    0 -0.30185317401E+02 -0.31228882934E+02  0.19855986816E+03  0.20325456393E+03  0.00000000000E+00 0. -1.
         -4    1    6    6    0  503 -0.37199752325E+02  0.60196696649E+02  0.18845527247E+03  0.20130289015E+03  0.00000000000E+00 0.  1.
<mgrwt>
<rscale>  0 0.15274309E+04</rscale>
<asrwt>0</asrwt>
<pdfrwt beam="1">  1        2 0.18683934E+00 0.15274309E+04</pdfrwt>
<pdfrwt beam="2">  1       -1 0.73887017E-01 0.15274309E+04</pdfrwt>
<totfact> 0.37659776E+01</totfact>
</mgrwt>
</event>
<event>
12    7  0.1637954E-007  0.2200560E+04  0.7818608E-02  0.8518195E-01
          2   -1    0    0  501    0  0.00000000000E+00  0.00000000000E+00  0.19083086198E+04  0.19083086198E+04  0.00000000000E+00 0. -1.
         -1   -1    0    0    0  501 -0.00000000000E+00 -0.00000000000E+00 -0.63439215203E+03  0.63439215203E+03  0.00000000000E+00 0.  1.
         24    2    1    2    0    0 -0.73486134929E+02  0.22019499549E+03 -0.49097303580E+03  0.54914281899E+03  0.81346577703E+02 0.  0.
        254    2    1    2    0    0  0.73486134929E+02 -0.22019499549E+03  0.17648895036E+04  0.19935579528E+04  0.89752565618E+03 0.  0.
         23    2    4    4    0    0  0.18400522784E+03 -0.40176422391E+03  0.16900536282E+04  0.17492586885E+04  0.91390797572E+02 0.  0.
         23    2    4    4    0    0 -0.11051909291E+03  0.18156922842E+03  0.74835875387E+02  0.24429926429E+03  0.94339110042E+02 0.  0.
          4    1    3    3  502    0  0.91303848227E+01  0.13851437941E+02 -0.10194129910E+02  0.19471685717E+02  0.00000000000E+00 0. -1.
         -3    1    3    3    0  502 -0.82616519751E+02  0.20634355755E+03 -0.48077890589E+03  0.52967113327E+03  0.00000000000E+00 0.  1.
         13    1    5    5    0    0  0.51410499805E+02 -0.12884135821E+03  0.70552125190E+03  0.71902946529E+03  0.00000000000E+00 0.  1.
        -13    1    5    5    0    0  0.13259472803E+03 -0.27292286570E+03  0.98453237627E+03  0.10302292233E+04  0.00000000000E+00 0. -1.
          2    1    6    6  503    0 -0.68676970838E+02  0.14047247942E+03  0.97182836782E+01  0.15666361682E+03  0.00000000000E+00 0. -1.
         -2    1    6    6    0  503 -0.41842122072E+02  0.41096748995E+02  0.65117591709E+02  0.87635647470E+02  0.00000000000E+00 0.  1.
<mgrwt>
<rscale>  0 0.22005599E+04</rscale>
<asrwt>0</asrwt>
<pdfrwt beam="1">  1        2 0.29358594E+00 0.22005599E+04</pdfrwt>
<pdfrwt beam="2">  1       -1 0.97598793E-01 0.22005599E+04</pdfrwt>
<totfact> 0.78748163E+00</totfact>
</mgrwt>
</event>
<event>
12    7  0.1637954E-007  0.2102427E+04  0.7818608E-02  0.8560175E-01
          2   -1    0    0  501    0  0.00000000000E+00  0.00000000000E+00  0.27920631650E+04  0.27920631650E+04  0.00000000000E+00 0. -1.
         -1   -1    0    0    0  501 -0.00000000000E+00 -0.00000000000E+00 -0.39578263812E+03  0.39578263812E+03  0.00000000000E+00 0.  1.
         24    2    1    2    0    0  0.60059445441E+03 -0.18963613951E+03  0.18575080345E+04  0.19629610794E+04  0.78768883584E+02 0.  0.
        254    2    1    2    0    0 -0.60059445441E+03  0.18963613951E+03  0.53877249237E+03  0.12248847237E+04  0.90188204535E+03 0.  0.
         23    2    4    4    0    0 -0.34566866726E+02  0.61575576086E+02  0.62118948455E+03  0.63200491765E+03  0.92560360683E+02 0.  0.
         23    2    4    4    0    0 -0.56602758768E+03  0.12806056342E+03 -0.82416992179E+02  0.59287980604E+03  0.89034633130E+02 0.  0.
          4    1    3    3  502    0  0.17864806749E+03 -0.68877571469E+02  0.46326884923E+03  0.50127565125E+03  0.00000000000E+00 0. -1.
         -3    1    3    3    0  502  0.42194638691E+03 -0.12075856804E+03  0.13942391853E+04  0.14616854282E+04  0.00000000000E+00 0.  1.
         13    1    5    5    0    0  0.17074625043E+02  0.26284321200E+01  0.33006548034E+03  0.33051728062E+03  0.00000000000E+00 0.  1.
        -13    1    5    5    0    0 -0.51641491769E+02  0.58947143966E+02  0.29112400422E+03  0.30148763703E+03  0.00000000000E+00 0. -1.
          4    1    6    6  503    0 -0.12147806139E+03  0.87915581725E+01 -0.49378187149E+02  0.13142456491E+03  0.00000000000E+00 0. -1.
         -4    1    6    6    0  503 -0.44454952629E+03  0.11926900525E+03 -0.33038805030E+02  0.46145524114E+03  0.00000000000E+00 0.  1.
<mgrwt>
<rscale>  0 0.21024273E+04</rscale>
<asrwt>0</asrwt>
<pdfrwt beam="1">  1        2 0.42954817E+00 0.21024273E+04</pdfrwt>
<pdfrwt beam="2">  1       -1 0.60889638E-01 0.21024273E+04</pdfrwt>
<totfact> 0.67133089E+00</totfact>
</mgrwt>
</event>
<event>
12    7  0.1637954E-007  0.2060760E+04  0.7818608E-02  0.8578728E-01
          2   -1    0    0  501    0  0.00000000000E+00  0.00000000000E+00  0.20842878943E+04  0.20842878943E+04  0.00000000000E+00 0. -1.
         -1   -1    0    0    0  501 -0.00000000000E+00 -0.00000000000E+00 -0.50937459034E+03  0.50937459034E+03  0.00000000000E+00 0.  1.
         24    2    1    2    0    0  0.16590948802E+03 -0.68035561777E+03  0.74415699399E+02  0.70913277277E+03  0.83197765948E+02 0.  0.
        254    2    1    2    0    0 -0.16590948802E+03  0.68035561777E+03  0.15004976045E+04  0.18845297118E+04  0.89974965894E+03 0.  0.
         23    2    4    4    0    0  0.33331568143E+02  0.58749163304E+03  0.31108956039E+03  0.67157693660E+03  0.89338988482E+02 0.  0.
         23    2    4    4    0    0 -0.19924105616E+03  0.92863984729E+02  0.11894080441E+04  0.12129527752E+04  0.90786680599E+02 0.  0.
          4    1    3    3  502    0  0.25699218857E+02 -0.19686118322E+03  0.51958035412E+02  0.20521796401E+03  0.00000000000E+00 0. -1.
         -3    1    3    3    0  502  0.14021026916E+03 -0.48349443455E+03  0.22457663987E+02  0.50391480876E+03  0.00000000000E+00 0.  1.
         13    1    5    5    0    0 -0.11685962490E+02  0.20739160240E+03  0.69897899504E+02  0.21916558767E+03  0.00000000000E+00 0.  1.
        -13    1    5    5    0    0  0.45017530633E+02  0.38010003064E+03  0.24119166089E+03  0.45241134893E+03  0.00000000000E+00 0. -1.
          4    1    6    6  503    0 -0.17425075103E+03  0.39187529974E+02  0.89968690103E+03  0.91724342822E+03  0.00000000000E+00 0. -1.
         -4    1    6    6    0  503 -0.24990305137E+02  0.53676454755E+02  0.28972114311E+03  0.29570934702E+03  0.00000000000E+00 0.  1.
<mgrwt>
<rscale>  0 0.20607603E+04</rscale>
<asrwt>0</asrwt>
<pdfrwt beam="1">  1        2 0.32065967E+00 0.20607603E+04</pdfrwt>
<pdfrwt beam="2">  1       -1 0.78365323E-01 0.20607603E+04</pdfrwt>
<totfact> 0.10284878E+01</totfact>
</mgrwt>
</event>
<event>
12    7  0.1637954E-007  0.1758612E+04  0.7818608E-02  0.8728624E-01
          2   -1    0    0  501    0  0.00000000000E+00  0.00000000000E+00  0.68991316131E+03  0.68991316131E+03  0.00000000000E+00 0. -1.
         -1   -1    0    0    0  501 -0.00000000000E+00 -0.00000000000E+00 -0.11206904298E+04  0.11206904298E+04  0.00000000000E+00 0.  1.
         24    2    1    2    0    0 -0.31962325569E+03 -0.31716672882E+03 -0.63149815479E+03  0.77943756966E+03  0.77325584679E+02 0.  0.
        254    2    1    2    0    0  0.31962325569E+03  0.31716672882E+03  0.20072088627E+03  0.10311660215E+04  0.90568246654E+03 0.  0.
         23    2    4    4    0    0  0.20645364946E+03 -0.11405350927E+03 -0.27399511203E+03  0.37342682530E+03  0.93503797201E+02 0.  0.
         23    2    4    4    0    0  0.11316960623E+03  0.43122023809E+03  0.47471599830E+03  0.65773919617E+03  0.92235121413E+02 0.  0.
          2    1    3    3  502    0 -0.72839966855E+01 -0.35579461463E+02 -0.52372481786E+02  0.63732499826E+02  0.00000000000E+00 0. -1.
         -1    1    3    3    0  502 -0.31233925901E+03 -0.28158726736E+03 -0.57912567301E+03  0.71570506984E+03  0.00000000000E+00 0.  1.
         13    1    5    5    0    0  0.46920703646E+02 -0.60868625795E+02 -0.13461707099E+03  0.15501063782E+03  0.00000000000E+00 0. -1.
        -13    1    5    5    0    0  0.15953294581E+03 -0.53184883475E+02 -0.13937804103E+03  0.21841618748E+03  0.00000000000E+00 0.  1.
          2    1    6    6  503    0  0.87317990213E+02  0.15582735528E+03  0.19034719833E+03  0.26103381386E+03  0.00000000000E+00 0. -1.
         -2    1    6    6    0  503  0.25851616017E+02  0.27539288281E+03  0.28436879997E+03  0.39670538230E+03  0.00000000000E+00 0.  1.
<mgrwt>
<rscale>  0 0.17586120E+04</rscale>
<asrwt>0</asrwt>
<pdfrwt beam="1">  1        2 0.10614049E+00 0.17586120E+04</pdfrwt>
<pdfrwt beam="2">  1       -1 0.17241391E+00 0.17586120E+04</pdfrwt>
<totfact> 0.10662596E+01</totfact>
</mgrwt>
</event>
<event>
12    7  0.1637954E-007  0.1470883E+04  0.7818608E-02  0.8904050E-01
          2   -1    0    0  501    0  0.00000000000E+00  0.00000000000E+00  0.66475020270E+03  0.66475020270E+03  0.00000000000E+00 0. -1.
         -1   -1    0    0    0  501 -0.00000000000E+00 -0.00000000000E+00 -0.81364985588E+03  0.81364985588E+03  0.00000000000E+00 0.  1.
         24    2    1    2    0    0 -0.36503414972E+03 -0.23741366375E+03 -0.18389585636E+03  0.47921821649E+03  0.78849444063E+02 0.  0.
        254    2    1    2    0    0  0.36503414972E+03  0.23741366375E+03  0.34996203178E+02  0.99918184209E+03  0.89862363709E+03 0.  0.
         23    2    4    4    0    0  0.16880096204E+03  0.30538440340E+03 -0.38166483864E+03  0.52505658032E+03  0.90900851807E+02 0.  0.
         23    2    4    4    0    0  0.19623318768E+03 -0.67970739652E+02  0.41666104182E+03  0.47412526177E+03  0.89782262614E+02 0.  0.
          2    1    3    3  502    0 -0.11252453660E+03 -0.87093029265E+02 -0.22844896987E+02  0.14411403957E+03  0.00000000000E+00 0. -1.
         -1    1    3    3    0  502 -0.25250961312E+03 -0.15032063448E+03 -0.16105095937E+03  0.33510417692E+03  0.00000000000E+00 0.  1.
         13    1    5    5    0    0  0.38603258997E+02  0.98860562525E+02 -0.17746259816E+03  0.20677668189E+03  0.00000000000E+00 0.  1.
        -13    1    5    5    0    0  0.13019770305E+03  0.20652384087E+03 -0.20420224048E+03  0.31827989843E+03  0.00000000000E+00 0. -1.
          3    1    6    6  503    0  0.76930291203E+02 -0.51902922236E+02  0.26320761270E+03  0.27908857093E+03  0.00000000000E+00 0. -1.
         -3    1    6    6    0  503  0.11930289647E+03 -0.16067817416E+02  0.15345342912E+03  0.19503669084E+03  0.00000000000E+00 0.  1.
<mgrwt>
<rscale>  0 0.14708826E+04</rscale>
<asrwt>0</asrwt>
<pdfrwt beam="1">  1        2 0.10226926E+00 0.14708826E+04</pdfrwt>
<pdfrwt beam="2">  1       -1 0.12517690E+00 0.14708826E+04</pdfrwt>
<totfact> 0.26979302E+01</totfact>
</mgrwt>
</event>
<event>
12    7  0.1637954E-007  0.1875182E+04  0.7818608E-02  0.8667310E-01
          2   -1    0    0  501    0  0.00000000000E+00  0.00000000000E+00  0.12920973862E+04  0.12920973862E+04  0.00000000000E+00 0. -1.
         -1   -1    0    0    0  501 -0.00000000000E+00 -0.00000000000E+00 -0.68034849639E+03  0.68034849639E+03  0.00000000000E+00 0.  1.
         24    2    1    2    0    0  0.66814606776E+03 -0.74668705212E+02  0.96987856362E+02  0.68239846870E+03  0.65318009731E+02 0.  0.
        254    2    1    2    0    0 -0.66814606776E+03  0.74668705212E+02  0.51476103345E+03  0.12900474139E+04  0.97326708827E+03 0.  0.
         23    2    4    4    0    0 -0.68582048464E+03 -0.14471825340E+02  0.75064384999E+03  0.10208083217E+04  0.89578285562E+02 0.  0.
         23    2    4    4    0    0  0.17674416873E+02  0.89140530552E+02 -0.23588281654E+03  0.26923909219E+03  0.92685308554E+02 0.  0.
          2    1    3    3  502    0  0.65286307676E+03 -0.62370094784E+02  0.93320836738E+02  0.66244169879E+03  0.00000000000E+00 0. -1.
         -1    1    3    3    0  502  0.15282991004E+02 -0.12298610428E+02  0.36670196237E+01  0.19956769914E+02  0.00000000000E+00 0.  1.
         13    1    5    5    0    0 -0.55315681146E+03 -0.33200248767E+02  0.64375863102E+03  0.84941738244E+03  0.00000000000E+00 0.  1.
        -13    1    5    5    0    0 -0.13266367318E+03  0.18728423427E+02  0.10688521897E+03  0.17139093926E+03  0.00000000000E+00 0. -1.
          3    1    6    6  503    0  0.54960904093E+02  0.64715363994E+02 -0.16354036334E+03  0.18426673535E+03  0.00000000000E+00 0. -1.
         -3    1    6    6    0  503 -0.37286487220E+02  0.24425166558E+02 -0.72342453202E+02  0.84972356833E+02  0.00000000000E+00 0.  1.
<mgrwt>
<rscale>  0 0.18751816E+04</rscale>
<asrwt>0</asrwt>
<pdfrwt beam="1">  1        2 0.19878421E+00 0.18751816E+04</pdfrwt>
<pdfrwt beam="2">  1       -1 0.10466900E+00 0.18751816E+04</pdfrwt>
<totfact> 0.15330724E+01</totfact>
</mgrwt>
</event>
<event>
12    7  0.1637954E-007  0.1758428E+04  0.7818608E-02  0.8728725E-01
         -1   -1    0    0    0  501 -0.00000000000E+00  0.00000000000E+00  0.61486339518E+03  0.61486339518E+03  0.00000000000E+00 0.  1.
          2   -1    0    0  501    0  0.00000000000E+00 -0.00000000000E+00 -0.12572175901E+04  0.12572175901E+04  0.00000000000E+00 0. -1.
         24    2    1    2    0    0 -0.36255285408E+03 -0.46438601095E+03  0.13156157130E+03  0.60920823163E+03  0.82020017498E+02 0.  0.
        254    2    1    2    0    0  0.36255285408E+03  0.46438601095E+03 -0.77391576627E+03  0.12628727537E+04  0.80548310944E+03 0.  0.
         23    2    4    4    0    0  0.22391739138E+03 -0.12475890958E+03 -0.54590603487E+03  0.60991328120E+03  0.90978173150E+02 0.  0.
         23    2    4    4    0    0  0.13863546269E+03  0.58914492053E+03 -0.22800973140E+03  0.65295947250E+03  0.89755814338E+02 0.  0.
          4    1    3    3  502    0 -0.91353266128E+02 -0.66600143219E+02  0.16961729691E+02  0.11431840877E+03  0.00000000000E+00 0. -1.
         -3    1    3    3    0  502 -0.27119958795E+03 -0.39778586773E+03  0.11459984161E+03  0.49488982286E+03  0.00000000000E+00 0.  1.
         13    1    5    5    0    0  0.10420081282E+02 -0.70084837733E+01 -0.10782559884E+03  0.10855439513E+03  0.00000000000E+00 0.  1.
        -13    1    5    5    0    0  0.21349731010E+03 -0.11775042581E+03 -0.43808043604E+03  0.50135888607E+03  0.00000000000E+00 0. -1.
          4    1    6    6  503    0  0.54405679733E+02  0.26683249591E+03 -0.14964481527E+03  0.31072999468E+03  0.00000000000E+00 0.  1.
         -4    1    6    6    0  503  0.84229782961E+02  0.32231242463E+03 -0.78364916131E+02  0.34222947782E+03  0.00000000000E+00 0. -1.
<mgrwt>
<rscale>  0 0.17584278E+04</rscale>
<asrwt>0</asrwt>
<pdfrwt beam="1">  1        2 0.19341809E+00 0.17584278E+04</pdfrwt>
<pdfrwt beam="2">  1       -1 0.94594369E-01 0.17584278E+04</pdfrwt>
<totfact> 0.20450323E+01</totfact>
</mgrwt>
</event>
<event>
12    7  0.1637954E-007  0.2173138E+04  0.7818608E-02  0.8529693E-01
         -1   -1    0    0    0  501 -0.00000000000E+00  0.00000000000E+00  0.11523505823E+04  0.11523505823E+04  0.00000000000E+00 0.  1.
          2   -1    0    0  501    0  0.00000000000E+00 -0.00000000000E+00 -0.10245423821E+04  0.10245423821E+04  0.00000000000E+00 0. -1.
         24    2    1    2    0    0 -0.10279675563E+03 -0.28602407771E+03 -0.79265609906E+03  0.85329931531E+03  0.86250125412E+02 0.  0.
        254    2    1    2    0    0  0.10279675563E+03  0.28602407771E+03  0.92046429926E+03  0.13235936491E+04  0.90125949412E+03 0.  0.
         23    2    4    4    0    0  0.10379338060E+03 -0.12601135641E+03 -0.10349979184E+03  0.21601413150E+03  0.96425983507E+02 0.  0.
         23    2    4    4    0    0 -0.99662497369E+00  0.41203543412E+03  0.10239640911E+04  0.11075795176E+04  0.91955074634E+02 0.  0.
          4    1    3    3  502    0 -0.11848591440E+03 -0.25156894423E+03 -0.69656969488E+03  0.75002345659E+03  0.00000000000E+00 0. -1.
         -3    1    3    3    0  502  0.15689158766E+02 -0.34455133483E+02 -0.96086404179E+02  0.10327585872E+03  0.00000000000E+00 0.  1.
         13    1    5    5    0    0  0.96907945636E+02 -0.51739308094E+02 -0.85700277327E+02  0.13932926277E+03  0.00000000000E+00 0. -1.
        -13    1    5    5    0    0  0.68854349666E+01 -0.74272048311E+02 -0.17799514510E+02  0.76684868728E+02  0.00000000000E+00 0.  1.
          2    1    6    6  503    0 -0.36745074293E+02  0.16123585074E+03  0.47546784203E+03  0.50340527297E+03  0.00000000000E+00 0. -1.
         -2    1    6    6    0  503  0.35748449320E+02  0.25079958337E+03  0.54849624906E+03  0.60417424464E+03  0.00000000000E+00 0.  1.
<mgrwt>
<rscale>  0 0.21731378E+04</rscale>
<asrwt>0</asrwt>
<pdfrwt beam="1">  1        2 0.15762191E+00 0.21731378E+04</pdfrwt>
<pdfrwt beam="2">  1       -1 0.17728470E+00 0.21731378E+04</pdfrwt>
<totfact> 0.55255071E+00</totfact>
</mgrwt>
</event>
<event>
12    7  0.1637954E-007  0.2144842E+04  0.7818608E-02  0.8541743E-01
          2   -1    0    0  501    0  0.00000000000E+00  0.00000000000E+00  0.19370786492E+04  0.19370786492E+04  0.00000000000E+00 0. -1.
         -1   -1    0    0    0  501 -0.00000000000E+00 -0.00000000000E+00 -0.59372233006E+03  0.59372233006E+03  0.00000000000E+00 0.  1.
         24    2    1    2    0    0  0.15024514148E+03 -0.72565395024E+03  0.11177277906E+04  0.13435308367E+04  0.81316892684E+02 0.  0.
        254    2    1    2    0    0 -0.15024514148E+03  0.72565395024E+03  0.22562852851E+03  0.11872701426E+04  0.89975268858E+03 0.  0.
         23    2    4    4    0    0 -0.30885300506E+03  0.47973830803E+03  0.50877742366E+03  0.76987709407E+03  0.91198959560E+02 0.  0.
         23    2    4    4    0    0  0.15860786358E+03  0.24591564221E+03 -0.28314889515E+03  0.41739304854E+03  0.91720786441E+02 0.  0.
          2    1    3    3  502    0  0.12335408888E+03 -0.68094837179E+03  0.10579931307E+04  0.12642216502E+04  0.00000000000E+00 0. -1.
         -1    1    3    3    0  502  0.26891052593E+02 -0.44705578451E+02  0.59734659946E+02  0.79309186435E+02  0.00000000000E+00 0.  1.
         13    1    5    5    0    0 -0.26698232593E+03  0.44311372503E+03  0.42604554177E+03  0.67018216876E+03  0.00000000000E+00 0. -1.
        -13    1    5    5    0    0 -0.41870679130E+02  0.36624583001E+02  0.82731881895E+02  0.99694925310E+02  0.00000000000E+00 0.  1.
          3    1    6    6  503    0  0.37375619476E+02  0.62285346099E+02 -0.13126914872E+03  0.15002663322E+03  0.00000000000E+00 0. -1.
         -3    1    6    6    0  503  0.12123224410E+03  0.18363029611E+03 -0.15187974643E+03  0.26736641531E+03  0.00000000000E+00 0.  1.
<mgrwt>
<rscale>  0 0.21448420E+04</rscale>
<asrwt>0</asrwt>
<pdfrwt beam="1">  1        2 0.29801210E+00 0.21448420E+04</pdfrwt>
<pdfrwt beam="2">  1       -1 0.91341897E-01 0.21448420E+04</pdfrwt>
<totfact> 0.88481251E+00</totfact>
</mgrwt>
</event>
<event>
12    7  0.1637954E-007  0.2123940E+04  0.7818608E-02  0.8550770E-01
          2   -1    0    0  501    0  0.00000000000E+00  0.00000000000E+00  0.96075716888E+03  0.96075716888E+03  0.00000000000E+00 0. -1.
         -1   -1    0    0    0  501 -0.00000000000E+00 -0.00000000000E+00 -0.11738452833E+04  0.11738452833E+04  0.00000000000E+00 0.  1.
         24    2    1    2    0    0 -0.54828088449E+03  0.43215711278E+03 -0.60955992814E+03  0.93047847927E+03  0.82796110803E+02 0.  0.
        254    2    1    2    0    0  0.54828088449E+03 -0.43215711278E+03  0.39647181368E+03  0.12041239730E+04  0.89741458913E+03 0.  0.
         23    2    4    4    0    0  0.93659720221E+02 -0.29324460448E+03  0.59880612886E+03  0.67941479833E+03  0.90945846471E+02 0.  0.
         23    2    4    4    0    0  0.45462116427E+03 -0.13891250829E+03 -0.20233431518E+03  0.52470917462E+03  0.91670359828E+02 0.  0.
          4    1    3    3  502    0 -0.72038498495E+01  0.19197785197E+02 -0.30917247455E+02  0.37098875985E+02  0.00000000000E+00 0. -1.
         -3    1    3    3    0  502 -0.54107703464E+03  0.41295932758E+03 -0.57864268069E+03  0.89337960329E+03  0.00000000000E+00 0.  1.
         13    1    5    5    0    0  0.51582405306E+02 -0.21435919196E+03  0.49829912223E+03  0.54489689202E+03  0.00000000000E+00 0. -1.
        -13    1    5    5    0    0  0.42077314915E+02 -0.78885412520E+02  0.10050700663E+03  0.13451790632E+03  0.00000000000E+00 0.  1.
          3    1    6    6  503    0  0.26869873929E+03 -0.12483280855E+03 -0.14342167641E+03  0.32916867993E+03  0.00000000000E+00 0. -1.
         -3    1    6    6    0  503  0.18592242498E+03 -0.14079699746E+02 -0.58912638762E+02  0.19554049469E+03  0.00000000000E+00 0.  1.
<mgrwt>
<rscale>  0 0.21239400E+04</rscale>
<asrwt>0</asrwt>
<pdfrwt beam="1">  1        2 0.14780879E+00 0.21239400E+04</pdfrwt>
<pdfrwt beam="2">  1       -1 0.18059158E+00 0.21239400E+04</pdfrwt>
<totfact> 0.57750624E+00</totfact>
</mgrwt>
</event>
<event>
12    7  0.1637954E-007  0.3679644E+04  0.7818608E-02  0.8072488E-01
         -1   -1    0    0    0  501 -0.00000000000E+00  0.00000000000E+00  0.17098349456E+04  0.17098349456E+04  0.00000000000E+00 0.  1.
          2   -1    0    0  501    0  0.00000000000E+00 -0.00000000000E+00 -0.19796905842E+04  0.19796905842E+04  0.00000000000E+00 0. -1.
         24    2    1    2    0    0 -0.76971987334E+03 -0.92184588509E+03  0.11190994569E+04  0.16435555053E+04  0.81379267953E+02 0.  0.
        254    2    1    2    0    0  0.76971987334E+03  0.92184588509E+03 -0.13889550955E+04  0.20459700245E+04  0.90251236262E+03 0.  0.
         23    2    4    4    0    0  0.83600913724E+03  0.10113271903E+04 -0.10692397565E+04  0.16952569078E+04  0.94490015732E+02 0.  0.
         23    2    4    4    0    0 -0.66289263903E+02 -0.89481305264E+02 -0.31971533902E+03  0.35071311674E+03  0.91545735823E+02 0.  0.
          2    1    3    3  502    0 -0.14930929418E+03 -0.15681499214E+03  0.24114702756E+03  0.32409272746E+03  0.00000000000E+00 0. -1.
         -1    1    3    3    0  502 -0.62041057916E+03 -0.76503089294E+03  0.87795242937E+03  0.13194627778E+04  0.00000000000E+00 0.  1.
         13    1    5    5    0    0  0.22593117997E+03  0.33637700975E+03 -0.35149129713E+03  0.53641450645E+03  0.00000000000E+00 0. -1.
        -13    1    5    5    0    0  0.61007795727E+03  0.67495018060E+03 -0.71774845932E+03  0.11588424013E+04  0.00000000000E+00 0.  1.
          1    1    6    6  503    0 -0.15044627956E+02 -0.88665027036E+02 -0.16772203989E+03  0.19031161424E+03  0.00000000000E+00 0. -1.
         -1    1    6    6    0  503 -0.51244635947E+02 -0.81627822782E+00 -0.15199329913E+03  0.16040150250E+03  0.00000000000E+00 0.  1.
<mgrwt>
<rscale>  0 0.36796435E+04</rscale>
<asrwt>0</asrwt>
<pdfrwt beam="1">  1        2 0.30456778E+00 0.36796435E+04</pdfrwt>
<pdfrwt beam="2">  1       -1 0.26305153E+00 0.36796435E+04</pdfrwt>
<totfact> 0.36210000E-01</totfact>
</mgrwt>
</event>
<event>
12    7  0.1637954E-007  0.1318164E+04  0.7818608E-02  0.9015283E-01
          2   -1    0    0  501    0  0.00000000000E+00  0.00000000000E+00  0.57151505563E+03  0.57151505563E+03  0.00000000000E+00 0. -1.
         -1   -1    0    0    0  501 -0.00000000000E+00 -0.00000000000E+00 -0.76006640035E+03  0.76006640035E+03  0.00000000000E+00 0.  1.
         24    2    1    2    0    0 -0.14792719866E+03 -0.81838578693E+02  0.28741080011E+03  0.34297501189E+03  0.80292475959E+02 0.  0.
        254    2    1    2    0    0  0.14792719866E+03  0.81838578693E+02 -0.47596214483E+03  0.98860644409E+03  0.84983688371E+03 0.  0.
         23    2    4    4    0    0  0.38712008256E+03 -0.22243575492E+03 -0.33993143245E+03  0.56845057627E+03  0.90791274352E+02 0.  0.
         23    2    4    4    0    0 -0.23919288390E+03  0.30427433362E+03 -0.13603071238E+03  0.42015586783E+03  0.90722063188E+02 0.  0.
          4    1    3    3  502    0 -0.13915495505E+03 -0.85154628956E+02  0.29043747823E+03  0.33312061045E+03  0.00000000000E+00 0. -1.
         -3    1    3    3    0  502 -0.87722436031E+01  0.33160502636E+01 -0.30266781209E+01  0.98544014344E+01  0.00000000000E+00 0.  1.
         13    1    5    5    0    0  0.28206062449E+03 -0.14804837879E+03 -0.28866822782E+03  0.42989052572E+03  0.00000000000E+00 0.  1.
        -13    1    5    5    0    0  0.10505945807E+03 -0.74387376136E+02 -0.51263204628E+02  0.13856005055E+03  0.00000000000E+00 0. -1.
          1    1    6    6  503    0 -0.33377457045E+02  0.72192782535E+02 -0.63037913468E+02  0.10148709782E+03  0.00000000000E+00 0. -1.
         -1    1    6    6    0  503 -0.20581542686E+03  0.23208155108E+03 -0.72992798913E+02  0.31866877001E+03  0.00000000000E+00 0.  1.
<mgrwt>
<rscale>  0 0.13181645E+04</rscale>
<asrwt>0</asrwt>
<pdfrwt beam="1">  1        2 0.87925394E-01 0.13181645E+04</pdfrwt>
<pdfrwt beam="2">  1       -1 0.11693329E+00 0.13181645E+04</pdfrwt>
<totfact> 0.38816531E+01</totfact>
</mgrwt>
</event>
<event>
12    7  0.1637954E-007  0.1154658E+04  0.7818608E-02  0.9153497E-01
          4   -1    0    0  501    0  0.00000000000E+00  0.00000000000E+00  0.31206006237E+03  0.31206006237E+03  0.00000000000E+00 0. -1.
         -3   -1    0    0    0  501 -0.00000000000E+00 -0.00000000000E+00 -0.10680912462E+04  0.10680912462E+04  0.00000000000E+00 0.  1.
         24    2    1    2    0    0 -0.10714751835E+03 -0.25226935375E+02 -0.37391954629E+03  0.39773564952E+03  0.79125412107E+02 0.  0.
        254    2    1    2    0    0  0.10714751835E+03  0.25226935375E+02 -0.38211163749E+03  0.98241565901E+03  0.89833971002E+03 0.  0.
         23    2    4    4    0    0  0.34485246442E+03 -0.31841659196E+02  0.15183339842E+03  0.38842262947E+03  0.88778627650E+02 0.  0.
         23    2    4    4    0    0 -0.23770494608E+03  0.57068594570E+02 -0.53394503590E+03  0.59399302954E+03  0.89274587106E+02 0.  0.
          2    1    3    3  502    0  0.11670611981E+02  0.53787545390E+00 -0.16604777723E+02  0.20302983457E+02  0.00000000000E+00 0. -1.
         -1    1    3    3    0  502 -0.11881813033E+03 -0.25764810829E+02 -0.35731476857E+03  0.37743266606E+03  0.00000000000E+00 0.  1.
         13    1    5    5    0    0  0.23482657833E+03 -0.60386095969E+02  0.87242086323E+02  0.25768427213E+03  0.00000000000E+00 0. -1.
        -13    1    5    5    0    0  0.11002588609E+03  0.28544436773E+02  0.64591312092E+02  0.13073835734E+03  0.00000000000E+00 0.  1.
          2    1    6    6  503    0 -0.14122929167E+03  0.23421227414E+02 -0.40447541413E+03  0.42906249819E+03  0.00000000000E+00 0.  1.
         -2    1    6    6    0  503 -0.96475654403E+02  0.33647367156E+02 -0.12946962178E+03  0.16493053135E+03  0.00000000000E+00 0. -1.
<mgrwt>
<rscale>  0 0.11546577E+04</rscale>
<asrwt>0</asrwt>
<pdfrwt beam="1">  1        4 0.48009241E-01 0.11546577E+04</pdfrwt>
<pdfrwt beam="2">  1       -3 0.16432173E+00 0.11546577E+04</pdfrwt>
<totfact> 0.24097577E+00</totfact>
</mgrwt>
</event>
<event>
12    7  0.1637954E-007  0.1863974E+04  0.7818608E-02  0.8673000E-01
          2   -1    0    0  501    0  0.00000000000E+00  0.00000000000E+00  0.28240711450E+04  0.28240711450E+04  0.00000000000E+00 0. -1.
         -1   -1    0    0    0  501 -0.00000000000E+00 -0.00000000000E+00 -0.30757001016E+03  0.30757001016E+03  0.00000000000E+00 0.  1.
         24    2    1    2    0    0 -0.46861332487E+03  0.49813783574E+03  0.60708769718E+03  0.91800481811E+03  0.80234795328E+02 0.  0.
        254    2    1    2    0    0  0.46861332487E+03 -0.49813783574E+03  0.19094134376E+04  0.22136363370E+04  0.88689706569E+03 0.  0.
         23    2    4    4    0    0  0.38689641690E+03  0.56815920870E+02  0.13784717348E+04  0.14357806949E+04  0.91460341157E+02 0.  0.
         23    2    4    4    0    0  0.81716907963E+02 -0.55495375661E+03  0.53094170282E+03  0.77785564208E+03  0.92244149437E+02 0.  0.
          2    1    3    3  502    0 -0.11767022455E+03  0.17829206247E+03  0.19742719833E+03  0.29088114398E+03  0.00000000000E+00 0. -1.
         -1    1    3    3    0  502 -0.35094310032E+03  0.31984577327E+03  0.40966049884E+03  0.62712367413E+03  0.00000000000E+00 0.  1.
         13    1    5    5    0    0  0.17537753581E+03  0.67738435977E+02  0.71623482765E+03  0.74049855105E+03  0.00000000000E+00 0.  1.
        -13    1    5    5    0    0  0.21151888110E+03 -0.10922515107E+02  0.66223690716E+03  0.69528214388E+03  0.00000000000E+00 0. -1.
          2    1    6    6  503    0 -0.67757203044E+01 -0.23708692621E+02  0.50239558915E+02  0.55964504567E+02  0.00000000000E+00 0. -1.
         -2    1    6    6    0  503  0.88492628267E+02 -0.53124506399E+03  0.48070214391E+03  0.72189113752E+03  0.00000000000E+00 0.  1.
<mgrwt>
<rscale>  0 0.18639738E+04</rscale>
<asrwt>0</asrwt>
<pdfrwt beam="1">  1        2 0.43447247E+00 0.18639738E+04</pdfrwt>
<pdfrwt beam="2">  1       -1 0.47318465E-01 0.18639738E+04</pdfrwt>
<totfact> 0.10679148E+01</totfact>
</mgrwt>
</event>
<event>
12    7  0.2294746E-007  0.2057621E+04  0.7818608E-02  0.8580145E-01
         -1   -1    0    0    0  501 -0.00000000000E+00  0.00000000000E+00  0.63602895262E+03  0.63602895262E+03  0.00000000000E+00 0.  1.
          2   -1    0    0  501    0  0.00000000000E+00 -0.00000000000E+00 -0.16641555678E+04  0.16641555678E+04  0.00000000000E+00 0. -1.
         24    2    1    2    0    0 -0.42853126966E+03 -0.48962634766E+03 -0.99392985798E+03  0.11909760301E+04  0.84583286326E+02 0.  0.
        254    2    1    2    0    0  0.42853126966E+03  0.48962634766E+03 -0.34196757170E+02  0.11092084903E+04  0.89766421747E+03 0.  0.
         23    2    4    4    0    0  0.39347104259E+03  0.61776796176E+03 -0.29964272899E+03  0.79687497704E+03  0.93633584036E+02 0.  0.
         23    2    4    4    0    0  0.35060227070E+02 -0.12814161410E+03  0.26544597182E+03  0.31233351325E+03  0.97165666542E+02 0.  0.
          2    1    3    3  502    0 -0.40400322299E+03 -0.46201805929E+03 -0.89361158903E+03  0.10840760874E+04  0.00000000000E+00 0. -1.
         -1    1    3    3    0  502 -0.24528046666E+02 -0.27608288373E+02 -0.10031826895E+03  0.10689994268E+03  0.00000000000E+00 0.  1.
         13    1    5    5    0    0  0.10746811535E+03  0.21388184351E+03 -0.13776372312E+03  0.27617690383E+03  0.00000000000E+00 0.  1.
        -13    1    5    5    0    0  0.28600292723E+03  0.40388611825E+03 -0.16187900587E+03  0.52069807321E+03  0.00000000000E+00 0. -1.
          3    1    6    6  503    0  0.13373505890E+02 -0.13852964079E+03  0.23916712550E+03  0.27671325584E+03  0.00000000000E+00 0. -1.
         -3    1    6    6    0  503  0.21686721181E+02  0.10388026684E+02  0.26278846321E+02  0.35620257410E+02  0.00000000000E+00 0.  1.
<mgrwt>
<rscale>  0 0.20576211E+04</rscale>
<asrwt>0</asrwt>
<pdfrwt beam="1">  1        2 0.25602393E+00 0.20576211E+04</pdfrwt>
<pdfrwt beam="2">  1       -1 0.97850608E-01 0.20576211E+04</pdfrwt>
<totfact> 0.10831576E+01</totfact>
</mgrwt>
</event>
<event>
12    7  0.1637954E-007  0.1686290E+04  0.7818608E-02  0.8769223E-01
          2   -1    0    0  501    0  0.00000000000E+00  0.00000000000E+00  0.10693329628E+04  0.10693329628E+04  0.00000000000E+00 0. -1.
         -1   -1    0    0    0  501 -0.00000000000E+00 -0.00000000000E+00 -0.66480053577E+03  0.66480053577E+03  0.00000000000E+00 0.  1.
         24    2    1    2    0    0  0.26875614456E+03  0.53459186727E+03  0.23672840202E+03  0.64850356864E+03  0.80611490670E+02 0.  0.
        254    2    1    2    0    0 -0.26875614456E+03 -0.53459186727E+03  0.16780402504E+03  0.10856299300E+04  0.89017741165E+03 0.  0.
         23    2    4    4    0    0 -0.39631064503E+03 -0.36294672928E+03 -0.25614289526E+03  0.60221572085E+03  0.90896292471E+02 0.  0.
         23    2    4    4    0    0  0.12755450047E+03 -0.17164513800E+03  0.42394692030E+03  0.48341420911E+03  0.90697862980E+02 0.  0.
          4    1    3    3  502    0  0.21622876757E+03  0.43556874145E+03  0.22494335068E+03  0.53579335519E+03  0.00000000000E+00 0. -1.
         -1    1    3    3    0  502  0.52527376992E+02  0.99023125820E+02  0.11785051339E+02  0.11271021345E+03  0.00000000000E+00 0.  1.
         13    1    5    5    0    0 -0.30608140140E+03 -0.30926974475E+03 -0.17284822154E+03  0.46819879004E+03  0.00000000000E+00 0.  1.
        -13    1    5    5    0    0 -0.90229243629E+02 -0.53676984529E+02 -0.83294673722E+02  0.13401693081E+03  0.00000000000E+00 0. -1.
          2    1    6    6  503    0  0.63934483174E+02 -0.24957794257E+02  0.16991346523E+03  0.18325145374E+03  0.00000000000E+00 0. -1.
         -2    1    6    6    0  503  0.63620017300E+02 -0.14668734374E+03  0.25403345507E+03  0.30016275537E+03  0.00000000000E+00 0.  1.
<mgrwt>
<rscale>  0 0.16862896E+04</rscale>
<asrwt>0</asrwt>
<pdfrwt beam="1">  1        2 0.16451276E+00 0.16862896E+04</pdfrwt>
<pdfrwt beam="2">  1       -1 0.10227701E+00 0.16862896E+04</pdfrwt>
<totfact> 0.22387084E+01</totfact>
</mgrwt>
</event>
<event>
12    7  0.1637954E-007  0.2903982E+04  0.7818608E-02  0.8271694E-01
          2   -1    0    0  501    0  0.00000000000E+00  0.00000000000E+00  0.11198715243E+04  0.11198715243E+04  0.00000000000E+00 0. -1.
         -1   -1    0    0    0  501 -0.00000000000E+00 -0.00000000000E+00 -0.18826065791E+04  0.18826065791E+04  0.00000000000E+00 0.  1.
         24    2    1    2    0    0 -0.81559450248E+03 -0.66416117749E+03 -0.11512792259E+04  0.15613917383E+04  0.78713672214E+02 0.  0.
        254    2    1    2    0    0  0.81559450248E+03  0.66416117749E+03  0.38854417114E+03  0.14410863651E+04  0.90523967909E+03 0.  0.
         23    2    4    4    0    0  0.91642166631E+02  0.47281857385E+03  0.47425707658E+03  0.68193661778E+03  0.90344261026E+02 0.  0.
         23    2    4    4    0    0  0.72395233585E+03  0.19134260364E+03 -0.85712905440E+02  0.75914974732E+03  0.90789097117E+02 0.  0.
          2    1    3    3  502    0 -0.21138393262E+03 -0.20859429760E+03 -0.35654445452E+03  0.46402445627E+03  0.00000000000E+00 0. -1.
         -3    1    3    3    0  502 -0.60421056986E+03 -0.45556687989E+03 -0.79473477138E+03  0.10973672820E+04  0.00000000000E+00 0.  1.
         13    1    5    5    0    0  0.14916529873E+02  0.27754309388E+03  0.23750886095E+03  0.36559968662E+03  0.00000000000E+00 0.  1.
        -13    1    5    5    0    0  0.76725636757E+02  0.19527547996E+03  0.23674821563E+03  0.31633693116E+03  0.00000000000E+00 0. -1.
          1    1    6    6  503    0  0.36574368214E+03  0.12419952295E+03 -0.81073869346E+02  0.39467320003E+03  0.00000000000E+00 0. -1.
         -1    1    6    6    0  503  0.35820865370E+03  0.67143080689E+02 -0.46390360936E+01  0.36447654730E+03  0.00000000000E+00 0.  1.
<mgrwt>
<rscale>  0 0.29039817E+04</rscale>
<asrwt>0</asrwt>
<pdfrwt beam="1">  1        2 0.17228793E+00 0.29039817E+04</pdfrwt>
<pdfrwt beam="2">  1       -1 0.28963178E+00 0.29039817E+04</pdfrwt>
<totfact> 0.80271859E-01</totfact>
</mgrwt>
</event>
<event>
12    7  0.1637954E-007  0.2451290E+04  0.7818608E-02  0.8420547E-01
          2   -1    0    0  501    0  0.00000000000E+00  0.00000000000E+00  0.81700053018E+03  0.81700053018E+03  0.00000000000E+00 0. -1.
         -1   -1    0    0    0  501 -0.00000000000E+00 -0.00000000000E+00 -0.18386836457E+04  0.18386836457E+04  0.00000000000E+00 0.  1.
         24    2    1    2    0    0 -0.68756100925E+02 -0.10325402057E+04 -0.67121268633E+03  0.12361017788E+04  0.80959616164E+02 0.  0.
        254    2    1    2    0    0  0.68756100925E+02  0.10325402057E+04 -0.35047042923E+03  0.14195823971E+04  0.90637629189E+03 0.  0.
         23    2    4    4    0    0 -0.91506551166E+02  0.38761566032E+01 -0.35132553235E+03  0.37457418835E+03  0.92128819611E+02 0.  0.
         23    2    4    4    0    0  0.16026265209E+03  0.10286640491E+04  0.85510312088E+00  0.10450082087E+04  0.90595703569E+02 0.  0.
          2    1    3    3  502    0 -0.38928090857E+00 -0.69613987860E+00 -0.70225819936E+01  0.70677300609E+01  0.00000000000E+00 0. -1.
         -1    1    3    3    0  502 -0.68366820016E+02 -0.10318440659E+04 -0.66419010433E+03  0.12290340488E+04  0.00000000000E+00 0.  1.
         13    1    5    5    0    0 -0.81450223749E+02  0.32551914672E+02 -0.31614035863E+03  0.32808305724E+03  0.00000000000E+00 0. -1.
        -13    1    5    5    0    0 -0.10056327416E+02 -0.28675758068E+02 -0.35185173723E+02  0.46491131109E+02  0.00000000000E+00 0.  1.
          1    1    6    6  503    0  0.10800719056E+03  0.57879562746E+03  0.41795081127E+02  0.59026837996E+03  0.00000000000E+00 0. -1.
         -1    1    6    6    0  503  0.52255461530E+02  0.44986842167E+03 -0.40939978007E+02  0.45473982877E+03  0.00000000000E+00 0.  1.
<mgrwt>
<rscale>  0 0.24512899E+04</rscale>
<asrwt>0</asrwt>
<pdfrwt beam="1">  1        2 0.12569239E+00 0.24512899E+04</pdfrwt>
<pdfrwt beam="2">  1       -1 0.28287440E+00 0.24512899E+04</pdfrwt>
<totfact> 0.14585605E+00</totfact>
</mgrwt>
</event>
<event>
12    7  0.1637954E-007  0.1290965E+04  0.7818608E-02  0.9036761E-01
          2   -1    0    0  501    0  0.00000000000E+00  0.00000000000E+00  0.30945513878E+04  0.30945513878E+04  0.00000000000E+00 0. -1.
         -1   -1    0    0    0  501 -0.00000000000E+00 -0.00000000000E+00 -0.13463918514E+03  0.13463918514E+03  0.00000000000E+00 0.  1.
         24    2    1    2    0    0 -0.42171493444E+02  0.16101886627E+03  0.15910691397E+04  0.16016545212E+04  0.78042857738E+02 0.  0.
        254    2    1    2    0    0  0.42171493444E+02 -0.16101886627E+03  0.13688430629E+04  0.16275360518E+04  0.86454424914E+03 0.  0.
         23    2    4    4    0    0 -0.17403146546E+03  0.22456447064E+03  0.16348196401E+03  0.34082765498E+03  0.93386216329E+02 0.  0.
         23    2    4    4    0    0  0.21620295890E+03 -0.38558333691E+03  0.12053610989E+04  0.12867083968E+04  0.85468651769E+02 0.  0.
          2    1    3    3  502    0 -0.60945216369E+02  0.98917996841E+02  0.88109938408E+03  0.88872673760E+03  0.00000000000E+00 0. -1.
         -3    1    3    3    0  502  0.18773722925E+02  0.62100869432E+02  0.70996975565E+03  0.71292778358E+03  0.00000000000E+00 0.  1.
         13    1    5    5    0    0 -0.17494674571E+03  0.16825389011E+03  0.13409931805E+03  0.27730553993E+03  0.00000000000E+00 0.  1.
        -13    1    5    5    0    0  0.91528025400E+00  0.56310580527E+02  0.29382645958E+02  0.63522115052E+02  0.00000000000E+00 0. -1.
          3    1    6    6  503    0 -0.12897372731E+01 -0.23632786244E+00  0.42270158160E+02  0.42290489994E+02  0.00000000000E+00 0. -1.
         -3    1    6    6    0  503  0.21749269617E+03 -0.38534700905E+03  0.11630909407E+04  0.12444179068E+04  0.00000000000E+00 0.  1.
<mgrwt>
<rscale>  0 0.12909653E+04</rscale>
<asrwt>0</asrwt>
<pdfrwt beam="1">  1        2 0.47608478E+00 0.12909653E+04</pdfrwt>
<pdfrwt beam="2">  1       -1 0.20713723E-01 0.12909653E+04</pdfrwt>
<totfact> 0.33113758E+01</totfact>
</mgrwt>
</event>
<event>
12    7  0.1637954E-007  0.1266510E+04  0.7818608E-02  0.9056553E-01
          2   -1    0    0  501    0  0.00000000000E+00  0.00000000000E+00  0.13359493115E+04  0.13359493115E+04  0.00000000000E+00 0. -1.
         -1   -1    0    0    0  501 -0.00000000000E+00 -0.00000000000E+00 -0.30017012607E+03  0.30017012607E+03  0.00000000000E+00 0.  1.
         24    2    1    2    0    0  0.63217790144E+02  0.36191532989E+02  0.65086531637E+03  0.66195458265E+03  0.96186763094E+02 0.  0.
        254    2    1    2    0    0 -0.63217790144E+02 -0.36191532989E+02  0.38491386908E+03  0.97416485495E+03  0.89192609669E+03 0.  0.
         23    2    4    4    0    0 -0.44729058057E+03 -0.14446635323E+03  0.16108045621E+03  0.50736014273E+03  0.10260609327E+03 0.  0.
         23    2    4    4    0    0  0.38407279042E+03  0.10827482024E+03  0.22383341288E+03  0.46680471222E+03  0.92573741341E+02 0.  0.
          2    1    3    3  502    0  0.53299705439E+02  0.64392706444E+02  0.56232086438E+03  0.56849980981E+03  0.00000000000E+00 0. -1.
         -1    1    3    3    0  502  0.99180847051E+01 -0.28201173455E+02  0.88544451994E+02  0.93454772844E+02  0.00000000000E+00 0.  1.
         13    1    5    5    0    0 -0.64061149085E+02 -0.41946961122E+02 -0.62104050477E+01  0.76824133580E+02  0.00000000000E+00 0. -1.
        -13    1    5    5    0    0 -0.38322943148E+03 -0.10251939211E+03  0.16729086125E+03  0.43053600915E+03  0.00000000000E+00 0.  1.
          4    1    6    6  503    0  0.12145241054E+03  0.78814162512E+02  0.91286386925E+02  0.17115947148E+03  0.00000000000E+00 0.  1.
         -4    1    6    6    0  503  0.26262037988E+03  0.29460657732E+02  0.13254702595E+03  0.29564524074E+03  0.00000000000E+00 0. -1.
<mgrwt>
<rscale>  0 0.12665103E+04</rscale>
<asrwt>0</asrwt>
<pdfrwt beam="1">  1        2 0.20553066E+00 0.12665103E+04</pdfrwt>
<pdfrwt beam="2">  1       -1 0.46180020E-01 0.12665103E+04</pdfrwt>
<totfact> 0.82269195E+01</totfact>
</mgrwt>
</event>
<event>
12    7  0.1637954E-007  0.2743628E+04  0.7818608E-02  0.8320986E-01
          2   -1    0    0  501    0  0.00000000000E+00  0.00000000000E+00  0.68832067857E+03  0.68832067857E+03  0.00000000000E+00 0. -1.
         -1   -1    0    0    0  501 -0.00000000000E+00 -0.00000000000E+00 -0.27340073077E+04  0.27340073077E+04  0.00000000000E+00 0.  1.
         24    2    1    2    0    0 -0.96908038336E+03  0.65310186996E+03 -0.13708100179E+04  0.18030633578E+04  0.79110840807E+02 0.  0.
        254    2    1    2    0    0  0.96908038336E+03 -0.65310186996E+03 -0.67487661125E+03  0.16192646285E+04  0.89493053064E+03 0.  0.
         23    2    4    4    0    0  0.53225212852E+03 -0.79675334214E+03 -0.62511733741E+03  0.11476412269E+04  0.90556522029E+02 0.  0.
         23    2    4    4    0    0  0.43682825484E+03  0.14365147219E+03 -0.49759273841E+02  0.47162340155E+03  0.92184477370E+02 0.  0.
          4    1    3    3  502    0 -0.23227819287E+02  0.31230303632E+02 -0.54413266703E+02  0.66900426359E+02  0.00000000000E+00 0. -1.
         -3    1    3    3    0  502 -0.94585256408E+03  0.62187156632E+03 -0.13163967512E+04  0.17361629314E+04  0.00000000000E+00 0.  1.
         13    1    5    5    0    0  0.71656801953E+02 -0.14464865791E+03 -0.13823294188E+03  0.21252359333E+03  0.00000000000E+00 0. -1.
        -13    1    5    5    0    0  0.46059532656E+03 -0.65210468423E+03 -0.48688439553E+03  0.93511763360E+03  0.00000000000E+00 0.  1.
          2    1    6    6  503    0  0.67796260011E+02 -0.11329768956E+02 -0.72847255254E+01  0.69121369793E+02  0.00000000000E+00 0. -1.
         -2    1    6    6    0  503  0.36903199483E+03  0.15498124114E+03 -0.42474548316E+02  0.40250203176E+03  0.00000000000E+00 0.  1.
<mgrwt>
<rscale>  0 0.27436281E+04</rscale>
<asrwt>0</asrwt>
<pdfrwt beam="1">  1        2 0.10589549E+00 0.27436281E+04</pdfrwt>
<pdfrwt beam="2">  1       -1 0.42061651E+00 0.27436281E+04</pdfrwt>
<totfact> 0.21530077E-01</totfact>
</mgrwt>
</event>
<event>
12    7  0.1637954E-007  0.1738189E+04  0.7818608E-02  0.8739878E-01
         -1   -1    0    0    0  501 -0.00000000000E+00  0.00000000000E+00  0.11728201773E+04  0.11728201773E+04  0.00000000000E+00 0.  1.
          2   -1    0    0  501    0  0.00000000000E+00 -0.00000000000E+00 -0.64402489809E+03  0.64402489809E+03  0.00000000000E+00 0. -1.
         24    2    1    2    0    0 -0.28172865800E+02  0.62177437511E+03  0.35366692098E+03  0.72043389042E+03  0.80917337797E+02 0.  0.
        254    2    1    2    0    0  0.28172865800E+02 -0.62177437511E+03  0.17512835825E+03  0.10964111850E+04  0.88546623922E+03 0.  0.
         23    2    4    4    0    0 -0.48174018838E+02 -0.31242202000E+03 -0.34650402135E+03  0.47765581755E+03  0.90342617599E+02 0.  0.
         23    2    4    4    0    0  0.76346884638E+02 -0.30935235511E+03  0.52163237960E+03  0.61875536744E+03  0.96073611789E+02 0.  0.
          4    1    3    3  502    0 -0.48634920668E+01  0.11579666309E+03  0.31352597139E+02  0.12006459130E+03  0.00000000000E+00 0. -1.
         -3    1    3    3    0  502 -0.23309373733E+02  0.50597771203E+03  0.32231432384E+03  0.60036929912E+03  0.00000000000E+00 0.  1.
         13    1    5    5    0    0 -0.62711235604E+01 -0.15548309665E+01 -0.34967423599E+02  0.35559319499E+02  0.00000000000E+00 0. -1.
        -13    1    5    5    0    0 -0.41902895278E+02 -0.31086718903E+03 -0.31153659775E+03  0.44209649805E+03  0.00000000000E+00 0.  1.
          3    1    6    6  503    0 -0.25348128625E+01 -0.55719008497E+01  0.61331246886E+02  0.61635973262E+02  0.00000000000E+00 0. -1.
         -3    1    6    6    0  503  0.78881697501E+02 -0.30378045426E+03  0.46030113272E+03  0.55711939418E+03  0.00000000000E+00 0.  1.
<mgrwt>
<rscale>  0 0.17381892E+04</rscale>
<asrwt>0</asrwt>
<pdfrwt beam="1">  1        2 0.99080754E-01 0.17381892E+04</pdfrwt>
<pdfrwt beam="2">  1       -1 0.18043387E+00 0.17381892E+04</pdfrwt>
<totfact> 0.10181197E+01</totfact>
</mgrwt>
</event>
<event>
12    7  0.1637954E-007  0.2334984E+04  0.7818608E-02  0.8464254E-01
          2   -1    0    0  501    0  0.00000000000E+00  0.00000000000E+00  0.26771941666E+04  0.26771941666E+04  0.00000000000E+00 0. -1.
         -1   -1    0    0    0  501 -0.00000000000E+00 -0.00000000000E+00 -0.50912908695E+03  0.50912908695E+03  0.00000000000E+00 0.  1.
         24    2    1    2    0    0 -0.51348941827E+03 -0.76580786536E+03  0.41045723926E+03  0.10120479461E+04  0.75052185496E+02 0.  0.
        254    2    1    2    0    0  0.51348941827E+03  0.76580786536E+03  0.17576078404E+04  0.21742753075E+04  0.88778078531E+03 0.  0.
         23    2    4    4    0    0 -0.22975297867E+03  0.13666663774E+03  0.56730425214E+03  0.63356564816E+03  0.90039518874E+02 0.  0.
         23    2    4    4    0    0  0.74324239694E+03  0.62914122762E+03  0.11903035882E+04  0.15407096593E+04  0.93464844642E+02 0.  0.
          4    1    3    3  502    0 -0.33925168420E+02 -0.90094427377E+02  0.36202038234E+02  0.10285188607E+03  0.00000000000E+00 0. -1.
         -3    1    3    3    0  502 -0.47956424985E+03 -0.67571343799E+03  0.37425520103E+03  0.90919605999E+03  0.00000000000E+00 0.  1.
         13    1    5    5    0    0 -0.34231501018E+02  0.53615454314E+02  0.19261900069E+03  0.20285091084E+03  0.00000000000E+00 0. -1.
        -13    1    5    5    0    0 -0.19552147765E+03  0.83051183424E+02  0.37468525145E+03  0.43071473732E+03  0.00000000000E+00 0.  1.
          3    1    6    6  503    0  0.36910960198E+01 -0.47591749771E+00  0.17741915138E+02  0.18128051193E+02  0.00000000000E+00 0. -1.
         -3    1    6    6    0  503  0.73955130092E+03  0.62961714512E+03  0.11725616731E+04  0.15225816081E+04  0.00000000000E+00 0.  1.
<mgrwt>
<rscale>  0 0.23349839E+04</rscale>
<asrwt>0</asrwt>
<pdfrwt beam="1">  1        2 0.41187602E+00 0.23349839E+04</pdfrwt>
<pdfrwt beam="2">  1       -1 0.78327554E-01 0.23349839E+04</pdfrwt>
<totfact> 0.45979721E+00</totfact>
</mgrwt>
</event>
<event>
12    7  0.1637954E-007  0.1825913E+04  0.7818608E-02  0.8692640E-01
         -1   -1    0    0    0  501 -0.00000000000E+00  0.00000000000E+00  0.30866841557E+03  0.30866841557E+03  0.00000000000E+00 0.  1.
          2   -1    0    0  501    0  0.00000000000E+00 -0.00000000000E+00 -0.27002737066E+04  0.27002737066E+04  0.00000000000E+00 0. -1.
         24    2    1    2    0    0 -0.35998130243E+03 -0.54324835834E+03 -0.54565387935E+03  0.85474203507E+03  0.90224572732E+02 0.  0.
        254    2    1    2    0    0  0.35998130243E+03  0.54324835834E+03 -0.18459514117E+04  0.21542000871E+04  0.89907512704E+03 0.  0.
         23    2    4    4    0    0  0.49306326481E+01  0.70415496526E+03 -0.11707218524E+04  0.13692591318E+04  0.91773570142E+02 0.  0.
         23    2    4    4    0    0  0.35505066978E+03 -0.16090660691E+03 -0.67522955932E+03  0.78494095531E+03  0.90804357191E+02 0.  0.
          2    1    3    3  502    0 -0.15773499190E+02 -0.74516424327E+02 -0.56528104692E+02  0.94852134353E+02  0.00000000000E+00 0. -1.
         -1    1    3    3    0  502 -0.34420780324E+03 -0.46873193401E+03 -0.48912577466E+03  0.75988990072E+03  0.00000000000E+00 0.  1.
         13    1    5    5    0    0  0.14316928610E+02  0.36929053569E+03 -0.69906509971E+03  0.79074173269E+03  0.00000000000E+00 0.  1.
        -13    1    5    5    0    0 -0.93862959618E+01  0.33486442956E+03 -0.47165675267E+03  0.57851739912E+03  0.00000000000E+00 0. -1.
          3    1    6    6  503    0  0.15591188576E+03 -0.49260605949E+02 -0.36321744266E+03  0.39832403150E+03  0.00000000000E+00 0. -1.
         -3    1    6    6    0  503  0.19913878402E+03 -0.11164600097E+03 -0.31201211665E+03  0.38661692380E+03  0.00000000000E+00 0.  1.
<mgrwt>
<rscale>  0 0.18259126E+04</rscale>
<asrwt>0</asrwt>
<pdfrwt beam="1">  1        2 0.41542672E+00 0.18259126E+04</pdfrwt>
<pdfrwt beam="2">  1       -1 0.47487449E-01 0.18259126E+04</pdfrwt>
<totfact> 0.12627358E+01</totfact>
</mgrwt>
</event>
<event>
12    7  0.1637954E-007  0.1347910E+04  0.7818608E-02  0.8992412E-01
         -3   -1    0    0    0  501 -0.00000000000E+00  0.00000000000E+00  0.23561219955E+03  0.23561219955E+03  0.00000000000E+00 0.  1.
          2   -1    0    0  501    0  0.00000000000E+00 -0.00000000000E+00 -0.19278078115E+04  0.19278078115E+04  0.00000000000E+00 0. -1.
         24    2    1    2    0    0 -0.22112314277E+02  0.11788005365E+03 -0.10329460800E+04  0.10429558428E+04  0.79966394471E+02 0.  0.
        254    2    1    2    0    0  0.22112314277E+02 -0.11788005365E+03 -0.65924953199E+03  0.11204641683E+04  0.89802302065E+03 0.  0.
         23    2    4    4    0    0  0.23521162221E+03  0.88717652707E+02  0.11141010448E+03  0.28961585992E+03  0.90938472659E+02 0.  0.
         23    2    4    4    0    0 -0.21309930794E+03 -0.20659770636E+03 -0.77065963646E+03  0.83084830842E+03  0.91097250379E+02 0.  0.
          2    1    3    3  502    0 -0.15966294798E+02  0.12844796173E+03 -0.87301640568E+03  0.88255959914E+03  0.00000000000E+00 0. -1.
         -1    1    3    3    0  502 -0.61460194793E+01 -0.10567908080E+02 -0.15992967432E+03  0.16039624361E+03  0.00000000000E+00 0.  1.
         13    1    5    5    0    0  0.39343358997E+02  0.16701296073E+02  0.61752061704E+02  0.75100934165E+02  0.00000000000E+00 0. -1.
        -13    1    5    5    0    0  0.19586826322E+03  0.72016356634E+02  0.49658042771E+02  0.21451492575E+03  0.00000000000E+00 0.  1.
          4    1    6    6  503    0 -0.68538561048E+02 -0.99006031578E+02 -0.41535608623E+03  0.43245856103E+03  0.00000000000E+00 0. -1.
         -4    1    6    6    0  503 -0.14456074689E+03 -0.10759167478E+03 -0.35530355023E+03  0.39838974739E+03  0.00000000000E+00 0.  1.
<mgrwt>
<rscale>  0 0.13479096E+04</rscale>
<asrwt>0</asrwt>
<pdfrwt beam="1">  1        2 0.29658584E+00 0.13479096E+04</pdfrwt>
<pdfrwt beam="2">  1       -3 0.36248028E-01 0.13479096E+04</pdfrwt>
<totfact> 0.34823225E+01</totfact>
</mgrwt>
</event>
<event>
12    7  0.1637954E-007  0.1648997E+04  0.7818608E-02  0.8791000E-01
          2   -1    0    0  501    0  0.00000000000E+00  0.00000000000E+00  0.28546639858E+04  0.28546639858E+04  0.00000000000E+00 0. -1.
         -1   -1    0    0    0  501 -0.00000000000E+00 -0.00000000000E+00 -0.23813579428E+03  0.23813579428E+03  0.00000000000E+00 0.  1.
         24    2    1    2    0    0  0.37336761948E+03 -0.42856599103E+03  0.76650833037E+03  0.95741385391E+03  0.77679335662E+02 0.  0.
        254    2    1    2    0    0 -0.37336761948E+03  0.42856599103E+03  0.18500198612E+04  0.21353859262E+04  0.90234548766E+03 0.  0.
         23    2    4    4    0    0 -0.29350034240E+03  0.34908333126E+03  0.24887060410E+03  0.52761202024E+03  0.91849023781E+02 0.  0.
         23    2    4    4    0    0 -0.79867277089E+02  0.79482659770E+02  0.16011492571E+04  0.16077739060E+04  0.92529530794E+02 0.  0.
          4    1    3    3  502    0  0.34818898419E+03 -0.39279389909E+03  0.73632681349E+03  0.90426754455E+03  0.00000000000E+00 0. -1.
         -3    1    3    3    0  502  0.25178635290E+02 -0.35772091945E+02  0.30181516888E+02  0.53146309362E+02  0.00000000000E+00 0.  1.
         13    1    5    5    0    0 -0.53007815629E+02  0.98674173525E+02  0.25825992734E+02  0.11494956694E+03  0.00000000000E+00 0.  1.
        -13    1    5    5    0    0 -0.24049252677E+03  0.25040915774E+03  0.22304461136E+03  0.41266245330E+03  0.00000000000E+00 0. -1.
          1    1    6    6  503    0 -0.29013239731E+02  0.31164212441E+02  0.11841714404E+04  0.11849366972E+04  0.00000000000E+00 0. -1.
         -1    1    6    6    0  503 -0.50854037358E+02  0.48318447329E+02  0.41697781673E+03  0.42283720876E+03  0.00000000000E+00 0.  1.
<mgrwt>
<rscale>  0 0.16489969E+04</rscale>
<asrwt>0</asrwt>
<pdfrwt beam="1">  1        2 0.43917905E+00 0.16489969E+04</pdfrwt>
<pdfrwt beam="2">  1       -1 0.36636278E-01 0.16489969E+04</pdfrwt>
<totfact> 0.16721863E+01</totfact>
</mgrwt>
</event>
<event>
12    7  0.1637954E-007  0.1782775E+04  0.7818608E-02  0.8715513E-01
         -1   -1    0    0    0  501 -0.00000000000E+00  0.00000000000E+00  0.34174019822E+03  0.34174019822E+03  0.00000000000E+00 0.  1.
          2   -1    0    0  501    0  0.00000000000E+00 -0.00000000000E+00 -0.23250754470E+04  0.23250754470E+04  0.00000000000E+00 0. -1.
         24    2    1    2    0    0  0.28724038137E+03  0.30525734138E+03  0.18831554485E+02  0.42717162127E+03  0.80199036259E+02 0.  0.
        254    2    1    2    0    0 -0.28724038137E+03 -0.30525734138E+03 -0.20021668033E+04  0.22396440240E+04  0.91194537377E+03 0.  0.
         23    2    4    4    0    0  0.35354072350E+02 -0.38507014290E+03 -0.17928075858E+04  0.18365666156E+04  0.96379295102E+02 0.  0.
         23    2    4    4    0    0 -0.32259445372E+03  0.79812801522E+02 -0.20935921751E+03  0.40307740836E+03  0.90569588255E+02 0.  0.
          2    1    3    3  502    0  0.10120656576E+03  0.59843459980E+02  0.19702669491E+02  0.11921494806E+03  0.00000000000E+00 0. -1.
         -1    1    3    3    0  502  0.18603381562E+03  0.24541388140E+03 -0.87111500553E+00  0.30795667322E+03  0.00000000000E+00 0.  1.
         13    1    5    5    0    0  0.23184439336E+01 -0.15900789247E+03 -0.95581910050E+03  0.96895770699E+03  0.00000000000E+00 0. -1.
        -13    1    5    5    0    0  0.33035628416E+02 -0.22606225043E+03 -0.83698848531E+03  0.86760890864E+03  0.00000000000E+00 0.  1.
          3    1    6    6  503    0 -0.26434012723E+03  0.43183543894E+02 -0.12902845785E+03  0.29730264759E+03  0.00000000000E+00 0. -1.
         -3    1    6    6    0  503 -0.58254326491E+02  0.36629257629E+02 -0.80330759659E+02  0.10577476077E+03  0.00000000000E+00 0.  1.
<mgrwt>
<rscale>  0 0.17827751E+04</rscale>
<asrwt>0</asrwt>
<pdfrwt beam="1">  1        2 0.35770391E+00 0.17827751E+04</pdfrwt>
<pdfrwt beam="2">  1       -1 0.52575416E-01 0.17827751E+04</pdfrwt>
<totfact> 0.17228248E+01</totfact>
</mgrwt>
</event>
<event>
12    7  0.1637954E-007  0.1256098E+04  0.7818608E-02  0.9065123E-01
          2   -1    0    0  501    0  0.00000000000E+00  0.00000000000E+00  0.21537212402E+04  0.21537212402E+04  0.00000000000E+00 0. -1.
         -1   -1    0    0    0  501 -0.00000000000E+00 -0.00000000000E+00 -0.18314615021E+03  0.18314615021E+03  0.00000000000E+00 0.  1.
         24    2    1    2    0    0 -0.43476161516E+02 -0.43583059875E+02 -0.54888018942E+02  0.11573717261E+03  0.81195681979E+02 0.  0.
        254    2    1    2    0    0  0.43476161516E+02  0.43583059875E+02  0.20254631090E+04  0.22211302178E+04  0.90946631551E+03 0.  0.
         23    2    4    4    0    0  0.39040088806E+03  0.66521454847E+02  0.45243721854E+03  0.60752698115E+03  0.86900165451E+02 0.  0.
         23    2    4    4    0    0 -0.34692472655E+03 -0.22938394972E+02  0.15730258904E+04  0.16136032367E+04  0.91771551228E+02 0.  0.
          4    1    3    3  502    0  0.16960002818E+01 -0.19510762789E+02  0.18048094519E+02  0.26632311153E+02  0.00000000000E+00 0. -1.
         -3    1    3    3    0  502 -0.45172161798E+02 -0.24072297087E+02 -0.72936113461E+02  0.89104861457E+02  0.00000000000E+00 0.  1.
         13    1    5    5    0    0  0.25328047749E+03  0.79548194569E+02  0.32731638894E+03  0.42144386816E+03  0.00000000000E+00 0.  1.
        -13    1    5    5    0    0  0.13712041057E+03 -0.13026739723E+02  0.12512082959E+03  0.18608311300E+03  0.00000000000E+00 0. -1.
          3    1    6    6  503    0 -0.24793473694E+03  0.15300887287E+02  0.96942971927E+03  0.10007495848E+04  0.00000000000E+00 0. -1.
         -3    1    6    6    0  503 -0.98989989609E+02 -0.38239282259E+02  0.60359617116E+03  0.61285365185E+03  0.00000000000E+00 0.  1.
<mgrwt>
<rscale>  0 0.12560983E+04</rscale>
<asrwt>0</asrwt>
<pdfrwt beam="1">  1        2 0.33134171E+00 0.12560983E+04</pdfrwt>
<pdfrwt beam="2">  1       -1 0.28176332E-01 0.12560983E+04</pdfrwt>
<totfact> 0.70062066E+01</totfact>
</mgrwt>
</event>
<event>
12    7  0.1637954E-007  0.1975784E+04  0.7818608E-02  0.8618027E-01
          2   -1    0    0  501    0  0.00000000000E+00  0.00000000000E+00  0.89579521668E+03  0.89579521668E+03  0.00000000000E+00 0. -1.
         -1   -1    0    0    0  501 -0.00000000000E+00 -0.00000000000E+00 -0.10894570845E+04  0.10894570845E+04  0.00000000000E+00 0.  1.
         24    2    1    2    0    0 -0.66986934375E+03 -0.38284319940E+03  0.40602101433E+02  0.77428565320E+03  0.50753217502E+02 0.  0.
        254    2    1    2    0    0  0.66986934375E+03  0.38284319940E+03 -0.23426396920E+03  0.12109666479E+04  0.90347482650E+03 0.  0.
         23    2    4    4    0    0  0.70767199076E+03 -0.29067877831E+01 -0.35236162073E+03  0.79575505883E+03  0.90880723866E+02 0.  0.
         23    2    4    4    0    0 -0.37802647012E+02  0.38574998718E+03  0.11809765152E+03  0.41521158910E+03  0.90672574123E+02 0.  0.
          4    1    3    3  502    0 -0.60719796733E+03 -0.33841770921E+03  0.23227776358E+02  0.69552530294E+03  0.00000000000E+00 0. -1.
         -3    1    3    3    0  502 -0.62671376420E+02 -0.44425490192E+02  0.17374325074E+02  0.78760350259E+02  0.00000000000E+00 0.  1.
         13    1    5    5    0    0  0.69082871774E+03 -0.55093689631E+01 -0.32490346040E+03  0.76343757373E+03  0.00000000000E+00 0. -1.
        -13    1    5    5    0    0  0.16843273019E+02  0.26025811800E+01 -0.27458160322E+02  0.32317485098E+02  0.00000000000E+00 0.  1.
          1    1    6    6  503    0 -0.28663645873E+02  0.34414312441E+03  0.72598682323E+02  0.35288335658E+03  0.00000000000E+00 0. -1.
         -1    1    6    6    0  503 -0.91390011391E+01  0.41606862770E+02  0.45498969201E+02  0.62328232525E+02  0.00000000000E+00 0.  1.
<mgrwt>
<rscale>  0 0.19757838E+04</rscale>
<asrwt>0</asrwt>
<pdfrwt beam="1">  1        2 0.13781465E+00 0.19757838E+04</pdfrwt>
<pdfrwt beam="2">  1       -1 0.16760878E+00 0.19757838E+04</pdfrwt>
<totfact> 0.80339627E+00</totfact>
</mgrwt>
</event>
<event>
12    7  0.1637954E-007  0.1909010E+04  0.7818608E-02  0.8650385E-01
         -1   -1    0    0    0  501 -0.00000000000E+00  0.00000000000E+00  0.78500569126E+03  0.78500569126E+03  0.00000000000E+00 0.  1.
          2   -1    0    0  501    0  0.00000000000E+00 -0.00000000000E+00 -0.11606024666E+04  0.11606024666E+04  0.00000000000E+00 0. -1.
         24    2    1    2    0    0  0.71165540525E+03  0.10774636269E+03 -0.32895638218E+03  0.79538941577E+03  0.79808062466E+02 0.  0.
        254    2    1    2    0    0 -0.71165540525E+03 -0.10774636269E+03 -0.46640393126E+02  0.11502187421E+04  0.89597161440E+03 0.  0.
         23    2    4    4    0    0 -0.55161826292E+03 -0.32214910005E+03  0.29341738049E+03  0.70887248665E+03  0.91343814820E+02 0.  0.
         23    2    4    4    0    0 -0.16003714234E+03  0.21440273737E+03 -0.34005777362E+03  0.44134625541E+03  0.86987395899E+02 0.  0.
          4    1    3    3  502    0  0.33593560466E+03  0.52458636980E+02 -0.19923040664E+03  0.39407790347E+03  0.00000000000E+00 0. -1.
         -1    1    3    3    0  502  0.37571980060E+03  0.55287725708E+02 -0.12972597554E+03  0.40131151230E+03  0.00000000000E+00 0.  1.
         13    1    5    5    0    0  0.30912020268E+01  0.67347982438E+00  0.31943065372E+01  0.44958535673E+01  0.00000000000E+00 0.  1.
        -13    1    5    5    0    0 -0.55470946494E+03 -0.32282257988E+03  0.29022307396E+03  0.70437663308E+03  0.00000000000E+00 0. -1.
          4    1    6    6  503    0 -0.12597180142E+03  0.20380670245E+03 -0.32200258141E+03  0.40136234147E+03  0.00000000000E+00 0. -1.
         -4    1    6    6    0  503 -0.34065340918E+02  0.10596034913E+02 -0.18055192208E+02  0.39983913933E+02  0.00000000000E+00 0.  1.
<mgrwt>
<rscale>  0 0.19090097E+04</rscale>
<asrwt>0</asrwt>
<pdfrwt beam="1">  1        2 0.17855423E+00 0.19090097E+04</pdfrwt>
<pdfrwt beam="2">  1       -1 0.12077011E+00 0.19090097E+04</pdfrwt>
<totfact> 0.13011719E+01</totfact>
</mgrwt>
</event>
<event>
12    7  0.1637954E-007  0.1711126E+04  0.7818608E-02  0.8755044E-01
          2   -1    0    0  501    0  0.00000000000E+00  0.00000000000E+00  0.12715114080E+04  0.12715114080E+04  0.00000000000E+00 0. -1.
         -1   -1    0    0    0  501 -0.00000000000E+00 -0.00000000000E+00 -0.57568365416E+03  0.57568365416E+03  0.00000000000E+00 0.  1.
         24    2    1    2    0    0 -0.23678357288E+03 -0.49560227474E+03 -0.24517375389E+02  0.55629584783E+03  0.84710645739E+02 0.  0.
        254    2    1    2    0    0  0.23678357288E+03  0.49560227474E+03  0.72034512924E+03  0.12908992143E+04  0.91969321039E+03 0.  0.
         23    2    4    4    0    0 -0.34298117599E+01  0.29393194399E+03  0.87613482732E+03  0.92879765185E+03  0.92978982238E+02 0.  0.
         23    2    4    4    0    0  0.24021338464E+03  0.20167033075E+03 -0.15578969808E+03  0.36210156248E+03  0.92052805829E+02 0.  0.
          2    1    3    3  502    0 -0.10879975372E+02 -0.80960600048E+02  0.12592460013E+02  0.82653267772E+02  0.00000000000E+00 0. -1.
         -1    1    3    3    0  502 -0.22590359751E+03 -0.41464167469E+03 -0.37109835402E+02  0.47364258006E+03  0.00000000000E+00 0.  1.
         13    1    5    5    0    0  0.38025819825E+02  0.20287368367E+03  0.63594627736E+03  0.66860403992E+03  0.00000000000E+00 0. -1.
        -13    1    5    5    0    0 -0.41455631585E+02  0.91058260320E+02  0.24018854995E+03  0.26019361193E+03  0.00000000000E+00 0.  1.
          4    1    6    6  503    0  0.47826556836E+02  0.27612296098E+02 -0.69325496578E+02  0.88633193051E+02  0.00000000000E+00 0. -1.
         -4    1    6    6    0  503  0.19238682781E+03  0.17405803465E+03 -0.86464201498E+02  0.27346836943E+03  0.00000000000E+00 0.  1.
<mgrwt>
<rscale>  0 0.17111263E+04</rscale>
<asrwt>0</asrwt>
<pdfrwt beam="1">  1        2 0.19561714E+00 0.17111263E+04</pdfrwt>
<pdfrwt beam="2">  1       -1 0.88566716E-01 0.17111263E+04</pdfrwt>
<totfact> 0.23304386E+01</totfact>
</mgrwt>
</event>
<event>
12    7  0.1637954E-007  0.1507597E+04  0.7818608E-02  0.8879417E-01
         -1   -1    0    0    0  501 -0.00000000000E+00  0.00000000000E+00  0.16267999774E+03  0.16267999774E+03  0.00000000000E+00 0.  1.
          2   -1    0    0  501    0  0.00000000000E+00 -0.00000000000E+00 -0.34928217371E+04  0.34928217371E+04  0.00000000000E+00 0. -1.
         24    2    1    2    0    0 -0.28450665923E+03  0.35986117926E+03 -0.73875335494E+03  0.87330496271E+03  0.80379916503E+02 0.  0.
        254    2    1    2    0    0  0.28450665923E+03 -0.35986117926E+03 -0.25913883845E+04  0.27821967722E+04  0.90270760074E+03 0.  0.
         23    2    4    4    0    0 -0.14752374387E+03 -0.14845631146E+03 -0.10355886911E+03  0.24663014047E+03  0.79369108587E+02 0.  0.
         23    2    4    4    0    0  0.43203040310E+03 -0.21140486779E+03 -0.24878295153E+04  0.25355666317E+04  0.91979122518E+02 0.  0.
          4    1    3    3  502    0 -0.17134416519E+03  0.18256795874E+03 -0.46450815063E+03  0.52769091759E+03  0.00000000000E+00 0. -1.
         -3    1    3    3    0  502 -0.11316249405E+03  0.17729322052E+03 -0.27424520431E+03  0.34561404512E+03  0.00000000000E+00 0.  1.
         13    1    5    5    0    0 -0.45252613399E-01 -0.37789600291E+01 -0.25502868770E+02  0.25781367345E+02  0.00000000000E+00 0. -1.
        -13    1    5    5    0    0 -0.14747849126E+03 -0.14467735143E+03 -0.78056000339E+02  0.22084877312E+03  0.00000000000E+00 0.  1.
          1    1    6    6  503    0  0.80130440556E+02 -0.81793020935E+02 -0.55311019249E+03  0.56483791552E+03  0.00000000000E+00 0. -1.
         -1    1    6    6    0  503  0.35189996255E+03 -0.12961184686E+03 -0.19347193229E+04  0.19707287162E+04  0.00000000000E+00 0.  1.
<mgrwt>
<rscale>  0 0.15075971E+04</rscale>
<asrwt>0</asrwt>
<pdfrwt beam="1">  1        2 0.53735722E+00 0.15075971E+04</pdfrwt>
<pdfrwt beam="2">  1       -1 0.25027691E-01 0.15075971E+04</pdfrwt>
<totfact> 0.12820200E+01</totfact>
</mgrwt>
</event>
<event>
12    7  0.1637954E-007  0.1851135E+04  0.7818608E-02  0.8679569E-01
         -1   -1    0    0    0  501 -0.00000000000E+00  0.00000000000E+00  0.35003106949E+03  0.35003106949E+03  0.00000000000E+00 0.  1.
          2   -1    0    0  501    0  0.00000000000E+00 -0.00000000000E+00 -0.24474263309E+04  0.24474263309E+04  0.00000000000E+00 0. -1.
         24    2    1    2    0    0  0.29660743647E+03  0.55411407370E+02  0.15893203152E+03  0.35006022537E+03  0.78970724367E+02 0.  0.
        254    2    1    2    0    0 -0.29660743647E+03 -0.55411407370E+02 -0.22563272930E+04  0.24473971750E+04  0.89871779998E+03 0.  0.
         23    2    4    4    0    0  0.46043075087E+02  0.23964081798E+03 -0.17181116442E+03  0.31244350614E+03  0.92488820427E+02 0.  0.
         23    2    4    4    0    0 -0.34265051155E+03 -0.29505222535E+03 -0.20845161285E+04  0.21349536689E+04  0.91402896301E+02 0.  0.
          2    1    3    3  502    0  0.10455393019E+02 -0.62626555597E+01  0.25699797827E+02  0.28443201405E+02  0.00000000000E+00 0. -1.
         -1    1    3    3    0  502  0.28615204345E+03  0.61674062929E+02  0.13323223370E+03  0.32161702396E+03  0.00000000000E+00 0.  1.
         13    1    5    5    0    0 -0.26729394233E+02  0.61432289482E+02 -0.59361143336E+02  0.89510513602E+02  0.00000000000E+00 0. -1.
        -13    1    5    5    0    0  0.72772469319E+02  0.17820852850E+03 -0.11245002108E+03  0.22293299254E+03  0.00000000000E+00 0.  1.
          4    1    6    6  503    0 -0.32807211029E+03 -0.27411861525E+03 -0.18353228734E+04  0.18844581116E+04  0.00000000000E+00 0.  1.
         -4    1    6    6    0  503 -0.14578401259E+02 -0.20933610094E+02 -0.24919325517E+03  0.25049555732E+03  0.00000000000E+00 0. -1.
<mgrwt>
<rscale>  0 0.18511351E+04</rscale>
<asrwt>0</asrwt>
<pdfrwt beam="1">  1        2 0.37652713E+00 0.18511351E+04</pdfrwt>
<pdfrwt beam="2">  1       -1 0.53850933E-01 0.18511351E+04</pdfrwt>
<totfact> 0.13922725E+01</totfact>
</mgrwt>
</event>
<event>
12    7  0.1637954E-007  0.2370283E+04  0.7818608E-02  0.8450714E-01
          2   -1    0    0  501    0  0.00000000000E+00  0.00000000000E+00  0.19616958905E+04  0.19616958905E+04  0.00000000000E+00 0. -1.
         -1   -1    0    0    0  501 -0.00000000000E+00 -0.00000000000E+00 -0.71599311401E+03  0.71599311401E+03  0.00000000000E+00 0.  1.
         24    2    1    2    0    0  0.83930087034E+03  0.47119124954E+03  0.18379972971E+03  0.98290392551E+03  0.76620111802E+02 0.  0.
        254    2    1    2    0    0 -0.83930087034E+03 -0.47119124954E+03  0.10619030467E+04  0.16947850790E+04  0.90455029634E+03 0.  0.
         23    2    4    4    0    0 -0.91940010839E+03 -0.15818708287E+03  0.56275737717E+03  0.10933923463E+04  0.92147951245E+02 0.  0.
         23    2    4    4    0    0  0.80099238047E+02 -0.31300416667E+03  0.49914566956E+03  0.60139273265E+03  0.90218197448E+02 0.  0.
          2    1    3    3  502    0  0.19327445795E+03  0.10097287898E+03  0.73934336075E+02  0.23025382611E+03  0.00000000000E+00 0. -1.
         -1    1    3    3    0  502  0.64602641239E+03  0.37021837056E+03  0.10986539363E+03  0.75265009940E+03  0.00000000000E+00 0.  1.
         13    1    5    5    0    0 -0.39654043645E+03 -0.97568772420E+02  0.20478151063E+03  0.45683634946E+03  0.00000000000E+00 0. -1.
        -13    1    5    5    0    0 -0.52285967194E+03 -0.60618310447E+02  0.35797586654E+03  0.63655599685E+03  0.00000000000E+00 0.  1.
          1    1    6    6  503    0 -0.43164664830E+01 -0.41124674318E+02  0.24919547007E+02  0.48278924425E+02  0.00000000000E+00 0. -1.
         -1    1    6    6    0  503  0.84415704530E+02 -0.27187949236E+03  0.47422612256E+03  0.55311380822E+03  0.00000000000E+00 0.  1.
<mgrwt>
<rscale>  0 0.23702833E+04</rscale>
<asrwt>0</asrwt>
<pdfrwt beam="1">  1        2 0.30179937E+00 0.23702833E+04</pdfrwt>
<pdfrwt beam="2">  1       -1 0.11015279E+00 0.23702833E+04</pdfrwt>
<totfact> 0.54757120E+00</totfact>
</mgrwt>
</event>
<event>
12    7  0.1637954E-007  0.1675508E+04  0.7818608E-02  0.8775458E-01
         -1   -1    0    0    0  501 -0.00000000000E+00  0.00000000000E+00  0.10250976042E+04  0.10250976042E+04  0.00000000000E+00 0.  1.
          2   -1    0    0  501    0  0.00000000000E+00 -0.00000000000E+00 -0.68464860644E+03  0.68464860644E+03  0.00000000000E+00 0. -1.
         24    2    1    2    0    0  0.52488787001E+02  0.15872682471E+03 -0.46731586587E+03  0.50275261927E+03  0.80167325328E+02 0.  0.
        254    2    1    2    0    0 -0.52488787001E+02 -0.15872682471E+03  0.80776486365E+03  0.12069935914E+04  0.88113573135E+03 0.  0.
         23    2    4    4    0    0  0.97693007604E+02 -0.10506093078E+03  0.95663323928E+03  0.97131876466E+03  0.87927613255E+02 0.  0.
         23    2    4    4    0    0 -0.15018179461E+03 -0.53665893928E+02 -0.14886837563E+03  0.23567482673E+03  0.89141635004E+02 0.  0.
          4    1    3    3  502    0  0.10620542093E+02  0.12823163668E+03 -0.38041028733E+03  0.40158204052E+03  0.00000000000E+00 0. -1.
         -3    1    3    3    0  502  0.41868244908E+02  0.30495188033E+02 -0.86905578542E+02  0.10117057876E+03  0.00000000000E+00 0.  1.
         13    1    5    5    0    0  0.39453618443E+02 -0.90877274763E+02  0.73789549572E+03  0.74451664164E+03  0.00000000000E+00 0. -1.
        -13    1    5    5    0    0  0.58239389162E+02 -0.14183656021E+02  0.21873774356E+03  0.22680212302E+03  0.00000000000E+00 0.  1.
          3    1    6    6  503    0 -0.14538028458E+03 -0.51570755253E+02 -0.16068840722E+03  0.22274589594E+03  0.00000000000E+00 0. -1.
         -3    1    6    6    0  503 -0.48015100218E+01 -0.20951386756E+01  0.11820031593E+02  0.12928930792E+02  0.00000000000E+00 0.  1.
<mgrwt>
<rscale>  0 0.16755079E+04</rscale>
<asrwt>0</asrwt>
<pdfrwt beam="1">  1        2 0.10533055E+00 0.16755079E+04</pdfrwt>
<pdfrwt beam="2">  1       -1 0.15770732E+00 0.16755079E+04</pdfrwt>
<totfact> 0.13957973E+01</totfact>
</mgrwt>
</event>
<event>
12    7  0.1637954E-007  0.1339425E+04  0.7818608E-02  0.8998872E-01
          2   -1    0    0  501    0  0.00000000000E+00  0.00000000000E+00  0.10073515018E+04  0.10073515018E+04  0.00000000000E+00 0. -1.
         -1   -1    0    0    0  501 -0.00000000000E+00 -0.00000000000E+00 -0.44524149352E+03  0.44524149352E+03  0.00000000000E+00 0.  1.
         24    2    1    2    0    0 -0.30636782707E+03 -0.16556079680E+03  0.25869585437E+03  0.44047292652E+03  0.76296992267E+02 0.  0.
        254    2    1    2    0    0  0.30636782707E+03  0.16556079680E+03  0.30341415395E+03  0.10121200688E+04  0.90058606587E+03 0.  0.
         23    2    4    4    0    0 -0.28899142545E+03 -0.31199188028E+02  0.21200594059E+03  0.37134559802E+03  0.91986961079E+02 0.  0.
         23    2    4    4    0    0  0.59535925252E+03  0.19675998482E+03  0.91408213369E+02  0.64077447082E+03  0.95233028890E+02 0.  0.
          4    1    3    3  502    0 -0.22227095631E+03 -0.15481577681E+03  0.20964886500E+03  0.34252729725E+03  0.00000000000E+00 0. -1.
         -3    1    3    3    0  502 -0.84096870765E+02 -0.10745019989E+02  0.49046989380E+02  0.97945629276E+02  0.00000000000E+00 0.  1.
         13    1    5    5    0    0 -0.23568494664E+03 -0.35281117274E+02  0.12468506703E+03  0.26895820725E+03  0.00000000000E+00 0. -1.
        -13    1    5    5    0    0 -0.53306478810E+02  0.40819292467E+01  0.87320873556E+02  0.10238739077E+03  0.00000000000E+00 0.  1.
          3    1    6    6  503    0  0.51985609928E+03  0.17407804005E+03  0.46871345576E+02  0.55022763564E+03  0.00000000000E+00 0. -1.
         -3    1    6    6    0  503  0.75503153242E+02  0.22681944772E+02  0.44536867792E+02  0.90546835179E+02  0.00000000000E+00 0.  1.
<mgrwt>
<rscale>  0 0.13394248E+04</rscale>
<asrwt>0</asrwt>
<pdfrwt beam="1">  1        2 0.15497715E+00 0.13394248E+04</pdfrwt>
<pdfrwt beam="2">  1       -1 0.68498691E-01 0.13394248E+04</pdfrwt>
<totfact> 0.59944140E+01</totfact>
</mgrwt>
</event>
<event>
12    7  0.1637954E-007  0.2697988E+04  0.7818608E-02  0.8335658E-01
         -1   -1    0    0    0  501 -0.00000000000E+00  0.00000000000E+00  0.11542486307E+04  0.11542486307E+04  0.00000000000E+00 0.  1.
          2   -1    0    0  501    0  0.00000000000E+00 -0.00000000000E+00 -0.15765963927E+04  0.15765963927E+04  0.00000000000E+00 0. -1.
         24    2    1    2    0    0 -0.64130873584E+03 -0.62740905313E+03 -0.98080208959E+03  0.13317825300E+04  0.82176357163E+02 0.  0.
        254    2    1    2    0    0  0.64130873584E+03  0.62740905313E+03  0.55845432760E+03  0.13990624934E+04  0.91683455968E+03 0.  0.
         23    2    4    4    0    0  0.75525851974E+03  0.76183936294E+03  0.51939167362E+03  0.11953031878E+04  0.90373411432E+02 0.  0.
         23    2    4    4    0    0 -0.11394978391E+03 -0.13443030981E+03  0.39062653987E+02  0.20375930564E+03  0.94529901369E+02 0.  0.
          4    1    3    3  502    0 -0.55020594806E+03 -0.57344245021E+03 -0.87685665437E+03  0.11834020539E+04  0.00000000000E+00 0. -1.
         -3    1    3    3    0  502 -0.91102787779E+02 -0.53966602928E+02 -0.10394543522E+03  0.14838047606E+03  0.00000000000E+00 0.  1.
         13    1    5    5    0    0  0.51039733898E+03  0.47422195649E+03  0.30061148158E+03  0.75878796150E+03  0.00000000000E+00 0. -1.
        -13    1    5    5    0    0  0.24486118076E+03  0.28761740645E+03  0.21878019203E+03  0.43651522626E+03  0.00000000000E+00 0.  1.
          4    1    6    6  503    0 -0.47846191264E+02 -0.29213141701E+02  0.54936863031E+02  0.78490283387E+02  0.00000000000E+00 0. -1.
         -4    1    6    6    0  503 -0.66103592642E+02 -0.10521716810E+03 -0.15874209044E+02  0.12526902226E+03  0.00000000000E+00 0.  1.
<mgrwt>
<rscale>  0 0.26979876E+04</rscale>
<asrwt>0</asrwt>
<pdfrwt beam="1">  1        2 0.24255329E+00 0.26979876E+04</pdfrwt>
<pdfrwt beam="2">  1       -1 0.17757671E+00 0.26979876E+04</pdfrwt>
<totfact> 0.24881081E+00</totfact>
</mgrwt>
</event>
<event>
12    7  0.1637954E-007  0.1447771E+04  0.7818608E-02  0.8919947E-01
          2   -1    0    0  501    0  0.00000000000E+00  0.00000000000E+00  0.65445827169E+03  0.65445827169E+03  0.00000000000E+00 0. -1.
         -1   -1    0    0    0  501 -0.00000000000E+00 -0.00000000000E+00 -0.80067790455E+03  0.80067790455E+03  0.00000000000E+00 0.  1.
         24    2    1    2    0    0 -0.36121169694E+03 -0.24854413580E+03 -0.14839890063E+03  0.47009525530E+03  0.81970957682E+02 0.  0.
        254    2    1    2    0    0  0.36121169694E+03  0.24854413580E+03  0.21792677677E+01  0.98504092095E+03  0.88207300678E+03 0.  0.
         23    2    4    4    0    0 -0.20001114280E+03  0.22237252691E+03  0.21248329491E+03  0.37808782152E+03  0.91363297836E+02 0.  0.
         23    2    4    4    0    0  0.56122283974E+03  0.26171608885E+02 -0.21030402715E+03  0.60695309943E+03  0.92240187091E+02 0.  0.
          4    1    3    3  502    0 -0.30357011238E+03 -0.17151476797E+03 -0.13015276471E+03  0.37217182984E+03  0.00000000000E+00 0. -1.
         -3    1    3    3    0  502 -0.57641584556E+02 -0.77029367828E+02 -0.18246135916E+02  0.97923425460E+02  0.00000000000E+00 0.  1.
         13    1    5    5    0    0 -0.86168726567E+02  0.10288023655E+03  0.41555898714E+02  0.14048588979E+03  0.00000000000E+00 0. -1.
        -13    1    5    5    0    0 -0.11384241624E+03  0.11949229036E+03  0.17092739620E+03  0.23760193173E+03  0.00000000000E+00 0.  1.
          1    1    6    6  503    0  0.21299747796E+03 -0.14423681861E+02 -0.40025857252E+02  0.21720505856E+03  0.00000000000E+00 0. -1.
         -1    1    6    6    0  503  0.34822536178E+03  0.40595290747E+02 -0.17027816989E+03  0.38974804087E+03  0.00000000000E+00 0.  1.
<mgrwt>
<rscale>  0 0.14477711E+04</rscale>
<asrwt>0</asrwt>
<pdfrwt beam="1">  1        2 0.10068589E+00 0.14477711E+04</pdfrwt>
<pdfrwt beam="2">  1       -1 0.12318122E+00 0.14477711E+04</pdfrwt>
<totfact> 0.28681132E+01</totfact>
</mgrwt>
</event>
<event>
12    7  0.1637954E-007  0.1536570E+04  0.7818608E-02  0.8860492E-01
          2   -1    0    0  501    0  0.00000000000E+00  0.00000000000E+00  0.17110127636E+04  0.17110127636E+04  0.00000000000E+00 0. -1.
         -1   -1    0    0    0  501 -0.00000000000E+00 -0.00000000000E+00 -0.34497792245E+03  0.34497792245E+03  0.00000000000E+00 0.  1.
         24    2    1    2    0    0  0.83669608247E+02 -0.28755555259E+03  0.99959449722E+03  0.10466562481E+04  0.81310169075E+02 0.  0.
        254    2    1    2    0    0 -0.83669608247E+02  0.28755555259E+03  0.36644034397E+03  0.10093344380E+04  0.89150921640E+03 0.  0.
         23    2    4    4    0    0 -0.45574877684E+03  0.12754349277E+03  0.34890495042E+03  0.59475593618E+03  0.89586098574E+02 0.  0.
         23    2    4    4    0    0  0.37207916859E+03  0.16001205982E+03  0.17535393556E+02  0.41457850185E+03  0.86724144146E+02 0.  0.
          2    1    3    3  502    0  0.95637270375E+02 -0.27286369915E+03  0.90098625081E+03  0.94624378991E+03  0.00000000000E+00 0. -1.
         -1    1    3    3    0  502 -0.11967662129E+02 -0.14691853435E+02  0.98608246417E+02  0.10041245817E+03  0.00000000000E+00 0.  1.
         13    1    5    5    0    0 -0.25408479996E+03  0.11591252697E+03  0.21421498506E+03  0.35196996932E+03  0.00000000000E+00 0.  1.
        -13    1    5    5    0    0 -0.20166397688E+03  0.11630965799E+02  0.13468996536E+03  0.24278596686E+03  0.00000000000E+00 0. -1.
          3    1    6    6  503    0  0.17724858726E+03  0.12247334595E+03  0.17615563515E+02  0.21616449809E+03  0.00000000000E+00 0. -1.
         -3    1    6    6    0  503  0.19483058133E+03  0.37538713865E+02 -0.80169959349E-01  0.19841400376E+03  0.00000000000E+00 0.  1.
<mgrwt>
<rscale>  0 0.15365697E+04</rscale>
<asrwt>0</asrwt>
<pdfrwt beam="1">  1        2 0.26323273E+00 0.15365697E+04</pdfrwt>
<pdfrwt beam="2">  1       -1 0.53073528E-01 0.15365697E+04</pdfrwt>
<totfact> 0.37996132E+01</totfact>
</mgrwt>
</event>
<event>
12    7  0.1637954E-007  0.1895428E+04  0.7818608E-02  0.8657136E-01
         -1   -1    0    0    0  501 -0.00000000000E+00  0.00000000000E+00  0.50818344613E+03  0.50818344613E+03  0.00000000000E+00 0.  1.
          2   -1    0    0  501    0  0.00000000000E+00 -0.00000000000E+00 -0.17673963590E+04  0.17673963590E+04  0.00000000000E+00 0. -1.
         24    2    1    2    0    0 -0.17866086854E+03 -0.70674593098E+03 -0.58060377116E+03  0.93539282967E+03  0.80308715637E+02 0.  0.
        254    2    1    2    0    0  0.17866086854E+03  0.70674593098E+03 -0.67860914168E+03  0.13401869754E+04  0.89676153185E+03 0.  0.
         23    2    4    4    0    0  0.13635210959E+03  0.86382484054E+02  0.19174252346E+03  0.26663948872E+03  0.90981263464E+02 0.  0.
         23    2    4    4    0    0  0.42308758958E+02  0.62036344693E+03 -0.87035166514E+03  0.10735474867E+04  0.91385709042E+02 0.  0.
          4    1    3    3  502    0 -0.92811909066E+01 -0.82971919500E+02 -0.39158543172E+02  0.92216437979E+02  0.00000000000E+00 0. -1.
         -3    1    3    3    0  502 -0.16937967764E+03 -0.62377401148E+03 -0.54144522799E+03  0.84317639169E+03  0.00000000000E+00 0.  1.
         13    1    5    5    0    0  0.12002993344E+03  0.28008737310E+02  0.14353945690E+03  0.18919632654E+03  0.00000000000E+00 0. -1.
        -13    1    5    5    0    0  0.16322176143E+02  0.58373746744E+02  0.48203066567E+02  0.77443162186E+02  0.00000000000E+00 0.  1.
          4    1    6    6  503    0  0.51501180764E+01  0.91603346265E+02 -0.19080227850E+03  0.21171491739E+03  0.00000000000E+00 0.  1.
         -4    1    6    6    0  503  0.37158640881E+02  0.52876010066E+03 -0.67954938664E+03  0.86183256931E+03  0.00000000000E+00 0. -1.
<mgrwt>
<rscale>  0 0.18954277E+04</rscale>
<asrwt>0</asrwt>
<pdfrwt beam="1">  1        2 0.27190714E+00 0.18954277E+04</pdfrwt>
<pdfrwt beam="2">  1       -1 0.78182067E-01 0.18954277E+04</pdfrwt>
<totfact> 0.15723475E+01</totfact>
</mgrwt>
</event>
<event>
12    7  0.1637954E-007  0.1807629E+04  0.7818608E-02  0.8702253E-01
          2   -1    0    0  501    0  0.00000000000E+00  0.00000000000E+00  0.85662051411E+03  0.85662051411E+03  0.00000000000E+00 0. -1.
         -1   -1    0    0    0  501 -0.00000000000E+00 -0.00000000000E+00 -0.95360882303E+03  0.95360882303E+03  0.00000000000E+00 0.  1.
         24    2    1    2    0    0  0.35831403348E+03  0.38981158800E+03 -0.44325890997E+03  0.69528312327E+03  0.81228932677E+02 0.  0.
        254    2    1    2    0    0 -0.35831403348E+03 -0.38981158800E+03  0.34627060105E+03  0.11149462139E+04  0.91807391312E+03 0.  0.
         23    2    4    4    0    0  0.25471702413E+03 -0.15793313031E+03  0.32728464079E+03  0.45302795399E+03  0.91079388262E+02 0.  0.
         23    2    4    4    0    0 -0.61303105762E+03 -0.23187845769E+03  0.18985960256E+02  0.66191825988E+03  0.90557271017E+02 0.  0.
          4    1    3    3  502    0  0.23099188680E+03  0.25701019127E+03 -0.33772762502E+03  0.48318882322E+03  0.00000000000E+00 0. -1.
         -3    1    3    3    0  502  0.12732214668E+03  0.13280139673E+03 -0.10553128495E+03  0.21209430005E+03  0.00000000000E+00 0.  1.
         13    1    5    5    0    0  0.18338268505E+03 -0.10294035301E+03  0.28320918234E+03  0.35275113950E+03  0.00000000000E+00 0.  1.
        -13    1    5    5    0    0  0.71334339083E+02 -0.54992777300E+02  0.44075458452E+02  0.10027681450E+03  0.00000000000E+00 0. -1.
          3    1    6    6  503    0 -0.10366081727E+03 -0.69314240402E+02  0.25101044074E+02  0.12720098810E+03  0.00000000000E+00 0. -1.
         -3    1    6    6    0  503 -0.50937024034E+03 -0.16256421728E+03 -0.61150838185E+01  0.53471727178E+03  0.00000000000E+00 0.  1.
<mgrwt>
<rscale>  0 0.18076293E+04</rscale>
<asrwt>0</asrwt>
<pdfrwt beam="1">  1        2 0.13178777E+00 0.18076293E+04</pdfrwt>
<pdfrwt beam="2">  1       -1 0.14670905E+00 0.18076293E+04</pdfrwt>
<totfact> 0.12523642E+01</totfact>
</mgrwt>
</event>
<event>
12    7  0.1637954E-007  0.1359060E+04  0.7818608E-02  0.8983998E-01
          2   -1    0    0  501    0  0.00000000000E+00  0.00000000000E+00  0.20412580095E+04  0.20412580095E+04  0.00000000000E+00 0. -1.
         -1   -1    0    0    0  501 -0.00000000000E+00 -0.00000000000E+00 -0.22621404834E+03  0.22621404834E+03  0.00000000000E+00 0.  1.
         24    2    1    2    0    0 -0.12812072834E+03 -0.21553126520E+03  0.48052269657E+02  0.26803717849E+03  0.81647174633E+02 0.  0.
        254    2    1    2    0    0  0.12812072834E+03  0.21553126520E+03  0.17669916915E+04  0.19994348793E+04  0.90144969444E+03 0.  0.
         23    2    4    4    0    0 -0.13397849758E+02  0.50318680001E+03  0.14599955164E+04  0.15470552657E+04  0.91742189539E+02 0.  0.
         23    2    4    4    0    0  0.14151857809E+03 -0.28765553481E+03  0.30699617511E+03  0.45237961359E+03  0.87335265549E+02 0.  0.
          4    1    3    3  502    0 -0.10660813253E+03 -0.10721885306E+03  0.44259675953E+02  0.15754394717E+03  0.00000000000E+00 0. -1.
         -1    1    3    3    0  502 -0.21512595809E+02 -0.10831241214E+03  0.37925937037E+01  0.11049323132E+03  0.00000000000E+00 0.  1.
         13    1    5    5    0    0  0.33078404774E+02  0.11114682480E+03  0.37150913379E+03  0.38918740218E+03  0.00000000000E+00 0.  1.
        -13    1    5    5    0    0 -0.46476254532E+02  0.39203997521E+03  0.10884863826E+04  0.11578678636E+04  0.00000000000E+00 0. -1.
          1    1    6    6  503    0  0.13467217632E+03 -0.22655855790E+03  0.28206100168E+03  0.38603598783E+03  0.00000000000E+00 0. -1.
         -1    1    6    6    0  503  0.68464017725E+01 -0.61096976911E+02  0.24935173428E+02  0.66343625759E+02  0.00000000000E+00 0.  1.
<mgrwt>
<rscale>  0 0.13590603E+04</rscale>
<asrwt>0</asrwt>
<pdfrwt beam="1">  1        2 0.31403968E+00 0.13590603E+04</pdfrwt>
<pdfrwt beam="2">  1       -1 0.34802163E-01 0.13590603E+04</pdfrwt>
<totfact> 0.55285560E+01</totfact>
</mgrwt>
</event>
<event>
12    7  0.1637954E-007  0.1457764E+04  0.7818608E-02  0.8913035E-01
         -1   -1    0    0    0  501 -0.00000000000E+00  0.00000000000E+00  0.36665317610E+03  0.36665317610E+03  0.00000000000E+00 0.  1.
          2   -1    0    0  501    0  0.00000000000E+00 -0.00000000000E+00 -0.14489695696E+04  0.14489695696E+04  0.00000000000E+00 0. -1.
         24    2    1    2    0    0 -0.42857529072E+03 -0.11003450940E+03 -0.50838080684E+03  0.67863676108E+03  0.79450837985E+02 0.  0.
        254    2    1    2    0    0  0.42857529072E+03  0.11003450940E+03 -0.57393558670E+03  0.11369859847E+04  0.87609970812E+03 0.  0.
         23    2    4    4    0    0 -0.34505358848E+02 -0.26031539014E+03  0.37565543693E+02  0.28028636155E+03  0.90523766305E+02 0.  0.
         23    2    4    4    0    0  0.46308064956E+03  0.37034989954E+03 -0.61150113039E+03  0.85669962311E+03  0.91639924033E+02 0.  0.
          2    1    3    3  502    0 -0.22856835851E+02  0.10528005615E+02 -0.40858749976E+02  0.47986574133E+02  0.00000000000E+00 0. -1.
         -1    1    3    3    0  502 -0.40571845486E+03 -0.12056251502E+03 -0.46752205687E+03  0.63065018695E+03  0.00000000000E+00 0.  1.
         13    1    5    5    0    0 -0.22187560388E+02 -0.13958986096E+03  0.65467306356E+02  0.15576772875E+03  0.00000000000E+00 0. -1.
        -13    1    5    5    0    0 -0.12317798459E+02 -0.12072552918E+03 -0.27901762664E+02  0.12451863280E+03  0.00000000000E+00 0.  1.
          4    1    6    6  503    0  0.38108095136E+03  0.33931851137E+03 -0.49510358925E+03  0.71097630603E+03  0.00000000000E+00 0. -1.
         -4    1    6    6    0  503  0.81999698203E+02  0.31031388174E+02 -0.11639754114E+03  0.14572331708E+03  0.00000000000E+00 0.  1.
<mgrwt>
<rscale>  0 0.14577644E+04</rscale>
<asrwt>0</asrwt>
<pdfrwt beam="1">  1        2 0.22291839E+00 0.14577644E+04</pdfrwt>
<pdfrwt beam="2">  1       -1 0.56408183E-01 0.14577644E+04</pdfrwt>
<totfact> 0.47660881E+01</totfact>
</mgrwt>
</event>
<event>
12    7  0.1637954E-007  0.1501960E+04  0.7818608E-02  0.8883150E-01
          2   -1    0    0  501    0  0.00000000000E+00  0.00000000000E+00  0.17062183676E+04  0.17062183676E+04  0.00000000000E+00 0. -1.
         -1   -1    0    0    0  501 -0.00000000000E+00 -0.00000000000E+00 -0.33053872434E+03  0.33053872434E+03  0.00000000000E+00 0.  1.
         24    2    1    2    0    0 -0.36271950545E+03 -0.30422581607E+03  0.37896634255E+03  0.61155678645E+03  0.79167085757E+02 0.  0.
        254    2    1    2    0    0  0.36271950545E+03  0.30422581607E+03  0.99671330070E+03  0.14252003055E+04  0.90201980032E+03 0.  0.
         23    2    4    4    0    0  0.65675842429E+03  0.18280059098E+03  0.67981008251E+03  0.96706683386E+03  0.91262418005E+02 0.  0.
         23    2    4    4    0    0 -0.29403891883E+03  0.12142522509E+03  0.31690321819E+03  0.45813347162E+03  0.90860646291E+02 0.  0.
          4    1    3    3  502    0 -0.35600284324E+03 -0.30884150677E+03  0.36831170817E+03  0.59814263774E+03  0.00000000000E+00 0. -1.
         -3    1    3    3    0  502 -0.67166622107E+01  0.46156907049E+01  0.10654634376E+02  0.13414148711E+02  0.00000000000E+00 0.  1.
         13    1    5    5    0    0  0.63521303790E+03  0.19298541701E+03  0.65907010890E+03  0.93547441608E+03  0.00000000000E+00 0. -1.
        -13    1    5    5    0    0  0.21545386390E+02 -0.10184826034E+02  0.20739973618E+02  0.31592417788E+02  0.00000000000E+00 0.  1.
          3    1    6    6  503    0 -0.20661621225E+03  0.12481602063E+03  0.25379761334E+03  0.35026065538E+03  0.00000000000E+00 0. -1.
         -3    1    6    6    0  503 -0.87422706582E+02 -0.33907955375E+01  0.63105604853E+02  0.10787281624E+03  0.00000000000E+00 0.  1.
<mgrwt>
<rscale>  0 0.15019604E+04</rscale>
<asrwt>0</asrwt>
<pdfrwt beam="1">  1        2 0.26249513E+00 0.15019604E+04</pdfrwt>
<pdfrwt beam="2">  1       -1 0.50852113E-01 0.15019604E+04</pdfrwt>
<totfact> 0.41611758E+01</totfact>
</mgrwt>
</event>
<event>
12    7  0.1637954E-007  0.1193634E+04  0.7818608E-02  0.9118447E-01
         -1   -1    0    0    0  501 -0.00000000000E+00  0.00000000000E+00  0.28715840878E+03  0.28715840878E+03  0.00000000000E+00 0.  1.
          2   -1    0    0  501    0  0.00000000000E+00 -0.00000000000E+00 -0.12403971034E+04  0.12403971034E+04  0.00000000000E+00 0. -1.
         24    2    1    2    0    0 -0.24140194260E+03 -0.22210332793E+02 -0.30320034043E+03  0.39697046841E+03  0.82987406186E+02 0.  0.
        254    2    1    2    0    0  0.24140194260E+03  0.22210332793E+02 -0.65003835420E+03  0.11305850438E+04  0.89269506692E+03 0.  0.
         23    2    4    4    0    0  0.28064690874E+03  0.41619639582E+03 -0.43929047528E+03  0.67322872745E+03  0.90987199707E+02 0.  0.
         23    2    4    4    0    0 -0.39244966146E+02 -0.39398606302E+03 -0.21074787892E+03  0.45735631633E+03  0.89414464099E+02 0.  0.
          4    1    3    3  502    0 -0.19224791556E+03 -0.52091840135E+01 -0.28078885793E+03  0.34033627396E+03  0.00000000000E+00 0. -1.
         -3    1    3    3    0  502 -0.49154027035E+02 -0.17001148779E+02 -0.22411482495E+02  0.56634194452E+02  0.00000000000E+00 0.  1.
         13    1    5    5    0    0  0.10587636775E+03  0.13594173074E+03 -0.20755746712E+03  0.26975926594E+03  0.00000000000E+00 0.  1.
        -13    1    5    5    0    0  0.17477054099E+03  0.28025466508E+03 -0.23173300816E+03  0.40346946150E+03  0.00000000000E+00 0. -1.
          4    1    6    6  503    0 -0.33978354656E+02 -0.19978257760E+03 -0.15532621231E+03  0.25533084249E+03  0.00000000000E+00 0. -1.
         -4    1    6    6    0  503 -0.52666114898E+01 -0.19420348543E+03 -0.55421666608E+02  0.20202547383E+03  0.00000000000E+00 0.  1.
<mgrwt>
<rscale>  0 0.11936339E+04</rscale>
<asrwt>0</asrwt>
<pdfrwt beam="1">  1        2 0.19083032E+00 0.11936339E+04</pdfrwt>
<pdfrwt beam="2">  1       -1 0.44178217E-01 0.11936339E+04</pdfrwt>
<totfact> 0.10216342E+02</totfact>
</mgrwt>
</event>
<event>
12    7  0.1637954E-007  0.2286080E+04  0.7818608E-02  0.8483430E-01
          2   -1    0    0  501    0  0.00000000000E+00  0.00000000000E+00  0.19065035904E+04  0.19065035904E+04  0.00000000000E+00 0. -1.
         -1   -1    0    0    0  501 -0.00000000000E+00 -0.00000000000E+00 -0.68530723431E+03  0.68530723431E+03  0.00000000000E+00 0.  1.
         24    2    1    2    0    0 -0.88764510924E+03  0.25537679000E+03  0.19035122667E+03  0.94642454871E+03  0.79716322539E+02 0.  0.
        254    2    1    2    0    0  0.88764510924E+03 -0.25537679000E+03  0.10308451294E+04  0.16453862760E+04  0.88967588002E+03 0.  0.
         23    2    4    4    0    0 -0.59612162139E+02 -0.18760370188E+03  0.51934599439E+03  0.56258898414E+03  0.89651237352E+02 0.  0.
         23    2    4    4    0    0  0.94725727138E+03 -0.67773088118E+02  0.51149913501E+03  0.10827972918E+04  0.94493811432E+02 0.  0.
          4    1    3    3  502    0 -0.49725449791E+03  0.12428250733E+03  0.14149634641E+03  0.53172304197E+03  0.00000000000E+00 0. -1.
         -3    1    3    3    0  502 -0.39039061134E+03  0.13109428267E+03  0.48854880256E+02  0.41470150674E+03  0.00000000000E+00 0.  1.
         13    1    5    5    0    0 -0.39042468968E+02 -0.20998459700E+02  0.69431454674E+02  0.82377039222E+02  0.00000000000E+00 0. -1.
        -13    1    5    5    0    0 -0.20569693171E+02 -0.16660524218E+03  0.44991453971E+03  0.48021194492E+03  0.00000000000E+00 0.  1.
          3    1    6    6  503    0  0.17094556311E+03 -0.43712954862E+02  0.11653691541E+03  0.21145699474E+03  0.00000000000E+00 0. -1.
         -3    1    6    6    0  503  0.77631170827E+03 -0.24060133257E+02  0.39496221961E+03  0.87134029708E+03  0.00000000000E+00 0.  1.
<mgrwt>
<rscale>  0 0.22860802E+04</rscale>
<asrwt>0</asrwt>
<pdfrwt beam="1">  1        2 0.29330824E+00 0.22860802E+04</pdfrwt>
<pdfrwt beam="2">  1       -1 0.10543188E+00 0.22860802E+04</pdfrwt>
<totfact> 0.65602282E+00</totfact>
</mgrwt>
</event>
<event>
12    7  0.1637954E-007  0.1798142E+04  0.7818608E-02  0.8707288E-01
         -1   -1    0    0    0  501 -0.00000000000E+00  0.00000000000E+00  0.32282701185E+03  0.32282701185E+03  0.00000000000E+00 0.  1.
          2   -1    0    0  501    0  0.00000000000E+00 -0.00000000000E+00 -0.25039060690E+04  0.25039060690E+04  0.00000000000E+00 0. -1.
         24    2    1    2    0    0 -0.36327663847E+03  0.35532231089E+03 -0.14835294695E+04  0.15700573601E+04  0.77437501727E+02 0.  0.
        254    2    1    2    0    0  0.36327663847E+03 -0.35532231089E+03 -0.69754958773E+03  0.12566757207E+04  0.91347390719E+03 0.  0.
         23    2    4    4    0    0  0.65585856974E+03 -0.16124866223E+03 -0.42780282950E+03  0.80468250625E+03  0.91362357532E+02 0.  0.
         23    2    4    4    0    0 -0.29258193127E+03 -0.19407364866E+03 -0.26974675823E+03  0.45199321449E+03  0.90916361381E+02 0.  0.
          4    1    3    3  502    0  0.19324362481E+01  0.14038739492E+02 -0.41267736806E+02  0.43633090853E+02  0.00000000000E+00 0. -1.
         -3    1    3    3    0  502 -0.36520907472E+03  0.34128357140E+03 -0.14422617327E+04  0.15264242693E+04  0.00000000000E+00 0.  1.
         13    1    5    5    0    0  0.21770979757E+03 -0.11970279768E+02 -0.15316931448E+03  0.26646140894E+03  0.00000000000E+00 0. -1.
        -13    1    5    5    0    0  0.43814877217E+03 -0.14927838246E+03 -0.27463351502E+03  0.53822109732E+03  0.00000000000E+00 0.  1.
          3    1    6    6  503    0 -0.80079057847E+02 -0.10531755759E+03 -0.10298292019E+03  0.16766014819E+03  0.00000000000E+00 0. -1.
         -3    1    6    6    0  503 -0.21250287342E+03 -0.88756091069E+02 -0.16676383804E+03  0.28433306630E+03  0.00000000000E+00 0.  1.
<mgrwt>
<rscale>  0 0.17981418E+04</rscale>
<asrwt>0</asrwt>
<pdfrwt beam="1">  1        2 0.38521630E+00 0.17981418E+04</pdfrwt>
<pdfrwt beam="2">  1       -1 0.49665696E-01 0.17981418E+04</pdfrwt>
<totfact> 0.15154130E+01</totfact>
</mgrwt>
</event>
<event>
12    7  0.1637954E-007  0.1741006E+04  0.7818608E-02  0.8738316E-01
          2   -1    0    0  501    0  0.00000000000E+00  0.00000000000E+00  0.44830647082E+03  0.44830647082E+03  0.00000000000E+00 0. -1.
         -1   -1    0    0    0  501 -0.00000000000E+00 -0.00000000000E+00 -0.16903076799E+04  0.16903076799E+04  0.00000000000E+00 0.  1.
         24    2    1    2    0    0 -0.12028697247E+03  0.11546933623E+02  0.30762640913E+03  0.34006537550E+03  0.80051012466E+02 0.  0.
        254    2    1    2    0    0  0.12028697247E+03 -0.11546933623E+02 -0.15496276183E+04  0.17985487753E+04  0.90489206776E+03 0.  0.
         23    2    4    4    0    0  0.29440693217E+03  0.22579850696E+03 -0.23544520576E+03  0.44864948908E+03  0.90506970314E+02 0.  0.
         23    2    4    4    0    0 -0.17411995970E+03 -0.23734544058E+03 -0.13141824125E+04  0.13498992862E+04  0.92206567010E+02 0.  0.
          2    1    3    3  502    0 -0.12962565129E+03 -0.31916430589E+00  0.26936760173E+03  0.29893446807E+03  0.00000000000E+00 0. -1.
         -1    1    3    3    0  502  0.93386788222E+01  0.11866097928E+02  0.38258807402E+02  0.41130907430E+02  0.00000000000E+00 0.  1.
         13    1    5    5    0    0  0.14365212485E+02  0.10046576140E+02  0.81533670045E+01  0.19333142926E+02  0.00000000000E+00 0.  1.
        -13    1    5    5    0    0  0.28004171969E+03  0.21575193082E+03 -0.24359857277E+03  0.42931634615E+03  0.00000000000E+00 0. -1.
          4    1    6    6  503    0 -0.13675165994E+03 -0.16141076421E+03 -0.10885640565E+04  0.11089301856E+04  0.00000000000E+00 0.  1.
         -4    1    6    6    0  503 -0.37368299759E+02 -0.75934676374E+02 -0.22561835597E+03  0.24096910062E+03  0.00000000000E+00 0. -1.
<mgrwt>
<rscale>  0 0.17410065E+04</rscale>
<asrwt>0</asrwt>
<pdfrwt beam="1">  1        2 0.68970227E-01 0.17410065E+04</pdfrwt>
<pdfrwt beam="2">  1       -1 0.26004733E+00 0.17410065E+04</pdfrwt>
<totfact> 0.45428134E+00</totfact>
</mgrwt>
</event>
<event>
12    7  0.1637954E-007  0.2790016E+04  0.7818608E-02  0.8306375E-01
          2   -1    0    0  501    0  0.00000000000E+00  0.00000000000E+00  0.24921299289E+04  0.24921299289E+04  0.00000000000E+00 0. -1.
         -1   -1    0    0    0  501 -0.00000000000E+00 -0.00000000000E+00 -0.78087687165E+03  0.78087687165E+03  0.00000000000E+00 0.  1.
         24    2    1    2    0    0 -0.16132851864E+03  0.82282259024E+03  0.18420584299E+04  0.20256693091E+04  0.84219861188E+02 0.  0.
        254    2    1    2    0    0  0.16132851864E+03 -0.82282259024E+03 -0.13080537264E+03  0.12473374914E+04  0.91415363367E+03 0.  0.
         23    2    4    4    0    0 -0.55453226434E+02 -0.39174657210E+02  0.30177616584E+03  0.32224356274E+03  0.90345699215E+02 0.  0.
         23    2    4    4    0    0  0.21678174507E+03 -0.78364793303E+03 -0.43258153848E+03  0.92509392864E+03  0.87026326061E+02 0.  0.
          4    1    3    3  502    0 -0.10772283934E+03  0.63738291362E+03  0.13396887187E+04  0.14874901854E+04  0.00000000000E+00 0. -1.
         -1    1    3    3    0  502 -0.53605679299E+02  0.18543967663E+03  0.50236971119E+03  0.53817912375E+03  0.00000000000E+00 0.  1.
         13    1    5    5    0    0 -0.72171148712E+01 -0.10592218833E+02 -0.23167140767E+01  0.13024938041E+02  0.00000000000E+00 0.  1.
        -13    1    5    5    0    0 -0.48236111563E+02 -0.28582438377E+02  0.30409287992E+03  0.30921862470E+03  0.00000000000E+00 0. -1.
          2    1    6    6  503    0  0.12609024807E+03 -0.59483783466E+03 -0.31260562447E+03  0.68370540195E+03  0.00000000000E+00 0. -1.
         -2    1    6    6    0  503  0.90691497001E+02 -0.18881009837E+03 -0.11997591401E+03  0.24138852669E+03  0.00000000000E+00 0.  1.
<mgrwt>
<rscale>  0 0.27900155E+04</rscale>
<asrwt>0</asrwt>
<pdfrwt beam="1">  1        2 0.38340460E+00 0.27900155E+04</pdfrwt>
<pdfrwt beam="2">  1       -1 0.12013490E+00 0.27900155E+04</pdfrwt>
<totfact> 0.21497926E+00</totfact>
</mgrwt>
</event>
<event>
12    7  0.1637954E-007  0.2046799E+04  0.7818608E-02  0.8585048E-01
         -1   -1    0    0    0  501 -0.00000000000E+00  0.00000000000E+00  0.72850841190E+03  0.72850841190E+03  0.00000000000E+00 0.  1.
          2   -1    0    0  501    0  0.00000000000E+00 -0.00000000000E+00 -0.14376595025E+04  0.14376595025E+04  0.00000000000E+00 0. -1.
         24    2    1    2    0    0  0.73685336784E+03 -0.37124005405E+03 -0.27250027878E+03  0.87275213797E+03  0.81656775437E+02 0.  0.
        254    2    1    2    0    0 -0.73685336784E+03  0.37124005405E+03 -0.43665081179E+03  0.12934157764E+04  0.89525883173E+03 0.  0.
         23    2    4    4    0    0 -0.46890689751E+03 -0.23938926531E+03 -0.27423411948E+03  0.60080032439E+03  0.92605499954E+02 0.  0.
         23    2    4    4    0    0 -0.26794647032E+03  0.61062931936E+03 -0.16241669230E+03  0.69261545201E+03  0.93131658435E+02 0.  0.
          2    1    3    3  502    0  0.70395731435E+03 -0.33394281284E+03 -0.26106248759E+03  0.82172217027E+03  0.00000000000E+00 0. -1.
         -1    1    3    3    0  502  0.32896053483E+02 -0.37297241211E+02 -0.11437791185E+02  0.51029967704E+02  0.00000000000E+00 0.  1.
         13    1    5    5    0    0 -0.41783805856E+01 -0.24221088221E+01  0.67360200981E+01  0.82885126667E+01  0.00000000000E+00 0. -1.
        -13    1    5    5    0    0 -0.46472851693E+03 -0.23696715649E+03 -0.28097013958E+03  0.59251181173E+03  0.00000000000E+00 0.  1.
          3    1    6    6  503    0 -0.13041989401E+03  0.18767470751E+03 -0.56909577792E+02  0.23552036990E+03  0.00000000000E+00 0. -1.
         -3    1    6    6    0  503 -0.13752657631E+03  0.42295461184E+03 -0.10550711451E+03  0.45709508210E+03  0.00000000000E+00 0.  1.
<mgrwt>
<rscale>  0 0.20467995E+04</rscale>
<asrwt>0</asrwt>
<pdfrwt beam="1">  1        2 0.22117838E+00 0.20467995E+04</pdfrwt>
<pdfrwt beam="2">  1       -1 0.11207822E+00 0.20467995E+04</pdfrwt>
<totfact> 0.10602687E+01</totfact>
</mgrwt>
</event>
<event>
12    7  0.1637954E-007  0.1705926E+04  0.7818608E-02  0.8757992E-01
          2   -1    0    0  501    0  0.00000000000E+00  0.00000000000E+00  0.26728587736E+04  0.26728587736E+04  0.00000000000E+00 0. -1.
         -1   -1    0    0    0  501 -0.00000000000E+00 -0.00000000000E+00 -0.27219761512E+03  0.27219761512E+03  0.00000000000E+00 0.  1.
         24    2    1    2    0    0  0.32102668452E+03  0.50989256954E+03  0.10870434375E+04  0.12454944770E+04  0.80898038667E+02 0.  0.
        254    2    1    2    0    0 -0.32102668452E+03 -0.50989256954E+03  0.13136177210E+04  0.16995619117E+04  0.89435485695E+03 0.  0.
         23    2    4    4    0    0 -0.35408071983E+01 -0.61446682770E+03  0.44493297823E+03  0.76427063932E+03  0.92532347637E+02 0.  0.
         23    2    4    4    0    0 -0.31748587732E+03  0.10457425815E+03  0.86868474278E+03  0.93529127239E+03  0.91779758709E+02 0.  0.
          4    1    3    3  502    0  0.28541431462E+03  0.43082721804E+03  0.87215358496E+03  0.10137678721E+04  0.00000000000E+00 0. -1.
         -3    1    3    3    0  502  0.35612369894E+02  0.79065351502E+02  0.21488985251E+03  0.23172660488E+03  0.00000000000E+00 0.  1.
         13    1    5    5    0    0  0.27099709098E+02 -0.54262537954E+03  0.38863473006E+03  0.66799225307E+03  0.00000000000E+00 0.  1.
        -13    1    5    5    0    0 -0.30640516297E+02 -0.71841448151E+02  0.56298248170E+02  0.96278386247E+02  0.00000000000E+00 0. -1.
          1    1    6    6  503    0 -0.89634773973E+02 -0.10714735652E+02  0.19679342692E+03  0.21651062594E+03  0.00000000000E+00 0. -1.
         -1    1    6    6    0  503 -0.22785110335E+03  0.11528899381E+03  0.67189131585E+03  0.71878064645E+03  0.00000000000E+00 0.  1.
<mgrwt>
<rscale>  0 0.17059259E+04</rscale>
<asrwt>0</asrwt>
<pdfrwt beam="1">  1        2 0.41120902E+00 0.17059259E+04</pdfrwt>
<pdfrwt beam="2">  1       -1 0.41876558E-01 0.17059259E+04</pdfrwt>
<totfact> 0.16751229E+01</totfact>
</mgrwt>
</event>
<event>
12    7  0.1637954E-007  0.1862311E+04  0.7818608E-02  0.8673848E-01
         -1   -1    0    0    0  501 -0.00000000000E+00  0.00000000000E+00  0.22012435850E+04  0.22012435850E+04  0.00000000000E+00 0.  1.
          2   -1    0    0  501    0  0.00000000000E+00 -0.00000000000E+00 -0.39389106451E+03  0.39389106451E+03  0.00000000000E+00 0. -1.
         24    2    1    2    0    0  0.52745156423E+03  0.47267549432E+03  0.81762240161E+03  0.10846084009E+04  0.79004532833E+02 0.  0.
        254    2    1    2    0    0 -0.52745156423E+03 -0.47267549432E+03  0.98973011886E+03  0.15105262486E+04  0.89470473558E+03 0.  0.
         23    2    4    4    0    0  0.20302495715E+03 -0.34306634544E+02  0.33131429102E+02  0.22632338500E+03  0.87911913897E+02 0.  0.
         23    2    4    4    0    0 -0.73047652138E+03 -0.43836885978E+03  0.95659868976E+03  0.12842028636E+04  0.91283821139E+02 0.  0.
          4    1    3    3  502    0  0.48049676389E+03  0.40265151249E+03  0.74176638453E+03  0.97119655572E+03  0.00000000000E+00 0. -1.
         -3    1    3    3    0  502  0.46954800334E+02  0.70023981831E+02  0.75856017073E+02  0.11341184520E+03  0.00000000000E+00 0.  1.
         13    1    5    5    0    0  0.11798363954E+03 -0.50704075478E+02 -0.11428107762E+02  0.12892495536E+03  0.00000000000E+00 0. -1.
        -13    1    5    5    0    0  0.85041317617E+02  0.16397440934E+02  0.44559536864E+02  0.97398429642E+02  0.00000000000E+00 0.  1.
          4    1    6    6  503    0 -0.63569128429E+03 -0.35228666896E+03  0.84292628050E+03  0.11129842858E+04  0.00000000000E+00 0. -1.
         -4    1    6    6    0  503 -0.94785237095E+02 -0.86082190820E+02  0.11367240926E+03  0.17121857778E+03  0.00000000000E+00 0.  1.
<mgrwt>
<rscale>  0 0.18623106E+04</rscale>
<asrwt>0</asrwt>
<pdfrwt beam="1">  1        2 0.60598627E-01 0.18623106E+04</pdfrwt>
<pdfrwt beam="2">  1       -1 0.33865285E+00 0.18623106E+04</pdfrwt>
<totfact> 0.16078845E+00</totfact>
</mgrwt>
</event>
<event>
12    7  0.1637954E-007  0.1395652E+04  0.7818608E-02  0.8956972E-01
          2   -1    0    0  501    0  0.00000000000E+00  0.00000000000E+00  0.22723506252E+04  0.22723506252E+04  0.00000000000E+00 0. -1.
         -1   -1    0    0    0  501 -0.00000000000E+00 -0.00000000000E+00 -0.21429845869E+03  0.21429845869E+03  0.00000000000E+00 0.  1.
         24    2    1    2    0    0 -0.37250599064E+03  0.11117215366E+03  0.39853835501E+03  0.56246755023E+03  0.80105953811E+02 0.  0.
        254    2    1    2    0    0  0.37250599064E+03 -0.11117215366E+03  0.16595138115E+04  0.19241815337E+04  0.89295493904E+03 0.  0.
         23    2    4    4    0    0  0.61768095229E+03  0.58197844945E+02  0.13308616602E+04  0.14712310386E+04  0.91712934694E+02 0.  0.
         23    2    4    4    0    0 -0.24517496165E+03 -0.16936999861E+03  0.32865215135E+03  0.45295049511E+03  0.91405449434E+02 0.  0.
          2    1    3    3  502    0 -0.14080723673E+03  0.48440077389E+02  0.20898286121E+03  0.25660661584E+03  0.00000000000E+00 0. -1.
         -1    1    3    3    0  502 -0.23169875391E+03  0.62732076273E+02  0.18955549380E+03  0.30586093439E+03  0.00000000000E+00 0.  1.
         13    1    5    5    0    0  0.49710317692E+03  0.81269994100E+02  0.10965875892E+04  0.12067397074E+04  0.00000000000E+00 0.  1.
        -13    1    5    5    0    0  0.12057777536E+03 -0.23072149155E+02  0.23427407092E+03  0.26449133121E+03  0.00000000000E+00 0. -1.
          2    1    6    6  503    0 -0.11016921109E+03 -0.31778760999E+02  0.15986860542E+03  0.19673615763E+03  0.00000000000E+00 0. -1.
         -2    1    6    6    0  503 -0.13500575056E+03 -0.13759123761E+03  0.16878354593E+03  0.25621433748E+03  0.00000000000E+00 0.  1.
<mgrwt>
<rscale>  0 0.13956522E+04</rscale>
<asrwt>0</asrwt>
<pdfrwt beam="1">  1        2 0.34959239E+00 0.13956522E+04</pdfrwt>
<pdfrwt beam="2">  1       -1 0.32968995E-01 0.13956522E+04</pdfrwt>
<totfact> 0.45098343E+01</totfact>
</mgrwt>
</event>
<event>
12    7  0.1637954E-007  0.1641456E+04  0.7818608E-02  0.8795477E-01
          2   -1    0    0  501    0  0.00000000000E+00  0.00000000000E+00  0.26147305362E+04  0.26147305362E+04  0.00000000000E+00 0. -1.
         -1   -1    0    0    0  501 -0.00000000000E+00 -0.00000000000E+00 -0.25761512570E+03  0.25761512570E+03  0.00000000000E+00 0.  1.
         24    2    1    2    0    0  0.28555384199E+03  0.32516535081E+03  0.14590559702E+04  0.15237442205E+04  0.75356640685E+02 0.  0.
        254    2    1    2    0    0 -0.28555384199E+03 -0.32516535081E+03  0.89805944032E+03  0.13486014414E+04  0.90826295058E+03 0.  0.
         23    2    4    4    0    0  0.70759561918E+02 -0.50743181083E+03  0.74829227682E+03  0.91134593340E+03  0.90089513952E+02 0.  0.
         23    2    4    4    0    0 -0.35631340390E+03  0.18226646002E+03  0.14976716350E+03  0.43725550801E+03  0.92638392565E+02 0.  0.
          2    1    3    3  502    0  0.15863566601E+03  0.21476614131E+03  0.79154426843E+03  0.83536345315E+03  0.00000000000E+00 0. -1.
         -1    1    3    3    0  502  0.12691817598E+03  0.11039920950E+03  0.66751170180E+03  0.68838076738E+03  0.00000000000E+00 0.  1.
         13    1    5    5    0    0  0.56099570054E+01 -0.12169821365E+01  0.27835836279E+02  0.28421584130E+02  0.00000000000E+00 0.  1.
        -13    1    5    5    0    0  0.65149604912E+02 -0.50621482869E+03  0.72045644054E+03  0.88292434927E+03  0.00000000000E+00 0. -1.
          2    1    6    6  503    0 -0.33268203950E+03  0.19306480933E+03  0.14339434544E+03  0.41050371291E+03  0.00000000000E+00 0. -1.
         -2    1    6    6    0  503 -0.23631364407E+02 -0.10798349309E+02  0.63728180542E+01  0.26751795108E+02  0.00000000000E+00 0.  1.
<mgrwt>
<rscale>  0 0.16414556E+04</rscale>
<asrwt>0</asrwt>
<pdfrwt beam="1">  1        2 0.40226622E+00 0.16414556E+04</pdfrwt>
<pdfrwt beam="2">  1       -1 0.39633098E-01 0.16414556E+04</pdfrwt>
<totfact> 0.20166583E+01</totfact>
</mgrwt>
</event>
<event>
12    7  0.1637954E-007  0.2302980E+04  0.7818608E-02  0.8476747E-01
          2   -1    0    0  501    0  0.00000000000E+00  0.00000000000E+00  0.29264009561E+04  0.29264009561E+04  0.00000000000E+00 0. -1.
         -1   -1    0    0    0  501 -0.00000000000E+00 -0.00000000000E+00 -0.45309202567E+03  0.45309202567E+03  0.00000000000E+00 0.  1.
         24    2    1    2    0    0 -0.87875740739E+03 -0.15158408875E+03  0.49278508977E+03  0.10219366874E+04  0.79530694618E+02 0.  0.
        254    2    1    2    0    0  0.87875740739E+03  0.15158408875E+03  0.19805238407E+04  0.23575562944E+04  0.91673588380E+03 0.  0.
         23    2    4    4    0    0  0.92662977479E+02 -0.28531746861E+03  0.23332835586E+03  0.39043387009E+03  0.89465076848E+02 0.  0.
         23    2    4    4    0    0  0.78609442991E+03  0.43690155736E+03  0.17471954848E+04  0.19671224243E+04  0.89728180535E+02 0.  0.
          2    1    3    3  502    0 -0.16656406520E+03 -0.36514786644E+02  0.13002437662E+03  0.21443706763E+03  0.00000000000E+00 0. -1.
         -1    1    3    3    0  502 -0.71219334220E+03 -0.11506930210E+03  0.36276071315E+03  0.80749961979E+03  0.00000000000E+00 0.  1.
         13    1    5    5    0    0  0.46008003461E+01 -0.12430511700E+03  0.60416537574E+02  0.13828625198E+03  0.00000000000E+00 0. -1.
        -13    1    5    5    0    0  0.88062177133E+02 -0.16101235162E+03  0.17291181829E+03  0.25214761811E+03  0.00000000000E+00 0.  1.
          3    1    6    6  503    0  0.61931502905E+03  0.34785947864E+03  0.12954979501E+04  0.14774546561E+04  0.00000000000E+00 0. -1.
         -3    1    6    6    0  503  0.16677940086E+03  0.89042078721E+02  0.45169753476E+03  0.48966776823E+03  0.00000000000E+00 0.  1.
<mgrwt>
<rscale>  0 0.23029798E+04</rscale>
<asrwt>0</asrwt>
<pdfrwt beam="1">  1        2 0.45021552E+00 0.23029798E+04</pdfrwt>
<pdfrwt beam="2">  1       -1 0.69706468E-01 0.23029798E+04</pdfrwt>
<totfact> 0.41552395E+00</totfact>
</mgrwt>
</event>
<event>
12    7  0.1637954E-007  0.3773011E+04  0.7818608E-02  0.8051971E-01
          2   -1    0    0  501    0  0.00000000000E+00  0.00000000000E+00  0.20509524913E+04  0.20509524913E+04  0.00000000000E+00 0. -1.
         -1   -1    0    0    0  501 -0.00000000000E+00 -0.00000000000E+00 -0.17352443646E+04  0.17352443646E+04  0.00000000000E+00 0.  1.
         24    2    1    2    0    0 -0.15279285273E+04  0.42466746049E+03  0.96208840260E+03  0.18565583543E+04  0.79289291487E+02 0.  0.
        254    2    1    2    0    0  0.15279285273E+04 -0.42466746049E+03 -0.64638027590E+03  0.19296385016E+04  0.88926331813E+03 0.  0.
         23    2    4    4    0    0  0.14269046792E+04 -0.30627062017E+03 -0.23603559335E+03  0.14811240846E+04  0.90316645325E+02 0.  0.
         23    2    4    4    0    0  0.10102384811E+03 -0.11839684032E+03 -0.41034468255E+03  0.44851441691E+03  0.92513750290E+02 0.  0.
          4    1    3    3  502    0 -0.55491017106E+03  0.14502729820E+03  0.30492108633E+03  0.64956530392E+03  0.00000000000E+00 0. -1.
         -3    1    3    3    0  502 -0.97301835626E+03  0.27964016229E+03  0.65716731627E+03  0.12069930503E+04  0.00000000000E+00 0.  1.
         13    1    5    5    0    0  0.35970017614E+03 -0.11352686156E+03 -0.43420638739E+02  0.37968133596E+03  0.00000000000E+00 0.  1.
        -13    1    5    5    0    0  0.10672045031E+04 -0.19274375860E+03 -0.19261495461E+03  0.11014427487E+04  0.00000000000E+00 0. -1.
          3    1    6    6  503    0  0.40217788528E+02 -0.11265216409E+03 -0.28486680254E+03  0.30896128524E+03  0.00000000000E+00 0. -1.
         -3    1    6    6    0  503  0.60806059578E+02 -0.57446762329E+01 -0.12547788001E+03  0.13955313167E+03  0.00000000000E+00 0.  1.
<mgrwt>
<rscale>  0 0.37730114E+04</rscale>
<asrwt>0</asrwt>
<pdfrwt beam="1">  1        2 0.31553115E+00 0.37730114E+04</pdfrwt>
<pdfrwt beam="2">  1       -1 0.26696067E+00 0.37730114E+04</pdfrwt>
<totfact> 0.30931521E-01</totfact>
</mgrwt>
</event>
<event>
12    7  0.1637954E-007  0.2193129E+04  0.7818608E-02  0.8521293E-01
          2   -1    0    0  501    0  0.00000000000E+00  0.00000000000E+00  0.17812671464E+04  0.17812671464E+04  0.00000000000E+00 0. -1.
         -1   -1    0    0    0  501 -0.00000000000E+00 -0.00000000000E+00 -0.67505547322E+03  0.67505547322E+03  0.00000000000E+00 0.  1.
         24    2    1    2    0    0 -0.44552588136E+03  0.73525265499E+03  0.81904393994E+03  0.11899895343E+04  0.78436845111E+02 0.  0.
        254    2    1    2    0    0  0.44552588136E+03 -0.73525265499E+03  0.28716773324E+03  0.12663330853E+04  0.88433274178E+03 0.  0.
         23    2    4    4    0    0  0.18507754328E+03 -0.21194422389E+03  0.54555550565E+03  0.62070689930E+03  0.92044522017E+02 0.  0.
         23    2    4    4    0    0  0.26044833808E+03 -0.52330843110E+03 -0.25838777240E+03  0.64562618596E+03  0.91563530975E+02 0.  0.
          2    1    3    3  502    0 -0.24886972022E+03  0.46082481128E+03  0.53640474262E+03  0.74968372814E+03  0.00000000000E+00 0. -1.
         -1    1    3    3    0  502 -0.19665616114E+03  0.27442784371E+03  0.28263919732E+03  0.44030580620E+03  0.00000000000E+00 0.  1.
         13    1    5    5    0    0  0.56505850927E+00 -0.25576631441E+02  0.17148277873E+02  0.30798486992E+02  0.00000000000E+00 0.  1.
        -13    1    5    5    0    0  0.18451248477E+03 -0.18636759245E+03  0.52840722777E+03  0.58990841231E+03  0.00000000000E+00 0. -1.
          4    1    6    6  503    0  0.19832526958E+03 -0.32162474051E+03 -0.19541291431E+03  0.42539580785E+03  0.00000000000E+00 0. -1.
         -4    1    6    6    0  503  0.62123068502E+02 -0.20168369059E+03 -0.62974858097E+02  0.22023037811E+03  0.00000000000E+00 0.  1.
<mgrwt>
<rscale>  0 0.21931294E+04</rscale>
<asrwt>0</asrwt>
<pdfrwt beam="1">  1        2 0.27404110E+00 0.21931294E+04</pdfrwt>
<pdfrwt beam="2">  1       -1 0.10385469E+00 0.21931294E+04</pdfrwt>
<totfact> 0.80375704E+00</totfact>
</mgrwt>
</event>
<event>
12    7  0.1637954E-007  0.1240548E+04  0.7818608E-02  0.9078087E-01
          2   -1    0    0  501    0  0.00000000000E+00  0.00000000000E+00  0.23278146396E+04  0.23278146396E+04  0.00000000000E+00 0. -1.
         -1   -1    0    0    0  501 -0.00000000000E+00 -0.00000000000E+00 -0.16527934351E+03  0.16527934351E+03  0.00000000000E+00 0.  1.
         24    2    1    2    0    0 -0.10622770862E+03  0.10874555771E+03  0.28433061235E+02  0.17366403299E+03  0.78998955584E+02 0.  0.
        254    2    1    2    0    0  0.10622770862E+03 -0.10874555771E+03  0.21341022348E+04  0.23194299501E+04  0.89568578324E+03 0.  0.
         23    2    4    4    0    0  0.84237907150E+02 -0.27219243262E+03  0.16547556717E+03  0.34186007864E+03  0.91112044546E+02 0.  0.
         23    2    4    4    0    0  0.21989801468E+02  0.16344687491E+03  0.19686266677E+04  0.19775698715E+04  0.89962256466E+02 0.  0.
          2    1    3    3  502    0 -0.50683632986E+02  0.27324937116E+02  0.45812278862E+02  0.73581571984E+02  0.00000000000E+00 0. -1.
         -1    1    3    3    0  502 -0.55544075631E+02  0.81420620597E+02 -0.17379217627E+02  0.10008246101E+03  0.00000000000E+00 0.  1.
         13    1    5    5    0    0  0.20607268869E+02 -0.29607267284E+02 -0.79590449313E+01  0.36940441287E+02  0.00000000000E+00 0.  1.
        -13    1    5    5    0    0  0.63630638281E+02 -0.24258516534E+03  0.17343461210E+03  0.30491963735E+03  0.00000000000E+00 0. -1.
          3    1    6    6  503    0  0.42176665584E+02  0.16070068535E+03  0.16681319819E+04  0.16763853645E+04  0.00000000000E+00 0. -1.
         -3    1    6    6    0  503 -0.20186864116E+02  0.27461895618E+01  0.30049468577E+03  0.30118450693E+03  0.00000000000E+00 0.  1.
<mgrwt>
<rscale>  0 0.12405477E+04</rscale>
<asrwt>0</asrwt>
<pdfrwt beam="1">  1        2 0.35812530E+00 0.12405477E+04</pdfrwt>
<pdfrwt beam="2">  1       -1 0.25427593E-01 0.12405477E+04</pdfrwt>
<totfact> 0.66916099E+01</totfact>
</mgrwt>
</event>
<event>
12    7  0.1637954E-007  0.1784379E+04  0.7818608E-02  0.8714651E-01
          2   -1    0    0  501    0  0.00000000000E+00  0.00000000000E+00  0.11627845555E+04  0.11627845555E+04  0.00000000000E+00 0. -1.
         -1   -1    0    0    0  501 -0.00000000000E+00 -0.00000000000E+00 -0.68456510155E+03  0.68456510155E+03  0.00000000000E+00 0.  1.
         24    2    1    2    0    0 -0.58959447458E+03 -0.44968944914E+02  0.48892939849E+03  0.77111087802E+03  0.76916701896E+02 0.  0.
        254    2    1    2    0    0  0.58959447458E+03  0.44968944914E+02 -0.10709944550E+02  0.10762387790E+04  0.89918371655E+03 0.  0.
         23    2    4    4    0    0 -0.19318799064E+03  0.69486665554E+02 -0.15712336896E+03  0.27421591837E+03  0.91414552444E+02 0.  0.
         23    2    4    4    0    0  0.78278246522E+03 -0.24517720640E+02  0.14641342441E+03  0.80202286066E+03  0.91947113567E+02 0.  0.
          4    1    3    3  502    0 -0.57270309173E+03 -0.50382949292E+02  0.48664452088E+03  0.75322650149E+03  0.00000000000E+00 0. -1.
         -3    1    3    3    0  502 -0.16891382850E+02  0.54140043783E+01  0.22848776163E+01  0.17884376525E+02  0.00000000000E+00 0.  1.
         13    1    5    5    0    0 -0.10578626455E+03  0.83208413934E+02 -0.11091492097E+03  0.17440325000E+03  0.00000000000E+00 0. -1.
        -13    1    5    5    0    0 -0.87401726087E+02 -0.13721748380E+02 -0.46208447984E+02  0.99812668367E+02  0.00000000000E+00 0.  1.
          4    1    6    6  503    0  0.48694153705E+02  0.16397346755E+02 -0.41101086284E+01  0.51544995670E+02  0.00000000000E+00 0.  1.
         -4    1    6    6    0  503  0.73408831151E+03 -0.40915067395E+02  0.15052353304E+03  0.75047786499E+03  0.00000000000E+00 0. -1.
<mgrwt>
<rscale>  0 0.17843786E+04</rscale>
<asrwt>0</asrwt>
<pdfrwt beam="1">  1        2 0.17888993E+00 0.17843786E+04</pdfrwt>
<pdfrwt beam="2">  1       -1 0.10531771E+00 0.17843786E+04</pdfrwt>
<totfact> 0.18175595E+01</totfact>
</mgrwt>
</event>
<event>
12    7  0.1637954E-007  0.1764591E+04  0.7818608E-02  0.8725359E-01
         -1   -1    0    0    0  501 -0.00000000000E+00  0.00000000000E+00  0.11009690922E+04  0.11009690922E+04  0.00000000000E+00 0.  1.
          2   -1    0    0  501    0  0.00000000000E+00 -0.00000000000E+00 -0.70705483910E+03  0.70705483910E+03  0.00000000000E+00 0. -1.
         24    2    1    2    0    0  0.55407354068E+03  0.74741186892E+02 -0.17515948134E+03  0.59098577607E+03  0.77457150202E+02 0.  0.
        254    2    1    2    0    0 -0.55407354068E+03 -0.74741186892E+02  0.56907373443E+03  0.12170381552E+04  0.91910457650E+03 0.  0.
         23    2    4    4    0    0 -0.62826299469E+03 -0.15020112753E+02  0.75641902394E+03  0.98764008391E+03  0.91231580612E+02 0.  0.
         23    2    4    4    0    0  0.74189454009E+02 -0.59721074139E+02 -0.18734528950E+03  0.22939807131E+03  0.91948549949E+02 0.  0.
          4    1    3    3  502    0  0.41490002253E+03  0.57927717123E+02 -0.95220507794E+02  0.42960981624E+03  0.00000000000E+00 0. -1.
         -3    1    3    3    0  502  0.13917351815E+03  0.16813469769E+02 -0.79938973546E+02  0.16137595983E+03  0.00000000000E+00 0.  1.
         13    1    5    5    0    0 -0.56069664593E+03  0.85535076402E+01  0.63927981781E+03  0.85037202253E+03  0.00000000000E+00 0.  1.
        -13    1    5    5    0    0 -0.67566348753E+02 -0.23573620393E+02  0.11713920613E+03  0.13726806138E+03  0.00000000000E+00 0. -1.
          1    1    6    6  503    0 -0.72370072807E+01 -0.32694352073E+02 -0.14618975179E+02  0.36537779998E+02  0.00000000000E+00 0. -1.
         -1    1    6    6    0  503  0.81426461290E+02 -0.27026722066E+02 -0.17272631432E+03  0.19286029131E+03  0.00000000000E+00 0.  1.
<mgrwt>
<rscale>  0 0.17645912E+04</rscale>
<asrwt>0</asrwt>
<pdfrwt beam="1">  1        2 0.10877767E+00 0.17645912E+04</pdfrwt>
<pdfrwt beam="2">  1       -1 0.16937986E+00 0.17645912E+04</pdfrwt>
<totfact> 0.10874260E+01</totfact>
</mgrwt>
</event>
<event>
12    7  0.1637954E-007  0.2011471E+04  0.7818608E-02  0.8601277E-01
         -1   -1    0    0    0  501 -0.00000000000E+00  0.00000000000E+00  0.35632600782E+03  0.35632600782E+03  0.00000000000E+00 0.  1.
          2   -1    0    0  501    0  0.00000000000E+00 -0.00000000000E+00 -0.28387022645E+04  0.28387022645E+04  0.00000000000E+00 0. -1.
         24    2    1    2    0    0 -0.62223519796E+03  0.41963824948E+03 -0.14057368797E+04  0.15955404723E+04  0.79876917273E+02 0.  0.
        254    2    1    2    0    0  0.62223519796E+03 -0.41963824948E+03 -0.10766393770E+04  0.15994878000E+04  0.91429534189E+03 0.  0.
         23    2    4    4    0    0  0.58141035222E+03  0.29008745705E+02 -0.95861873119E+03  0.11253689971E+04  0.92876277685E+02 0.  0.
         23    2    4    4    0    0  0.40824845746E+02 -0.44864699518E+03 -0.11802064579E+03  0.47411880283E+03  0.88932401579E+02 0.  0.
          2    1    3    3  502    0 -0.34643456973E+03  0.25446540871E+03 -0.87848667837E+03  0.97801247405E+03  0.00000000000E+00 0. -1.
         -1    1    3    3    0  502 -0.27580062824E+03  0.16517284077E+03 -0.52725020134E+03  0.61752799829E+03  0.00000000000E+00 0.  1.
         13    1    5    5    0    0  0.54651556931E+02 -0.91782012142E+01 -0.51222370946E+02  0.75463655741E+02  0.00000000000E+00 0. -1.
        -13    1    5    5    0    0  0.52675879529E+03  0.38186946919E+02 -0.90739636024E+03  0.10499053414E+04  0.00000000000E+00 0.  1.
          3    1    6    6  503    0  0.83393112858E+01 -0.79817823441E+02 -0.58026227008E+02  0.99032681840E+02  0.00000000000E+00 0. -1.
         -3    1    6    6    0  503  0.32485534460E+02 -0.36882917174E+03 -0.59994418782E+02  0.37508612099E+03  0.00000000000E+00 0.  1.
<mgrwt>
<rscale>  0 0.20114706E+04</rscale>
<asrwt>0</asrwt>
<pdfrwt beam="1">  1        2 0.43672343E+00 0.20114706E+04</pdfrwt>
<pdfrwt beam="2">  1       -1 0.54819385E-01 0.20114706E+04</pdfrwt>
<totfact> 0.77943461E+00</totfact>
</mgrwt>
</event>
<event>
12    7  0.1637954E-007  0.1859665E+04  0.7818608E-02  0.8675198E-01
          2   -1    0    0  501    0  0.00000000000E+00  0.00000000000E+00  0.18900926607E+04  0.18900926607E+04  0.00000000000E+00 0. -1.
         -1   -1    0    0    0  501 -0.00000000000E+00 -0.00000000000E+00 -0.45743168700E+03  0.45743168700E+03  0.00000000000E+00 0.  1.
         24    2    1    2    0    0  0.30873640688E+03  0.41318268578E+03  0.11413316100E+04  0.12549179999E+04  0.78378835580E+02 0.  0.
        254    2    1    2    0    0 -0.30873640688E+03 -0.41318268578E+03  0.29132936369E+03  0.10926063477E+04  0.91808372831E+03 0.  0.
         23    2    4    4    0    0 -0.27919680087E+03 -0.22565750582E+03 -0.29257426803E+03  0.47199331996E+03  0.91136316730E+02 0.  0.
         23    2    4    4    0    0 -0.29539606003E+02 -0.18752517996E+03  0.58390363172E+03  0.62061302776E+03  0.90436705180E+02 0.  0.
          2    1    3    3  502    0  0.70676666400E+02  0.13398641146E+03  0.40084687533E+03  0.42851577228E+03  0.00000000000E+00 0. -1.
         -1    1    3    3    0  502  0.23805974048E+03  0.27919627431E+03  0.74048473465E+03  0.82640222766E+03  0.00000000000E+00 0.  1.
         13    1    5    5    0    0 -0.44768590990E+02 -0.41348447787E+02 -0.99698235885E+02  0.11684887296E+03  0.00000000000E+00 0. -1.
        -13    1    5    5    0    0 -0.23442820988E+03 -0.18430905803E+03 -0.19287603215E+03  0.35514444700E+03  0.00000000000E+00 0.  1.
          4    1    6    6  503    0 -0.40127495148E+01 -0.21534829415E+02  0.12894063304E+02  0.25418652700E+02  0.00000000000E+00 0. -1.
         -4    1    6    6    0  503 -0.25526856489E+02 -0.16599035055E+03  0.57100956842E+03  0.59519437506E+03  0.00000000000E+00 0.  1.
<mgrwt>
<rscale>  0 0.18596648E+04</rscale>
<asrwt>0</asrwt>
<pdfrwt beam="1">  1        2 0.29078348E+00 0.18596648E+04</pdfrwt>
<pdfrwt beam="2">  1       -1 0.70374107E-01 0.18596648E+04</pdfrwt>
<totfact> 0.16791667E+01</totfact>
</mgrwt>
</event>
<event>
12    7  0.1637954E-007  0.2331972E+04  0.7818608E-02  0.8465420E-01
          2   -1    0    0  501    0  0.00000000000E+00  0.00000000000E+00  0.88032627463E+03  0.88032627463E+03  0.00000000000E+00 0. -1.
         -1   -1    0    0    0  501 -0.00000000000E+00 -0.00000000000E+00 -0.15443409339E+04  0.15443409339E+04  0.00000000000E+00 0.  1.
         24    2    1    2    0    0  0.32546198037E+02 -0.83697834329E+03  0.24254144747E+03  0.87573184821E+03  0.80547588965E+02 0.  0.
        254    2    1    2    0    0 -0.32546198037E+02  0.83697834329E+03 -0.90655610670E+03  0.15489353603E+04  0.93582304608E+03 0.  0.
         23    2    4    4    0    0 -0.17173774967E+03  0.85725921799E+03 -0.10199734537E+04  0.13465926619E+04  0.92621429657E+02 0.  0.
         23    2    4    4    0    0  0.13919155163E+03 -0.20280874705E+02  0.11341734702E+03  0.20234269840E+03  0.91068496548E+02 0.  0.
          4    1    3    3  502    0  0.40445008739E+02 -0.76224110179E+03  0.19880386747E+03  0.78877770868E+03  0.00000000000E+00 0. -1.
         -3    1    3    3    0  502 -0.78988107017E+01 -0.74737241502E+02  0.43737579997E+02  0.86954139533E+02  0.00000000000E+00 0.  1.
         13    1    5    5    0    0 -0.48970480763E+02  0.12391812802E+03 -0.19268413029E+03  0.23426690868E+03  0.00000000000E+00 0.  1.
        -13    1    5    5    0    0 -0.12276726891E+03  0.73334108997E+03 -0.82728932343E+03  0.11123257532E+04  0.00000000000E+00 0. -1.
          4    1    6    6  503    0  0.60722576527E+02 -0.52321444303E+02  0.73107362083E+02  0.10848710165E+03  0.00000000000E+00 0. -1.
         -4    1    6    6    0  503  0.78468975107E+02  0.32040569598E+02  0.40309984941E+02  0.93855596745E+02  0.00000000000E+00 0.  1.
<mgrwt>
<rscale>  0 0.23319725E+04</rscale>
<asrwt>0</asrwt>
<pdfrwt beam="1">  1        2 0.13543481E+00 0.23319725E+04</pdfrwt>
<pdfrwt beam="2">  1       -1 0.23759091E+00 0.23319725E+04</pdfrwt>
<totfact> 0.26225547E+00</totfact>
</mgrwt>
</event>
<event>
12    7  0.1637954E-007  0.1088175E+04  0.7818608E-02  0.9216795E-01
         -1   -1    0    0    0  501 -0.00000000000E+00  0.00000000000E+00  0.21084269593E+03  0.21084269593E+03  0.00000000000E+00 0.  1.
          2   -1    0    0  501    0  0.00000000000E+00 -0.00000000000E+00 -0.14040380625E+04  0.14040380625E+04  0.00000000000E+00 0. -1.
         24    2    1    2    0    0  0.28107983908E+02 -0.16681376176E+02 -0.36073514828E+03  0.37283372489E+03  0.88356166398E+02 0.  0.
        254    2    1    2    0    0 -0.28107983908E+02  0.16681376176E+02 -0.83246021825E+03  0.12420470335E+04  0.92120708387E+03 0.  0.
         23    2    4    4    0    0  0.33251733706E+03  0.18009427823E+03 -0.72358249360E+03  0.82200808090E+03  0.95519273038E+02 0.  0.
         23    2    4    4    0    0 -0.36062532096E+03 -0.16341290205E+03 -0.10887772465E+03  0.42003895259E+03  0.88453174586E+02 0.  0.
          2    1    3    3  502    0  0.46139164222E+02 -0.11721247200E+02 -0.34535515428E+03  0.34862070033E+03  0.00000000000E+00 0. -1.
         -1    1    3    3    0  502 -0.18031180314E+02 -0.49601289760E+01 -0.15379994005E+02  0.24213024565E+02  0.00000000000E+00 0.  1.
         13    1    5    5    0    0  0.21932741196E+03  0.65441223392E+02 -0.43030078953E+03  0.48738674256E+03  0.00000000000E+00 0. -1.
        -13    1    5    5    0    0  0.11318992510E+03  0.11465305483E+03 -0.29328170408E+03  0.33462133834E+03  0.00000000000E+00 0.  1.
          3    1    6    6  503    0 -0.28878729403E+03 -0.12416514534E+03 -0.47930366307E+02  0.31798176760E+03  0.00000000000E+00 0. -1.
         -3    1    6    6    0  503 -0.71838026935E+02 -0.39247756710E+02 -0.60947358340E+02  0.10205718500E+03  0.00000000000E+00 0.  1.
<mgrwt>
<rscale>  0 0.10881749E+04</rscale>
<asrwt>0</asrwt>
<pdfrwt beam="1">  1        2 0.21600586E+00 0.10881749E+04</pdfrwt>
<pdfrwt beam="2">  1       -1 0.32437337E-01 0.10881749E+04</pdfrwt>
<totfact> 0.14471015E+02</totfact>
</mgrwt>
</event>
<event>
12    7  0.1637954E-007  0.1685270E+04  0.7818608E-02  0.8769810E-01
          2   -1    0    0  501    0  0.00000000000E+00  0.00000000000E+00  0.21237464987E+04  0.21237464987E+04  0.00000000000E+00 0. -1.
         -3   -1    0    0    0  501 -0.00000000000E+00 -0.00000000000E+00 -0.33433072169E+03  0.33433072169E+03  0.00000000000E+00 0.  1.
         24    2    1    2    0    0 -0.49808815635E+03  0.21706763106E+03  0.25504913851E+03  0.60566502217E+03  0.81054846094E+02 0.  0.
        254    2    1    2    0    0  0.49808815635E+03 -0.21706763106E+03  0.15343666385E+04  0.18524121982E+04  0.88427360180E+03 0.  0.
         23    2    4    4    0    0  0.22792613682E+03 -0.28995019441E+03  0.10696903875E+03  0.39499896726E+03  0.92522266532E+02 0.  0.
         23    2    4    4    0    0  0.27016201953E+03  0.72882563342E+02  0.14273975998E+04  0.14574132310E+04  0.91049619331E+02 0.  0.
          4    1    3    3  502    0 -0.18162259627E+03  0.76252278571E+02  0.50322630554E+02  0.20330652870E+03  0.00000000000E+00 0. -1.
         -1    1    3    3    0  502 -0.31646556007E+03  0.14081535249E+03  0.20472650795E+03  0.40235849347E+03  0.00000000000E+00 0.  1.
         13    1    5    5    0    0  0.18843732990E+03 -0.25143406841E+03  0.54563231635E+02  0.31891200088E+03  0.00000000000E+00 0. -1.
        -13    1    5    5    0    0  0.39488806912E+02 -0.38516125993E+02  0.52405807118E+02  0.76086966377E+02  0.00000000000E+00 0.  1.
          1    1    6    6  503    0  0.26522164573E+03  0.83429503137E+02  0.14041432432E+04  0.14314053411E+04  0.00000000000E+00 0. -1.
         -1    1    6    6    0  503  0.49403737999E+01 -0.10546939795E+02  0.23254356616E+02  0.26007889840E+02  0.00000000000E+00 0.  1.
<mgrwt>
<rscale>  0 0.16852699E+04</rscale>
<asrwt>0</asrwt>
<pdfrwt beam="1">  1        2 0.32673022E+00 0.16852699E+04</pdfrwt>
<pdfrwt beam="2">  1       -3 0.51435497E-01 0.16852699E+04</pdfrwt>
<totfact> 0.13067807E+01</totfact>
</mgrwt>
</event>
<event>
12    7  0.1637954E-007  0.2099361E+04  0.7818608E-02  0.8561525E-01
          2   -1    0    0  501    0  0.00000000000E+00  0.00000000000E+00  0.21284487788E+04  0.21284487788E+04  0.00000000000E+00 0. -1.
         -1   -1    0    0    0  501 -0.00000000000E+00 -0.00000000000E+00 -0.51766744677E+03  0.51766744677E+03  0.00000000000E+00 0.  1.
         24    2    1    2    0    0  0.61150153759E+03 -0.23954317399E+03 -0.19168683651E+02  0.66176563888E+03  0.79064908101E+02 0.  0.
        254    2    1    2    0    0 -0.61150153759E+03  0.23954317399E+03  0.16299500157E+04  0.19843505867E+04  0.92173485047E+03 0.  0.
         23    2    4    4    0    0 -0.36470674149E+03  0.23367683163E+03  0.16618589388E+04  0.17197464009E+04  0.90203559659E+02 0.  0.
         23    2    4    4    0    0 -0.24679479609E+03  0.58663423602E+01 -0.31908923093E+02  0.26460418576E+03  0.89750266836E+02 0.  0.
          4    1    3    3  502    0  0.48392218574E+02 -0.15012289060E+02 -0.22730079303E+02  0.55532262213E+02  0.00000000000E+00 0. -1.
         -3    1    3    3    0  502  0.56310931901E+03 -0.22453088493E+03  0.35613956516E+01  0.60623337667E+03  0.00000000000E+00 0.  1.
         13    1    5    5    0    0 -0.36010048589E+03  0.23955479405E+03  0.15995289809E+04  0.16569706757E+04  0.00000000000E+00 0.  1.
        -13    1    5    5    0    0 -0.46062556052E+01 -0.58779624152E+01  0.62329957829E+02  0.62775725211E+02  0.00000000000E+00 0. -1.
          2    1    6    6  503    0 -0.68210060218E+02  0.62423963648E+01  0.31106119384E+02  0.75227458354E+02  0.00000000000E+00 0. -1.
         -2    1    6    6    0  503 -0.17858473587E+03 -0.37605400458E+00 -0.63015042478E+02  0.18937672740E+03  0.00000000000E+00 0.  1.
<mgrwt>
<rscale>  0 0.20993605E+04</rscale>
<asrwt>0</asrwt>
<pdfrwt beam="1">  1        2 0.32745365E+00 0.20993605E+04</pdfrwt>
<pdfrwt beam="2">  1       -1 0.79641147E-01 0.20993605E+04</pdfrwt>
<totfact> 0.93580309E+00</totfact>
</mgrwt>
</event>
<event>
12    7  0.1637954E-007  0.1806173E+04  0.7818608E-02  0.8703024E-01
          2   -1    0    0  501    0  0.00000000000E+00  0.00000000000E+00  0.18159917319E+04  0.18159917319E+04  0.00000000000E+00 0. -1.
         -1   -1    0    0    0  501 -0.00000000000E+00 -0.00000000000E+00 -0.44910176318E+03  0.44910176318E+03  0.00000000000E+00 0.  1.
         24    2    1    2    0    0  0.99330938100E+02  0.51539867859E+03 -0.62250189474E+01  0.53131477960E+03  0.82184007006E+02 0.  0.
        254    2    1    2    0    0 -0.99330938100E+02 -0.51539867859E+03  0.13731149877E+04  0.17337787155E+04  0.91926135115E+03 0.  0.
         23    2    4    4    0    0  0.33962210959E+03 -0.10984885398E+03  0.87827776494E+03  0.95243892526E+03  0.91422786721E+02 0.  0.
         23    2    4    4    0    0 -0.43895304769E+03 -0.40554982461E+03  0.49483722273E+03  0.78133979022E+03  0.92073625190E+02 0.  0.
          2    1    3    3  502    0  0.90225924363E+02  0.45692859971E+03 -0.31830056471E+02  0.46683788959E+03  0.00000000000E+00 0. -1.
         -1    1    3    3    0  502  0.91050137370E+01  0.58470078878E+02  0.25605037524E+02  0.64476890013E+02  0.00000000000E+00 0.  1.
         13    1    5    5    0    0  0.78368076359E+02 -0.68015809970E+02  0.25836427714E+03  0.27842378760E+03  0.00000000000E+00 0. -1.
        -13    1    5    5    0    0  0.26125403323E+03 -0.41833044009E+02  0.61991348779E+03  0.67401513766E+03  0.00000000000E+00 0.  1.
          1    1    6    6  503    0 -0.29808350399E+03 -0.32870247903E+03  0.37686075133E+03  0.58217104099E+03  0.00000000000E+00 0. -1.
         -1    1    6    6    0  503 -0.14086954369E+03 -0.76847345576E+02  0.11797647141E+03  0.19916874923E+03  0.00000000000E+00 0.  1.
<mgrwt>
<rscale>  0 0.18061728E+04</rscale>
<asrwt>0</asrwt>
<pdfrwt beam="1">  1        2 0.27938334E+00 0.18061728E+04</pdfrwt>
<pdfrwt beam="2">  1       -1 0.69092580E-01 0.18061728E+04</pdfrwt>
<totfact> 0.19254579E+01</totfact>
</mgrwt>
</event>
<event>
12    7  0.1637954E-007  0.1218653E+04  0.7818608E-02  0.9096684E-01
          2   -1    0    0  501    0  0.00000000000E+00  0.00000000000E+00  0.41959238569E+03  0.41959238569E+03  0.00000000000E+00 0. -1.
         -1   -1    0    0    0  501 -0.00000000000E+00 -0.00000000000E+00 -0.88485600344E+03  0.88485600344E+03  0.00000000000E+00 0.  1.
         24    2    1    2    0    0 -0.23709668145E+03  0.70129723905E+02  0.18654992409E+00  0.25915205619E+03  0.77632073873E+02 0.  0.
        254    2    1    2    0    0  0.23709668145E+03 -0.70129723905E+02 -0.46545016767E+03  0.10452963329E+04  0.90270014432E+03 0.  0.
         23    2    4    4    0    0 -0.19888751429E+03  0.25164730785E+03 -0.11540465910E+02  0.33284942044E+03  0.88164297995E+02 0.  0.
         23    2    4    4    0    0  0.43598419574E+03 -0.32177703176E+03 -0.45390970176E+03  0.71244691251E+03  0.89016339417E+02 0.  0.
          2    1    3    3  502    0 -0.15730389229E+03  0.48865233098E+02  0.36867076834E+02  0.16879427386E+03  0.00000000000E+00 0. -1.
         -1    1    3    3    0  502 -0.79792789169E+02  0.21264490807E+02 -0.36680526910E+02  0.90357782327E+02  0.00000000000E+00 0.  1.
         13    1    5    5    0    0 -0.17479051727E+03  0.18625195029E+03 -0.38132311291E+02  0.25825488781E+03  0.00000000000E+00 0. -1.
        -13    1    5    5    0    0 -0.24096997014E+02  0.65395357567E+02  0.26591845382E+02  0.74594532623E+02  0.00000000000E+00 0.  1.
          4    1    6    6  503    0  0.34577399431E+03 -0.21832266299E+03 -0.30664041749E+03  0.51112893281E+03  0.00000000000E+00 0. -1.
         -4    1    6    6    0  503  0.90210201432E+02 -0.10345436877E+03 -0.14726928427E+03  0.20131797970E+03  0.00000000000E+00 0.  1.
<mgrwt>
<rscale>  0 0.12186531E+04</rscale>
<asrwt>0</asrwt>
<pdfrwt beam="1">  1        2 0.64552675E-01 0.12186531E+04</pdfrwt>
<pdfrwt beam="2">  1       -1 0.13613169E+00 0.12186531E+04</pdfrwt>
<totfact> 0.38308621E+01</totfact>
</mgrwt>
</event>
<event>
12    7  0.1637954E-007  0.1954655E+04  0.7818608E-02  0.8628119E-01
          2   -1    0    0  501    0  0.00000000000E+00  0.00000000000E+00  0.19185224883E+04  0.19185224883E+04  0.00000000000E+00 0. -1.
         -1   -1    0    0    0  501 -0.00000000000E+00 -0.00000000000E+00 -0.49786722294E+03  0.49786722294E+03  0.00000000000E+00 0.  1.
         24    2    1    2    0    0 -0.12172178194E+02 -0.75050483152E+03  0.76348346521E+03  0.10755074319E+04  0.10199789346E+03 0.  0.
        254    2    1    2    0    0  0.12172178194E+02  0.75050483152E+03  0.65717180013E+03  0.13408822794E+04  0.89592680960E+03 0.  0.
         23    2    4    4    0    0 -0.38693297927E+03  0.34238606015E+03  0.92354725041E+02  0.53276174536E+03  0.91434880953E+02 0.  0.
         23    2    4    4    0    0  0.39910515746E+03  0.40811877137E+03  0.56481707509E+03  0.80812053400E+03  0.90524090188E+02 0.  0.
          4    1    3    3  502    0  0.50760559710E+01 -0.58389063708E+03  0.53308154127E+03  0.79065161232E+03  0.00000000000E+00 0. -1.
         -3    1    3    3    0  502 -0.17248234165E+02 -0.16661419444E+03  0.23040192394E+03  0.28485581954E+03  0.00000000000E+00 0.  1.
         13    1    5    5    0    0 -0.12422616373E+03  0.90408846091E+02  0.67746940833E+02  0.16791529769E+03  0.00000000000E+00 0.  1.
        -13    1    5    5    0    0 -0.26270681554E+03  0.25197721406E+03  0.24607784208E+02  0.36484644767E+03  0.00000000000E+00 0. -1.
          2    1    6    6  503    0  0.31989232829E+03  0.31762305321E+03  0.39091570575E+03  0.59668299342E+03  0.00000000000E+00 0. -1.
         -2    1    6    6    0  503  0.79212829167E+02  0.90495718159E+02  0.17390136933E+03  0.21143754058E+03  0.00000000000E+00 0.  1.
<mgrwt>
<rscale>  0 0.19546554E+04</rscale>
<asrwt>0</asrwt>
<pdfrwt beam="1">  1        2 0.29515730E+00 0.19546554E+04</pdfrwt>
<pdfrwt beam="2">  1       -1 0.76594958E-01 0.19546554E+04</pdfrwt>
<totfact> 0.13468277E+01</totfact>
</mgrwt>
</event>
<event>
12    7  0.1637954E-007  0.1389555E+04  0.7818608E-02  0.8961414E-01
          2   -1    0    0  501    0  0.00000000000E+00  0.00000000000E+00  0.46872128125E+03  0.46872128125E+03  0.00000000000E+00 0. -1.
         -1   -1    0    0    0  501 -0.00000000000E+00 -0.00000000000E+00 -0.10298566989E+04  0.10298566989E+04  0.00000000000E+00 0.  1.
         24    2    1    2    0    0 -0.11049027983E+03  0.17737992787E+03 -0.52583694915E+03  0.57120808421E+03  0.78118100489E+02 0.  0.
        254    2    1    2    0    0  0.11049027983E+03 -0.17737992787E+03 -0.35298468459E+02  0.92736989591E+03  0.90282733743E+03 0.  0.
         23    2    4    4    0    0  0.42777013571E+03 -0.32680840619E+03 -0.11164906922E+03  0.55773477188E+03  0.93869791415E+02 0.  0.
         23    2    4    4    0    0 -0.31727985588E+03  0.14942847832E+03  0.76350600765E+02  0.36963512402E+03  0.88347799031E+02 0.  0.
          2    1    3    3  502    0 -0.22920432026E+02  0.86892665426E+02 -0.29339607891E+03  0.30685002954E+03  0.00000000000E+00 0. -1.
         -3    1    3    3    0  502 -0.87569847807E+02  0.90487262443E+02 -0.23244087024E+03  0.26435805467E+03  0.00000000000E+00 0.  1.
         13    1    5    5    0    0  0.13384827690E+03 -0.65231261200E+02 -0.58934109500E+00  0.14889871050E+03  0.00000000000E+00 0. -1.
        -13    1    5    5    0    0  0.29392185882E+03 -0.26157714499E+03 -0.11105972813E+03  0.40883606138E+03  0.00000000000E+00 0.  1.
          4    1    6    6  503    0  0.51055342058E+01  0.53792355993E+01  0.61177900218E+01  0.96140527308E+01  0.00000000000E+00 0. -1.
         -4    1    6    6    0  503 -0.32238539008E+03  0.14404924273E+03  0.70232810743E+02  0.36002107129E+03  0.00000000000E+00 0.  1.
<mgrwt>
<rscale>  0 0.13895550E+04</rscale>
<asrwt>0</asrwt>
<pdfrwt beam="1">  1        2 0.72110968E-01 0.13895550E+04</pdfrwt>
<pdfrwt beam="2">  1       -1 0.15843949E+00 0.13895550E+04</pdfrwt>
<totfact> 0.22203805E+01</totfact>
</mgrwt>
</event>
<event>
12    7  0.1637954E-007  0.1883548E+04  0.7818608E-02  0.8663089E-01
         -3   -1    0    0    0  501 -0.00000000000E+00  0.00000000000E+00  0.46867659286E+03  0.46867659286E+03  0.00000000000E+00 0.  1.
          4   -1    0    0  501    0  0.00000000000E+00 -0.00000000000E+00 -0.18924316579E+04  0.18924316579E+04  0.00000000000E+00 0. -1.
         24    2    1    2    0    0 -0.58251431446E+03  0.81854081622E+02 -0.10704900100E+04  0.12240961910E+04  0.80247156030E+02 0.  0.
        254    2    1    2    0    0  0.58251431446E+03 -0.81854081622E+02 -0.35326505502E+03  0.11370120598E+04  0.90662958683E+03 0.  0.
         23    2    4    4    0    0 -0.84589848669E+02  0.13512714034E+03  0.17517391230E+03  0.25450154897E+03  0.93114726690E+02 0.  0.
         23    2    4    4    0    0  0.66710416313E+03 -0.21698122196E+03 -0.52843896732E+03  0.88251051079E+03  0.86419004481E+02 0.  0.
          4    1    3    3  502    0 -0.44567834099E+03  0.81162056624E+02 -0.75962723149E+03  0.88444897755E+03  0.00000000000E+00 0. -1.
         -3    1    3    3    0  502 -0.13683597347E+03  0.69202499808E+00 -0.31086277852E+03  0.33964721345E+03  0.00000000000E+00 0.  1.
         13    1    5    5    0    0 -0.14850071362E+02  0.10464204680E+03  0.12327325645E+03  0.16237850330E+03  0.00000000000E+00 0.  1.
        -13    1    5    5    0    0 -0.69739777307E+02  0.30485093536E+02  0.51900655850E+02  0.92123045675E+02  0.00000000000E+00 0. -1.
          3    1    6    6  503    0  0.19653606436E+03 -0.25438640103E+02 -0.13249141164E+03  0.23838524108E+03  0.00000000000E+00 0. -1.
         -3    1    6    6    0  503  0.47056809877E+03 -0.19154258185E+03 -0.39594755568E+03  0.64412526972E+03  0.00000000000E+00 0.  1.
<mgrwt>
<rscale>  0 0.18835482E+04</rscale>
<asrwt>0</asrwt>
<pdfrwt beam="1">  1        4 0.29114333E+00 0.18835482E+04</pdfrwt>
<pdfrwt beam="2">  1       -3 0.72104092E-01 0.18835482E+04</pdfrwt>
<totfact> 0.13760016E-01</totfact>
</mgrwt>
</event>
<event>
12    7  0.1637954E-007  0.1098983E+04  0.7818608E-02  0.9206183E-01
          2   -1    0    0  501    0  0.00000000000E+00  0.00000000000E+00  0.45146294501E+03  0.45146294501E+03  0.00000000000E+00 0. -1.
         -1   -1    0    0    0  501 -0.00000000000E+00 -0.00000000000E+00 -0.66880579049E+03  0.66880579049E+03  0.00000000000E+00 0.  1.
         24    2    1    2    0    0  0.15238492971E+03  0.84519588110E+02 -0.37426822339E+02  0.19364488349E+03  0.75715561775E+02 0.  0.
        254    2    1    2    0    0 -0.15238492971E+03 -0.84519588110E+02 -0.17991602314E+03  0.92662385200E+03  0.89213074162E+03 0.  0.
         23    2    4    4    0    0  0.32537532845E+03 -0.10030759708E+03  0.97601030055E+02  0.36693533341E+03  0.95837672323E+02 0.  0.
         23    2    4    4    0    0 -0.47776025817E+03  0.15788008972E+02 -0.27751705319E+03  0.55968851860E+03  0.87928365880E+02 0.  0.
          4    1    3    3  502    0  0.12225201882E+03  0.97426791145E+02 -0.23723123902E+02  0.15811490236E+03  0.00000000000E+00 0. -1.
         -3    1    3    3    0  502  0.30132910890E+02 -0.12907203034E+02 -0.13703698437E+02  0.35529981139E+02  0.00000000000E+00 0.  1.
         13    1    5    5    0    0  0.11146642566E+03 -0.71884465641E+02  0.68232451724E+02  0.14915699084E+03  0.00000000000E+00 0. -1.
        -13    1    5    5    0    0  0.21390890280E+03 -0.28423131441E+02  0.29368578331E+02  0.21777834256E+03  0.00000000000E+00 0.  1.
          4    1    6    6  503    0 -0.28767084752E+03  0.47706349361E+02 -0.14404891786E+03  0.32523914742E+03  0.00000000000E+00 0. -1.
         -4    1    6    6    0  503 -0.19008941065E+03 -0.31918340389E+02 -0.13346813533E+03  0.23444937118E+03  0.00000000000E+00 0.  1.
<mgrwt>
<rscale>  0 0.10989832E+04</rscale>
<asrwt>0</asrwt>
<pdfrwt beam="1">  1        2 0.69455837E-01 0.10989832E+04</pdfrwt>
<pdfrwt beam="2">  1       -1 0.10289320E+00 0.10989832E+04</pdfrwt>
<totfact> 0.70286150E+01</totfact>
</mgrwt>
</event>
<event>
12    7  0.1637954E-007  0.1372640E+04  0.7818608E-02  0.8973865E-01
          2   -1    0    0  501    0  0.00000000000E+00  0.00000000000E+00  0.90588008761E+03  0.90588008761E+03  0.00000000000E+00 0. -1.
         -1   -1    0    0    0  501 -0.00000000000E+00 -0.00000000000E+00 -0.51997499834E+03  0.51997499834E+03  0.00000000000E+00 0.  1.
         24    2    1    2    0    0  0.28941796585E+03 -0.22260252948E+02 -0.15262657833E+03  0.33745376620E+03  0.79510339501E+02 0.  0.
        254    2    1    2    0    0 -0.28941796585E+03  0.22260252948E+02  0.53853166759E+03  0.10884013198E+04  0.90019042320E+03 0.  0.
         23    2    4    4    0    0 -0.28647964436E+03  0.42016870224E+03  0.18837276648E+03  0.55046152750E+03  0.94399518712E+02 0.  0.
         23    2    4    4    0    0 -0.29383214933E+01 -0.39790844929E+03  0.35015890111E+03  0.53793979226E+03  0.91805208550E+02 0.  0.
          4    1    3    3  502    0  0.97074689596E+01  0.12984716329E+01  0.92076286551E+01  0.13442522369E+02  0.00000000000E+00 0. -1.
         -3    1    3    3    0  502  0.27971049689E+03 -0.23558724581E+02 -0.16183420698E+03  0.32401124383E+03  0.00000000000E+00 0.  1.
         13    1    5    5    0    0 -0.15364825064E+03  0.14460692281E+03  0.86514289433E+02  0.22804313041E+03  0.00000000000E+00 0.  1.
        -13    1    5    5    0    0 -0.13283139372E+03  0.27556177942E+03  0.10185847705E+03  0.32241839709E+03  0.00000000000E+00 0. -1.
          4    1    6    6  503    0 -0.15232855719E+02 -0.12986717450E+03  0.63728048568E+02  0.14546060319E+03  0.00000000000E+00 0. -1.
         -4    1    6    6    0  503  0.12294534225E+02 -0.26804127479E+03  0.28643085254E+03  0.39247918907E+03  0.00000000000E+00 0.  1.
<mgrwt>
<rscale>  0 0.13726398E+04</rscale>
<asrwt>0</asrwt>
<pdfrwt beam="1">  1        2 0.13936617E+00 0.13726398E+04</pdfrwt>
<pdfrwt beam="2">  1       -1 0.79996154E-01 0.13726398E+04</pdfrwt>
<totfact> 0.50462380E+01</totfact>
</mgrwt>
</event>
<event>
12    7  0.1637954E-007  0.1731390E+04  0.7818608E-02  0.8743661E-01
         -1   -1    0    0    0  501 -0.00000000000E+00  0.00000000000E+00  0.38207736378E+03  0.38207736378E+03  0.00000000000E+00 0.  1.
          2   -1    0    0  501    0  0.00000000000E+00 -0.00000000000E+00 -0.19614561656E+04  0.19614561656E+04  0.00000000000E+00 0. -1.
         24    2    1    2    0    0  0.20437005602E+03  0.57698546645E+03 -0.39683075357E+03  0.73400791279E+03  0.81324170891E+02 0.  0.
        254    2    1    2    0    0 -0.20437005602E+03 -0.57698546645E+03 -0.11825480483E+04  0.16095256166E+04  0.90414239795E+03 0.  0.
         23    2    4    4    0    0 -0.11833716265E+03 -0.20101387308E+03  0.95721031254E+02  0.27128481752E+03  0.10011331159E+03 0.  0.
         23    2    4    4    0    0 -0.86032893369E+02 -0.37597159336E+03 -0.12782690795E+04  0.13382407991E+04  0.90334372838E+02 0.  0.
          2    1    3    3  502    0  0.90408439703E+02  0.15589774835E+03 -0.13563446989E+03  0.22555377038E+03  0.00000000000E+00 0. -1.
         -1    1    3    3    0  502  0.11396161631E+03  0.42108771810E+03 -0.26119628367E+03  0.50845414241E+03  0.00000000000E+00 0.  1.
         13    1    5    5    0    0 -0.25304224363E+01 -0.10036264313E+03  0.38932679574E+02  0.10767923065E+03  0.00000000000E+00 0. -1.
        -13    1    5    5    0    0 -0.11580674021E+03 -0.10065122995E+03  0.56788351680E+02  0.16360558687E+03  0.00000000000E+00 0.  1.
          3    1    6    6  503    0 -0.57013444632E+02 -0.19500694205E+03 -0.81727941610E+03  0.84215431145E+03  0.00000000000E+00 0. -1.
         -3    1    6    6    0  503 -0.29019448736E+02 -0.18096465131E+03 -0.46098966342E+03  0.49608648763E+03  0.00000000000E+00 0.  1.
<mgrwt>
<rscale>  0 0.17313902E+04</rscale>
<asrwt>0</asrwt>
<pdfrwt beam="1">  1        2 0.30176248E+00 0.17313902E+04</pdfrwt>
<pdfrwt beam="2">  1       -1 0.58781134E-01 0.17313902E+04</pdfrwt>
<totfact> 0.22259808E+01</totfact>
</mgrwt>
</event>
<event>
12    7  0.1637954E-007  0.1564543E+04  0.7818608E-02  0.8842631E-01
          2   -1    0    0  501    0  0.00000000000E+00  0.00000000000E+00  0.51473589469E+03  0.51473589469E+03  0.00000000000E+00 0. -1.
         -1   -1    0    0    0  501 -0.00000000000E+00 -0.00000000000E+00 -0.11888600616E+04  0.11888600616E+04  0.00000000000E+00 0.  1.
         24    2    1    2    0    0  0.21048141408E+03  0.42907229904E+03 -0.73707334288E+01  0.48478712456E+03  0.80986202250E+02 0.  0.
        254    2    1    2    0    0 -0.21048141408E+03 -0.42907229904E+03 -0.66675343352E+03  0.12188088318E+04  0.90140410684E+03 0.  0.
         23    2    4    4    0    0 -0.40346892946E+03  0.59190382593E+02 -0.51585958896E+03  0.66458651303E+03  0.96298698557E+02 0.  0.
         23    2    4    4    0    0  0.19298751539E+03 -0.48826268163E+03 -0.15089384456E+03  0.55422231875E+03  0.93535014305E+02 0.  0.
          2    1    3    3  502    0  0.21471637759E+03  0.38876804437E+03 -0.92475548035E+01  0.44421755075E+03  0.00000000000E+00 0. -1.
         -1    1    3    3    0  502 -0.42349635134E+01  0.40304254668E+02  0.18768213747E+01  0.40569573806E+02  0.00000000000E+00 0.  1.
         13    1    5    5    0    0 -0.27967028838E+03  0.85070878251E+02 -0.35040027152E+03  0.45632540452E+03  0.00000000000E+00 0.  1.
        -13    1    5    5    0    0 -0.12379864109E+03 -0.25880495658E+02 -0.16545931744E+03  0.20826110851E+03  0.00000000000E+00 0. -1.
          2    1    6    6  503    0  0.13478143381E+02 -0.57490056590E+00 -0.20056964930E+01  0.13638683151E+02  0.00000000000E+00 0. -1.
         -2    1    6    6    0  503  0.17950937201E+03 -0.48768778106E+03 -0.14888814807E+03  0.54058363559E+03  0.00000000000E+00 0.  1.
<mgrwt>
<rscale>  0 0.15645433E+04</rscale>
<asrwt>0</asrwt>
<pdfrwt beam="1">  1        2 0.79190138E-01 0.15645433E+04</pdfrwt>
<pdfrwt beam="2">  1       -1 0.18290155E+00 0.15645433E+04</pdfrwt>
<totfact> 0.12977121E+01</totfact>
</mgrwt>
</event>
<event>
12    7  0.1637954E-007  0.2082436E+04  0.7818608E-02  0.8569020E-01
          2   -1    0    0  501    0  0.00000000000E+00  0.00000000000E+00  0.18858324877E+04  0.18858324877E+04  0.00000000000E+00 0. -1.
         -1   -1    0    0    0  501 -0.00000000000E+00 -0.00000000000E+00 -0.57488382861E+03  0.57488382861E+03  0.00000000000E+00 0.  1.
         24    2    1    2    0    0 -0.26631488512E+03  0.51068018325E+03  0.12669432519E+04  0.13940570980E+04  0.80821540270E+02 0.  0.
        254    2    1    2    0    0  0.26631488512E+03 -0.51068018325E+03  0.44005407196E+02  0.10666592183E+04  0.89672043834E+03 0.  0.
         23    2    4    4    0    0  0.14442427800E+03 -0.73458736937E+01 -0.36342367857E+03  0.40150881061E+03  0.90665433933E+02 0.  0.
         23    2    4    4    0    0  0.12189060711E+03 -0.50333430956E+03  0.40742908577E+03  0.66515040770E+03  0.90685487539E+02 0.  0.
          2    1    3    3  502    0 -0.14405891395E+03  0.30683078428E+03  0.65368484068E+03  0.73634365062E+03  0.00000000000E+00 0. -1.
         -1    1    3    3    0  502 -0.12225597117E+03  0.20384939897E+03  0.61325841120E+03  0.65771344737E+03  0.00000000000E+00 0.  1.
         13    1    5    5    0    0  0.60869328313E+02 -0.12800741047E+02 -0.58827152867E+02  0.85612896313E+02  0.00000000000E+00 0.  1.
        -13    1    5    5    0    0  0.83554949692E+02  0.54548673538E+01 -0.30459652570E+03  0.31589591429E+03  0.00000000000E+00 0. -1.
          1    1    6    6  503    0  0.12962657631E+03 -0.41168203619E+03  0.35784348929E+03  0.56065774857E+03  0.00000000000E+00 0. -1.
         -1    1    6    6    0  503 -0.77359691982E+01 -0.91652273367E+02  0.49585596479E+02  0.10449265913E+03  0.00000000000E+00 0.  1.
<mgrwt>
<rscale>  0 0.20824357E+04</rscale>
<asrwt>0</asrwt>
<pdfrwt beam="1">  1        2 0.29012807E+00 0.20824357E+04</pdfrwt>
<pdfrwt beam="2">  1       -1 0.88443667E-01 0.20824357E+04</pdfrwt>
<totfact> 0.10198227E+01</totfact>
</mgrwt>
</event>
<event>
12    7  0.1637954E-007  0.1671853E+04  0.7818608E-02  0.8777582E-01
          2   -1    0    0  501    0  0.00000000000E+00  0.00000000000E+00  0.27619727627E+04  0.27619727627E+04  0.00000000000E+00 0. -1.
         -1   -1    0    0    0  501 -0.00000000000E+00 -0.00000000000E+00 -0.25299787956E+03  0.25299787956E+03  0.00000000000E+00 0.  1.
         24    2    1    2    0    0 -0.14747843257E+03  0.42942309381E+03  0.21038522472E+03  0.50751298984E+03  0.84577837011E+02 0.  0.
        254    2    1    2    0    0  0.14747843257E+03 -0.42942309381E+03  0.22985896584E+04  0.25074576524E+04  0.89312674314E+03 0.  0.
         23    2    4    4    0    0 -0.19282338129E+03 -0.99035987756E+02  0.17924645412E+04  0.18077339233E+04  0.89352239254E+02 0.  0.
         23    2    4    4    0    0  0.34030181385E+03 -0.33038710605E+03  0.50612511716E+03  0.69972372909E+03  0.92139559750E+02 0.  0.
          2    1    3    3  502    0 -0.10476311530E+03  0.31428578407E+03  0.19321238140E+03  0.38351256658E+03  0.00000000000E+00 0. -1.
         -1    1    3    3    0  502 -0.42715317264E+02  0.11513730973E+03  0.17172843315E+02  0.12400042326E+03  0.00000000000E+00 0.  1.
         13    1    5    5    0    0 -0.99515958332E+02 -0.37291724229E+02  0.54521318373E+03  0.55547413474E+03  0.00000000000E+00 0.  1.
        -13    1    5    5    0    0 -0.93307422957E+02 -0.61744263527E+02  0.12472513575E+04  0.12522597886E+04  0.00000000000E+00 0. -1.
          3    1    6    6  503    0  0.22657997999E+03 -0.19304834925E+03  0.37291148812E+03  0.47714686466E+03  0.00000000000E+00 0.  1.
         -3    1    6    6    0  503  0.11372183387E+03 -0.13733875680E+03  0.13321362904E+03  0.22257686443E+03  0.00000000000E+00 0. -1.
<mgrwt>
<rscale>  0 0.16718532E+04</rscale>
<asrwt>0</asrwt>
<pdfrwt beam="1">  1        2 0.42491887E+00 0.16718532E+04</pdfrwt>
<pdfrwt beam="2">  1       -1 0.38922753E-01 0.16718532E+04</pdfrwt>
<totfact> 0.17006395E+01</totfact>
</mgrwt>
</event>
<event>
12    7  0.1869292E-007  0.1596745E+04  0.7818608E-02  0.8822550E-01
         -3   -1    0    0    0  501 -0.00000000000E+00  0.00000000000E+00  0.48770651372E+03  0.48770651372E+03  0.00000000000E+00 0.  1.
          4   -1    0    0  501    0  0.00000000000E+00 -0.00000000000E+00 -0.13069301821E+04  0.13069301821E+04  0.00000000000E+00 0. -1.
         24    2    1    2    0    0 -0.26402843879E+03 -0.26028422000E+03 -0.72659099203E+03  0.81961245166E+03  0.79819856807E+02 0.  0.
        254    2    1    2    0    0  0.26402843879E+03  0.26028422000E+03 -0.92632676377E+02  0.97502424419E+03  0.89701313945E+03 0.  0.
         23    2    4    4    0    0 -0.11687030530E+02 -0.18508579847E+03  0.26346893011E+03  0.33499295027E+03  0.91711831956E+02 0.  0.
         23    2    4    4    0    0  0.27571546932E+03  0.44537001847E+03 -0.35610160649E+03  0.64003129392E+03  0.91968634208E+02 0.  0.
          2    1    3    3  502    0 -0.24444057104E+03 -0.23055085818E+03 -0.59535153223E+03  0.68362880126E+03  0.00000000000E+00 0. -1.
         -1    1    3    3    0  502 -0.19587867753E+02 -0.29733361828E+02 -0.13123945980E+03  0.13598365040E+03  0.00000000000E+00 0.  1.
         13    1    5    5    0    0  0.11980190202E+01  0.83539482934E+01  0.73015717176E+00  0.84709403939E+01  0.00000000000E+00 0.  1.
        -13    1    5    5    0    0 -0.12885049550E+02 -0.19343974676E+03  0.26273877294E+03  0.32652200988E+03  0.00000000000E+00 0. -1.
          1    1    6    6  503    0  0.10336561399E+03  0.11176112581E+03 -0.67937421883E+02  0.16670480704E+03  0.00000000000E+00 0. -1.
         -1    1    6    6    0  503  0.17234985534E+03  0.33360889266E+03 -0.28816418460E+03  0.47332648688E+03  0.00000000000E+00 0.  1.
<mgrwt>
<rscale>  0 0.15967446E+04</rscale>
<asrwt>0</asrwt>
<pdfrwt beam="1">  1        4 0.20106618E+00 0.15967446E+04</pdfrwt>
<pdfrwt beam="2">  1       -3 0.75031771E-01 0.15967446E+04</pdfrwt>
<totfact> 0.47573983E-01</totfact>
</mgrwt>
</event>
<event>
12    7  0.1637954E-007  0.1253818E+04  0.7818608E-02  0.9067012E-01
          2   -1    0    0  501    0  0.00000000000E+00  0.00000000000E+00  0.13628139433E+04  0.13628139433E+04  0.00000000000E+00 0. -1.
         -1   -1    0    0    0  501 -0.00000000000E+00 -0.00000000000E+00 -0.28838467636E+03  0.28838467636E+03  0.00000000000E+00 0.  1.
         24    2    1    2    0    0 -0.13680931667E+03  0.12757206727E+03  0.55903449528E+03  0.59486938713E+03  0.79740826149E+02 0.  0.
        254    2    1    2    0    0  0.13680931667E+03 -0.12757206727E+03  0.51539477169E+03  0.10563292326E+04  0.90288883890E+03 0.  0.
         23    2    4    4    0    0 -0.76973303619E+02 -0.39876041985E+03 -0.13909562273E+02  0.41673832685E+03  0.92426160995E+02 0.  0.
         23    2    4    4    0    0  0.21378262029E+03  0.27118835258E+03  0.52930433397E+03  0.63959090571E+03  0.98322517255E+02 0.  0.
          4    1    3    3  502    0 -0.94398104119E+02  0.12360299909E+03  0.48646478993E+03  0.51072173958E+03  0.00000000000E+00 0. -1.
         -3    1    3    3    0  502 -0.42411212553E+02  0.39690681831E+01  0.72569705355E+02  0.84147647548E+02  0.00000000000E+00 0.  1.
         13    1    5    5    0    0 -0.23435647762E+02 -0.25949920394E+03 -0.44793514259E+02  0.26437761885E+03  0.00000000000E+00 0. -1.
        -13    1    5    5    0    0 -0.53537655858E+02 -0.13926121591E+03  0.30883951986E+02  0.15236070800E+03  0.00000000000E+00 0.  1.
          3    1    6    6  503    0  0.10664859665E+03  0.16975616136E+03  0.22466474893E+03  0.30110683635E+03  0.00000000000E+00 0. -1.
         -3    1    6    6    0  503  0.10713402364E+03  0.10143219122E+03  0.30463958504E+03  0.33848406936E+03  0.00000000000E+00 0.  1.
<mgrwt>
<rscale>  0 0.12538176E+04</rscale>
<asrwt>0</asrwt>
<pdfrwt beam="1">  1        2 0.20966368E+00 0.12538176E+04</pdfrwt>
<pdfrwt beam="2">  1       -1 0.44366874E-01 0.12538176E+04</pdfrwt>
<totfact> 0.85625033E+01</totfact>
</mgrwt>
</event>
<event>
12    7  0.1637954E-007  0.1271492E+04  0.7818608E-02  0.9052483E-01
         -1   -1    0    0    0  501 -0.00000000000E+00  0.00000000000E+00  0.21730163292E+03  0.21730163292E+03  0.00000000000E+00 0.  1.
          2   -1    0    0  501    0  0.00000000000E+00 -0.00000000000E+00 -0.18599635691E+04  0.18599635691E+04  0.00000000000E+00 0. -1.
         24    2    1    2    0    0  0.24295960971E+03  0.11454325225E+02 -0.81097456020E+02  0.26765591346E+03  0.76826539176E+02 0.  0.
        254    2    1    2    0    0 -0.24295960971E+03 -0.11454325225E+02 -0.15615644801E+04  0.18096092885E+04  0.88149961884E+03 0.  0.
         23    2    4    4    0    0 -0.51031822335E+03 -0.25535248862E+02 -0.13773706027E+04  0.14718812263E+04  0.90597070944E+02 0.  0.
         23    2    4    4    0    0  0.26735861363E+03  0.14080923637E+02 -0.18419387745E+03  0.33772806220E+03  0.91945412144E+02 0.  0.
          2    1    3    3  502    0  0.17070937913E+02 -0.18717090367E+02  0.11887380322E+01  0.25360589330E+02  0.00000000000E+00 0. -1.
         -1    1    3    3    0  502  0.22588867180E+03  0.30171415592E+02 -0.82286194052E+02  0.24229532413E+03  0.00000000000E+00 0.  1.
         13    1    5    5    0    0 -0.16205627571E+03 -0.40737467562E+02 -0.37245638761E+03  0.40822241295E+03  0.00000000000E+00 0.  1.
        -13    1    5    5    0    0 -0.34826194764E+03  0.15202218701E+02 -0.10049142151E+04  0.10636588134E+04  0.00000000000E+00 0. -1.
          1    1    6    6  503    0  0.96124404012E+02 -0.34466759759E+02 -0.44140660969E+02  0.11124862483E+03  0.00000000000E+00 0. -1.
         -1    1    6    6    0  503  0.17123420962E+03  0.48547683395E+02 -0.14005321648E+03  0.22647943737E+03  0.00000000000E+00 0.  1.
<mgrwt>
<rscale>  0 0.12714922E+04</rscale>
<asrwt>0</asrwt>
<pdfrwt beam="1">  1        2 0.28614824E+00 0.12714922E+04</pdfrwt>
<pdfrwt beam="2">  1       -1 0.33431020E-01 0.12714922E+04</pdfrwt>
<totfact> 0.75344742E+01</totfact>
</mgrwt>
</event>
<event>
12    7  0.1637954E-007  0.1426165E+04  0.7818608E-02  0.8935094E-01
          2   -1    0    0  501    0  0.00000000000E+00  0.00000000000E+00  0.16552915862E+04  0.16552915862E+04  0.00000000000E+00 0. -1.
         -1   -1    0    0    0  501 -0.00000000000E+00 -0.00000000000E+00 -0.30718846620E+03  0.30718846620E+03  0.00000000000E+00 0.  1.
         24    2    1    2    0    0  0.16778268359E+03  0.77469356185E+01 -0.12726674840E+03  0.22971144877E+03  0.91430194814E+02 0.  0.
        254    2    1    2    0    0 -0.16778268359E+03 -0.77469356185E+01  0.14753698684E+04  0.17327686037E+04  0.89306200299E+03 0.  0.
         23    2    4    4    0    0  0.31831301588E+03  0.73806828528E+02  0.93455653883E+03  0.99516539421E+03  0.10093370865E+03 0.  0.
         23    2    4    4    0    0 -0.48609569947E+03 -0.81553764147E+02  0.54081332960E+03  0.73760320944E+03  0.92948327628E+02 0.  0.
          4    1    3    3  502    0  0.91688407134E+02 -0.40283263612E+02 -0.54699614103E+02  0.11411202002E+03  0.00000000000E+00 0. -1.
         -1    1    3    3    0  502  0.76094276460E+02  0.48030199230E+02 -0.72567134299E+02  0.11559942875E+03  0.00000000000E+00 0.  1.
         13    1    5    5    0    0  0.63347292423E+02  0.55200556838E+01  0.32106609828E+03  0.32730229137E+03  0.00000000000E+00 0. -1.
        -13    1    5    5    0    0  0.25496572346E+03  0.68286772844E+02  0.61349044056E+03  0.66786310284E+03  0.00000000000E+00 0.  1.
          4    1    6    6  503    0 -0.20630995585E+03 -0.57847292215E+01  0.17304717109E+03  0.26933730599E+03  0.00000000000E+00 0. -1.
         -4    1    6    6    0  503 -0.27978574362E+03 -0.75769034925E+02  0.36776615852E+03  0.46826590345E+03  0.00000000000E+00 0.  1.
<mgrwt>
<rscale>  0 0.14261648E+04</rscale>
<asrwt>0</asrwt>
<pdfrwt beam="1">  1        2 0.25466024E+00 0.14261648E+04</pdfrwt>
<pdfrwt beam="2">  1       -1 0.47259765E-01 0.14261648E+04</pdfrwt>
<totfact> 0.51342483E+01</totfact>
</mgrwt>
</event>
<event>
12    7  0.1637954E-007  0.2056372E+04  0.7818608E-02  0.8580709E-01
          2   -1    0    0  501    0  0.00000000000E+00  0.00000000000E+00  0.15584431055E+04  0.15584431055E+04  0.00000000000E+00 0. -1.
         -1   -1    0    0    0  501 -0.00000000000E+00 -0.00000000000E+00 -0.67834772888E+03  0.67834772888E+03  0.00000000000E+00 0.  1.
         24    2    1    2    0    0  0.63105646315E+03  0.50791680366E+03  0.14133355542E+03  0.82621599367E+03  0.80286706158E+02 0.  0.
        254    2    1    2    0    0 -0.63105646315E+03 -0.50791680366E+03  0.73876182117E+03  0.14105748407E+04  0.88754752753E+03 0.  0.
         23    2    4    4    0    0 -0.63479463129E+03 -0.20282638059E+03  0.78364042047E+02  0.67717744067E+03  0.91244717623E+02 0.  0.
         23    2    4    4    0    0  0.37381681381E+01 -0.30509042306E+03  0.66039777912E+03  0.73339740001E+03  0.93018167705E+02 0.  0.
          2    1    3    3  502    0  0.37345663258E+03  0.28457956248E+03  0.43590579014E+02  0.47154588576E+03  0.00000000000E+00 0. -1.
         -1    1    3    3    0  502  0.25759983057E+03  0.22333724117E+03  0.97742976410E+02  0.35467010790E+03  0.00000000000E+00 0.  1.
         13    1    5    5    0    0 -0.44024150423E+03 -0.17451536938E+03  0.81601079914E+02  0.48054857448E+03  0.00000000000E+00 0.  1.
        -13    1    5    5    0    0 -0.19455312706E+03 -0.28311011211E+02 -0.32370378677E+01  0.19662886619E+03  0.00000000000E+00 0. -1.
          1    1    6    6  503    0  0.33918632451E+02 -0.52414461594E+02  0.99365828543E+02  0.11735125604E+03  0.00000000000E+00 0. -1.
         -1    1    6    6    0  503 -0.30180464313E+02 -0.25267596147E+03  0.56103195058E+03  0.61604614397E+03  0.00000000000E+00 0.  1.
<mgrwt>
<rscale>  0 0.20563719E+04</rscale>
<asrwt>0</asrwt>
<pdfrwt beam="1">  1        2 0.23976048E+00 0.20563719E+04</pdfrwt>
<pdfrwt beam="2">  1       -1 0.10436119E+00 0.20563719E+04</pdfrwt>
<totfact> 0.10705594E+01</totfact>
</mgrwt>
</event>
<event>
12    7  0.1637954E-007  0.1191679E+04  0.7818608E-02  0.9120171E-01
          2   -1    0    0  501    0  0.00000000000E+00  0.00000000000E+00  0.18765194340E+04  0.18765194340E+04  0.00000000000E+00 0. -1.
         -1   -1    0    0    0  501 -0.00000000000E+00 -0.00000000000E+00 -0.18919310790E+03  0.18919310790E+03  0.00000000000E+00 0.  1.
         24    2    1    2    0    0 -0.20055285724E+01 -0.76691585442E+02 -0.32555356053E+02  0.11528366909E+03  0.79654577576E+02 0.  0.
        254    2    1    2    0    0  0.20055285724E+01  0.76691585442E+02  0.17198816821E+04  0.19504288728E+04  0.91667560556E+03 0.  0.
         23    2    4    4    0    0 -0.13131861521E+03 -0.38434692583E+03  0.95628069967E+03  0.10440786311E+04  0.10324859952E+03 0.  0.
         23    2    4    4    0    0  0.13332414379E+03  0.46103851127E+03  0.76360098246E+03  0.90635024166E+03  0.89735522264E+02 0.  0.
          2    1    3    3  502    0 -0.22709076210E+02 -0.25910680538E+01  0.12573425303E+02  0.26086525254E+02  0.00000000000E+00 0. -1.
         -1    1    3    3    0  502  0.20703547638E+02 -0.74100517388E+02 -0.45128781356E+02  0.89197143837E+02  0.00000000000E+00 0.  1.
         13    1    5    5    0    0 -0.47630628013E+02 -0.17257294765E+03  0.54914732991E+03  0.57759232070E+03  0.00000000000E+00 0.  1.
        -13    1    5    5    0    0 -0.83687987201E+02 -0.21177397818E+03  0.40713336976E+03  0.46648631042E+03  0.00000000000E+00 0. -1.
          1    1    6    6  503    0  0.11949195938E+03  0.25403341328E+03  0.44523314671E+03  0.52634955908E+03  0.00000000000E+00 0. -1.
         -1    1    6    6    0  503  0.13832184408E+02  0.20700509799E+03  0.31836783575E+03  0.38000068258E+03  0.00000000000E+00 0.  1.
<mgrwt>
<rscale>  0 0.11916787E+04</rscale>
<asrwt>0</asrwt>
<pdfrwt beam="1">  1        2 0.28869528E+00 0.11916787E+04</pdfrwt>
<pdfrwt beam="2">  1       -1 0.29106633E-01 0.11916787E+04</pdfrwt>
<totfact> 0.94752384E+01</totfact>
</mgrwt>
</event>
<event>
12    7  0.1637954E-007  0.1799584E+04  0.7818608E-02  0.8706521E-01
          2   -1    0    0  501    0  0.00000000000E+00  0.00000000000E+00  0.27197622459E+03  0.27197622459E+03  0.00000000000E+00 0. -1.
         -1   -1    0    0    0  501 -0.00000000000E+00 -0.00000000000E+00 -0.29768238783E+04  0.29768238783E+04  0.00000000000E+00 0.  1.
         24    2    1    2    0    0  0.36795584006E+03  0.22685869744E+03 -0.95819074586E+02  0.44955171775E+03  0.77840112025E+02 0.  0.
        254    2    1    2    0    0 -0.36795584006E+03 -0.22685869744E+03 -0.26090285791E+04  0.27992483851E+04  0.91755382739E+03 0.  0.
         23    2    4    4    0    0 -0.33437219509E+03 -0.52631780069E+03 -0.21657783890E+04  0.22556264876E+04  0.91867454126E+02 0.  0.
         23    2    4    4    0    0 -0.33583644975E+02  0.29945910325E+03 -0.44325019010E+03  0.54362189751E+03  0.90831826504E+02 0.  0.
          2    1    3    3  502    0  0.36213874880E+03  0.21589282947E+03 -0.10454601753E+03  0.43437778141E+03  0.00000000000E+00 0. -1.
         -1    1    3    3    0  502  0.58170912625E+01  0.10965867971E+02  0.87269429432E+01  0.15173936347E+02  0.00000000000E+00 0.  1.
         13    1    5    5    0    0 -0.27494230592E+03 -0.38684285746E+03 -0.15242376771E+04  0.15964150977E+04  0.00000000000E+00 0. -1.
        -13    1    5    5    0    0 -0.59429889174E+02 -0.13947494323E+03 -0.64154071190E+03  0.65921138987E+03  0.00000000000E+00 0.  1.
          3    1    6    6  503    0  0.15175218162E+02  0.21623475517E+03 -0.33048259623E+03  0.39522968386E+03  0.00000000000E+00 0. -1.
         -3    1    6    6    0  503 -0.48758863137E+02  0.83224348079E+02 -0.11276759387E+03  0.14839221366E+03  0.00000000000E+00 0.  1.
<mgrwt>
<rscale>  0 0.17995836E+04</rscale>
<asrwt>0</asrwt>
<pdfrwt beam="1">  1        2 0.41842496E-01 0.17995836E+04</pdfrwt>
<pdfrwt beam="2">  1       -1 0.45797290E+00 0.17995836E+04</pdfrwt>
<totfact> 0.37801223E-01</totfact>
</mgrwt>
</event>
<event>
12    7  0.1637954E-007  0.2676579E+04  0.7818608E-02  0.8342644E-01
         -3   -1    0    0    0  501 -0.00000000000E+00  0.00000000000E+00  0.13651736084E+04  0.13651736084E+04  0.00000000000E+00 0.  1.
          2   -1    0    0  501    0  0.00000000000E+00 -0.00000000000E+00 -0.13119349824E+04  0.13119349824E+04  0.00000000000E+00 0. -1.
         24    2    1    2    0    0 -0.36659924532E+03 -0.74932404940E+03 -0.85193315066E+03  0.11950604309E+04  0.80608948629E+02 0.  0.
        254    2    1    2    0    0  0.36659924532E+03  0.74932404940E+03  0.90517177667E+03  0.14820481600E+04  0.82537825599E+03 0.  0.
         23    2    4    4    0    0  0.23847150360E+03  0.81586793532E+03  0.38876855956E+03  0.93817041950E+03  0.80706859723E+02 0.  0.
         23    2    4    4    0    0  0.12812774172E+03 -0.66543885924E+02  0.51640321711E+03  0.54387774045E+03  0.91026957345E+02 0.  0.
          4    1    3    3  502    0 -0.34755059922E+03 -0.71581665399E+03 -0.78467978851E+03  0.11175451989E+04  0.00000000000E+00 0. -1.
         -3    1    3    3    0  502 -0.19048646098E+02 -0.33507395412E+02 -0.67253362150E+02  0.77515231961E+02  0.00000000000E+00 0.  1.
         13    1    5    5    0    0  0.16753373359E+03  0.66263653843E+03  0.33341651169E+03  0.76047439419E+03  0.00000000000E+00 0.  1.
        -13    1    5    5    0    0  0.70937770001E+02  0.15323139689E+03  0.55352047868E+02  0.17769602530E+03  0.00000000000E+00 0. -1.
          4    1    6    6  503    0  0.54022195267E+02 -0.61710077976E+02  0.37814804118E+03  0.38693988210E+03  0.00000000000E+00 0. -1.
         -4    1    6    6    0  503  0.74105546454E+02 -0.48338079478E+01  0.13825517593E+03  0.15693785835E+03  0.00000000000E+00 0.  1.
<mgrwt>
<rscale>  0 0.26765792E+04</rscale>
<asrwt>0</asrwt>
<pdfrwt beam="1">  1        2 0.20183615E+00 0.26765792E+04</pdfrwt>
<pdfrwt beam="2">  1       -3 0.21002671E+00 0.26765792E+04</pdfrwt>
<totfact> 0.11422947E+00</totfact>
</mgrwt>
</event>
<event>
12    7  0.1637954E-007  0.2106109E+04  0.7818608E-02  0.8558557E-01
          2   -1    0    0  501    0  0.00000000000E+00  0.00000000000E+00  0.51419937428E+03  0.51419937428E+03  0.00000000000E+00 0. -1.
         -1   -1    0    0    0  501 -0.00000000000E+00 -0.00000000000E+00 -0.21566031507E+04  0.21566031507E+04  0.00000000000E+00 0.  1.
         24    2    1    2    0    0 -0.43608483346E+03  0.63167323858E+03 -0.11418470421E+04  0.13781563759E+04  0.79493815514E+02 0.  0.
        254    2    1    2    0    0  0.43608483346E+03 -0.63167323858E+03 -0.50055673434E+03  0.12926461491E+04  0.91169948999E+03 0.  0.
         23    2    4    4    0    0 -0.12115875393E+03 -0.43714286309E+03  0.68289525835E+02  0.46779633240E+03  0.91633088272E+02 0.  0.
         23    2    4    4    0    0  0.55724358739E+03 -0.19453037549E+03 -0.56884626017E+03  0.82484981665E+03  0.91807786361E+02 0.  0.
          2    1    3    3  502    0 -0.28048777039E+03  0.42748065905E+03 -0.82182539148E+03  0.96788949642E+03  0.00000000000E+00 0. -1.
         -1    1    3    3    0  502 -0.15559706307E+03  0.20419257953E+03 -0.32002165059E+03  0.41026687950E+03  0.00000000000E+00 0.  1.
         13    1    5    5    0    0 -0.50604539244E+02 -0.31639187777E+03  0.24953099006E+02  0.32138341099E+03  0.00000000000E+00 0.  1.
        -13    1    5    5    0    0 -0.70554214690E+02 -0.12075098532E+03  0.43336426828E+02  0.14641292142E+03  0.00000000000E+00 0. -1.
          2    1    6    6  503    0  0.14449173658E+03 -0.96045892641E+01 -0.14776218366E+03  0.20689072718E+03  0.00000000000E+00 0.  1.
         -2    1    6    6    0  503  0.41275185081E+03 -0.18492578623E+03 -0.42108407651E+03  0.61795908947E+03  0.00000000000E+00 0. -1.
<mgrwt>
<rscale>  0 0.21061092E+04</rscale>
<asrwt>0</asrwt>
<pdfrwt beam="1">  1        2 0.79107597E-01 0.21061092E+04</pdfrwt>
<pdfrwt beam="2">  1       -1 0.33178510E+00 0.21061092E+04</pdfrwt>
<totfact> 0.12859520E+00</totfact>
</mgrwt>
</event>
<event>
12    7  0.1637954E-007  0.1091347E+04  0.7818608E-02  0.9213667E-01
         -1   -1    0    0    0  501 -0.00000000000E+00  0.00000000000E+00  0.21101300556E+03  0.21101300556E+03  0.00000000000E+00 0.  1.
          2   -1    0    0  501    0  0.00000000000E+00 -0.00000000000E+00 -0.14110969101E+04  0.14110969101E+04  0.00000000000E+00 0. -1.
         24    2    1    2    0    0  0.14375018831E+03  0.75114582745E+02 -0.14545763665E+03  0.23287240838E+03  0.82251549178E+02 0.  0.
        254    2    1    2    0    0 -0.14375018831E+03 -0.75114582745E+02 -0.10546262679E+04  0.13892375073E+04  0.88962799504E+03 0.  0.
         23    2    4    4    0    0 -0.17930713953E+03  0.42494696892E+02  0.96699775277E+02  0.22781804554E+03  0.92700408765E+02 0.  0.
         23    2    4    4    0    0  0.35556951219E+02 -0.11760927964E+03 -0.11513260432E+04  0.11614194618E+04  0.90814475683E+02 0.  0.
          2    1    3    3  502    0  0.48759292937E+02  0.22738106843E+01 -0.86766609030E+02  0.99554423836E+02  0.00000000000E+00 0. -1.
         -1    1    3    3    0  502  0.94990895376E+02  0.72840772061E+02 -0.58691027619E+02  0.13331798454E+03  0.00000000000E+00 0.  1.
         13    1    5    5    0    0 -0.10342944748E+03  0.38223735345E+02  0.10386721418E+03  0.15148301136E+03  0.00000000000E+00 0. -1.
        -13    1    5    5    0    0 -0.75877692048E+02  0.42709615469E+01 -0.71674388985E+01  0.76335034181E+02  0.00000000000E+00 0.  1.
          3    1    6    6  503    0 -0.30752958596E+01 -0.10090898715E+03 -0.97161675676E+03  0.97684758440E+03  0.00000000000E+00 0. -1.
         -3    1    6    6    0  503  0.38632247079E+02 -0.16700292491E+02 -0.17970928646E+03  0.18457187739E+03  0.00000000000E+00 0.  1.
<mgrwt>
<rscale>  0 0.10913474E+04</rscale>
<asrwt>0</asrwt>
<pdfrwt beam="1">  1        2 0.21709182E+00 0.10913474E+04</pdfrwt>
<pdfrwt beam="2">  1       -1 0.32463541E-01 0.10913474E+04</pdfrwt>
<totfact> 0.14314009E+02</totfact>
</mgrwt>
</event>
<event>
12    7  0.1637954E-007  0.3006731E+04  0.7818608E-02  0.8241811E-01
         -1   -1    0    0    0  501 -0.00000000000E+00  0.00000000000E+00  0.14922483270E+04  0.14922483270E+04  0.00000000000E+00 0.  1.
          2   -1    0    0  501    0  0.00000000000E+00 -0.00000000000E+00 -0.15145652527E+04  0.15145652527E+04  0.00000000000E+00 0. -1.
         24    2    1    2    0    0  0.55627511058E+03 -0.97538459471E+03  0.76533658756E+03  0.13612078302E+04  0.79558521754E+02 0.  0.
        254    2    1    2    0    0 -0.55627511058E+03  0.97538459471E+03 -0.78765351327E+03  0.16456057496E+04  0.90928714930E+03 0.  0.
         23    2    4    4    0    0 -0.89741244481E+02  0.60667758188E+03 -0.83805030581E+03  0.10420724634E+04  0.86461115473E+02 0.  0.
         23    2    4    4    0    0 -0.46653386610E+03  0.36870701283E+03  0.50396792543E+02  0.60353328624E+03  0.90077085730E+02 0.  0.
          4    1    3    3  502    0  0.30587135959E+03 -0.49720888310E+03  0.43956062274E+03  0.73074448552E+03  0.00000000000E+00 0. -1.
         -3    1    3    3    0  502  0.25040375099E+03 -0.47817571161E+03  0.32577596482E+03  0.63046334464E+03  0.00000000000E+00 0.  1.
         13    1    5    5    0    0 -0.68827913796E+02  0.44539073469E+03 -0.54780112082E+03  0.70936327523E+03  0.00000000000E+00 0.  1.
        -13    1    5    5    0    0 -0.20913330686E+02  0.16128684719E+03 -0.29024918499E+03  0.33270918813E+03  0.00000000000E+00 0. -1.
          1    1    6    6  503    0 -0.16931276221E+03  0.14348516310E+03 -0.24137931609E+02  0.22324301382E+03  0.00000000000E+00 0. -1.
         -1    1    6    6    0  503 -0.29722110389E+03  0.22522184973E+03  0.74534724152E+02  0.38029027242E+03  0.00000000000E+00 0.  1.
<mgrwt>
<rscale>  0 0.30067308E+04</rscale>
<asrwt>0</asrwt>
<pdfrwt beam="1">  1        2 0.23301004E+00 0.30067308E+04</pdfrwt>
<pdfrwt beam="2">  1       -1 0.22957666E+00 0.30067308E+04</pdfrwt>
<totfact> 0.11527523E+00</totfact>
</mgrwt>
</event>
<event>
12    7  0.1637954E-007  0.2591940E+04  0.7818608E-02  0.8370944E-01
         -1   -1    0    0    0  501 -0.00000000000E+00  0.00000000000E+00  0.98498092994E+03  0.98498092994E+03  0.00000000000E+00 0.  1.
          2   -1    0    0  501    0  0.00000000000E+00 -0.00000000000E+00 -0.17051485915E+04  0.17051485915E+04  0.00000000000E+00 0. -1.
         24    2    1    2    0    0 -0.48955284611E+03  0.73022212225E+03  0.43515838868E+03  0.98428896142E+03  0.81090069544E+02 0.  0.
        254    2    1    2    0    0  0.48955284611E+03 -0.73022212225E+03 -0.11553260503E+04  0.17058405601E+04  0.89567147822E+03 0.  0.
         23    2    4    4    0    0  0.34381264054E+02 -0.83427912183E+02 -0.83922648407E+03  0.84925248594E+03  0.93735828099E+02 0.  0.
         23    2    4    4    0    0  0.45517158205E+03 -0.64679421007E+03 -0.31609956622E+03  0.85658807411E+03  0.91105837690E+02 0.  0.
          2    1    3    3  502    0 -0.10867733515E+03  0.22743165399E+03  0.11985937827E+03  0.27910963970E+03  0.00000000000E+00 0. -1.
         -1    1    3    3    0  502 -0.38087551096E+03  0.50279046826E+03  0.31529901041E+03  0.70517932173E+03  0.00000000000E+00 0.  1.
         13    1    5    5    0    0  0.28289966956E+02 -0.83020087602E+02 -0.83853390104E+03  0.84310839183E+03  0.00000000000E+00 0.  1.
        -13    1    5    5    0    0  0.60912970979E+01 -0.40782458111E+00 -0.69258302544E+00  0.61440941131E+01  0.00000000000E+00 0. -1.
          3    1    6    6  503    0  0.16562892743E+02 -0.67154533899E+02 -0.24064401826E+02  0.73233573410E+02  0.00000000000E+00 0. -1.
         -3    1    6    6    0  503  0.43860868931E+03 -0.57963967617E+03 -0.29203516439E+03  0.78335450070E+03  0.00000000000E+00 0.  1.
<mgrwt>
<rscale>  0 0.25919405E+04</rscale>
<asrwt>0</asrwt>
<pdfrwt beam="1">  1        2 0.26233055E+00 0.25919405E+04</pdfrwt>
<pdfrwt beam="2">  1       -1 0.15153553E+00 0.25919405E+04</pdfrwt>
<totfact> 0.33322274E+00</totfact>
</mgrwt>
</event>
<event>
12    7  0.1637954E-007  0.2117202E+04  0.7818608E-02  0.8553704E-01
          2   -1    0    0  501    0  0.00000000000E+00  0.00000000000E+00  0.82160408807E+03  0.82160408807E+03  0.00000000000E+00 0. -1.
         -1   -1    0    0    0  501 -0.00000000000E+00 -0.00000000000E+00 -0.13639607087E+04  0.13639607087E+04  0.00000000000E+00 0.  1.
         24    2    1    2    0    0 -0.32299840767E+03  0.49458788636E+03 -0.86680556799E+03  0.10518655080E+04  0.78256025989E+02 0.  0.
        254    2    1    2    0    0  0.32299840767E+03 -0.49458788636E+03  0.32444894738E+03  0.11336992887E+04  0.91162591510E+03 0.  0.
         23    2    4    4    0    0  0.29296970993E+03  0.19869665264E+03  0.21742651437E+03  0.42563817885E+03  0.92638865701E+02 0.  0.
         23    2    4    4    0    0  0.30028697744E+02 -0.69328453900E+03  0.10702243300E+03  0.70806110987E+03  0.91386866882E+02 0.  0.
          4    1    3    3  502    0 -0.48021037011E+02  0.90744859136E+02 -0.10500383015E+03  0.14685521374E+03  0.00000000000E+00 0. -1.
         -3    1    3    3    0  502 -0.27497737066E+03  0.40384302723E+03 -0.76180173784E+03  0.90501029430E+03  0.00000000000E+00 0.  1.
         13    1    5    5    0    0  0.85321769258E+02  0.47294778622E+02  0.15420861983E+02  0.98764383148E+02  0.00000000000E+00 0. -1.
        -13    1    5    5    0    0  0.20764794067E+03  0.15140187401E+03  0.20200565239E+03  0.32687379570E+03  0.00000000000E+00 0.  1.
          1    1    6    6  503    0 -0.20138512712E+02 -0.12214614332E+03  0.43500073128E+02  0.13121545787E+03  0.00000000000E+00 0. -1.
         -1    1    6    6    0  503  0.50167210456E+02 -0.57113839568E+03  0.63522359876E+02  0.57684565199E+03  0.00000000000E+00 0.  1.
<mgrwt>
<rscale>  0 0.21172016E+04</rscale>
<asrwt>0</asrwt>
<pdfrwt beam="1">  1        2 0.12640063E+00 0.21172016E+04</pdfrwt>
<pdfrwt beam="2">  1       -1 0.20984011E+00 0.21172016E+04</pdfrwt>
<totfact> 0.44976226E+00</totfact>
</mgrwt>
</event>
<event>
12    7  0.1637954E-007  0.2155186E+04  0.7818608E-02  0.8537316E-01
         -1   -1    0    0    0  501 -0.00000000000E+00  0.00000000000E+00  0.54592136110E+03  0.54592136110E+03  0.00000000000E+00 0.  1.
          2   -1    0    0  501    0  0.00000000000E+00 -0.00000000000E+00 -0.21270583581E+04  0.21270583581E+04  0.00000000000E+00 0. -1.
         24    2    1    2    0    0 -0.23538421599E+03  0.37525018776E+03 -0.16115464607E+04  0.16732170917E+04  0.79718307470E+02 0.  0.
        254    2    1    2    0    0  0.23538421599E+03 -0.37525018776E+03  0.30409463690E+02  0.99976262746E+03  0.89575785971E+03 0.  0.
         23    2    4    4    0    0  0.18486226722E+03 -0.54233745884E+03  0.30965877468E+03  0.65757785304E+03  0.90642699486E+02 0.  0.
         23    2    4    4    0    0  0.50521948775E+02  0.16708727107E+03 -0.27924931099E+03  0.34218477442E+03  0.92949549173E+02 0.  0.
          4    1    3    3  502    0 -0.15389942689E+03  0.28981817251E+03 -0.10817687852E+04  0.11304438559E+04  0.00000000000E+00 0. -1.
         -3    1    3    3    0  502 -0.81484789107E+02  0.85432015258E+02 -0.52977767551E+03  0.54277323585E+03  0.00000000000E+00 0.  1.
         13    1    5    5    0    0  0.12452608566E+03 -0.46832698897E+03  0.26046379337E+03  0.55016206909E+03  0.00000000000E+00 0.  1.
        -13    1    5    5    0    0  0.60336181562E+02 -0.74010469868E+02  0.49194981313E+02  0.10741578395E+03  0.00000000000E+00 0. -1.
          1    1    6    6  503    0 -0.23285788243E+02  0.51496016313E+02 -0.11553109400E+03  0.12861376797E+03  0.00000000000E+00 0. -1.
         -1    1    6    6    0  503  0.73807737018E+02  0.11559125476E+03 -0.16371821699E+03  0.21357100645E+03  0.00000000000E+00 0.  1.
<mgrwt>
<rscale>  0 0.21551859E+04</rscale>
<asrwt>0</asrwt>
<pdfrwt beam="1">  1        2 0.32723975E+00 0.21551859E+04</pdfrwt>
<pdfrwt beam="2">  1       -1 0.83987901E-01 0.21551859E+04</pdfrwt>
<totfact> 0.83250698E+00</totfact>
</mgrwt>
</event>
<event>
12    7  0.1637954E-007  0.1844527E+04  0.7818608E-02  0.8682972E-01
          2   -1    0    0  501    0  0.00000000000E+00  0.00000000000E+00  0.29109645823E+04  0.29109645823E+04  0.00000000000E+00 0. -1.
         -1   -1    0    0    0  501 -0.00000000000E+00 -0.00000000000E+00 -0.29219524443E+03  0.29219524443E+03  0.00000000000E+00 0.  1.
         24    2    1    2    0    0 -0.27301361596E+03  0.57261754187E+03  0.48154358150E+03  0.80044438163E+03  0.79998146477E+02 0.  0.
        254    2    1    2    0    0  0.27301361596E+03 -0.57261754187E+03  0.21372257564E+04  0.24027154451E+04  0.89603587693E+03 0.  0.
         23    2    4    4    0    0 -0.62722552657E+02 -0.70550342511E+03  0.12335149922E+04  0.14252642608E+04  0.90276107951E+02 0.  0.
         23    2    4    4    0    0  0.33573616862E+03  0.13288588324E+03  0.90371076418E+03  0.97745118433E+03  0.91324912077E+02 0.  0.
          4    1    3    3  502    0 -0.10082174723E+01  0.47105102547E+02  0.44519237073E+02  0.64821830104E+02  0.00000000000E+00 0. -1.
         -3    1    3    3    0  502 -0.27200539849E+03  0.52551243932E+03  0.43702434443E+03  0.73562255152E+03  0.00000000000E+00 0.  1.
         13    1    5    5    0    0 -0.12204596164E+02 -0.86915992243E+02  0.10078224789E+03  0.13364282011E+03  0.00000000000E+00 0. -1.
        -13    1    5    5    0    0 -0.50517956493E+02 -0.61858743287E+03  0.11327327443E+04  0.12916214407E+04  0.00000000000E+00 0.  1.
          3    1    6    6  503    0  0.59283890939E+02 -0.11724332100E+02  0.15092395649E+03  0.16257330756E+03  0.00000000000E+00 0. -1.
         -3    1    6    6    0  503  0.27645227768E+03  0.14461021534E+03  0.75278680768E+03  0.81487787676E+03  0.00000000000E+00 0.  1.
<mgrwt>
<rscale>  0 0.18445270E+04</rscale>
<asrwt>0</asrwt>
<pdfrwt beam="1">  1        2 0.44784068E+00 0.18445270E+04</pdfrwt>
<pdfrwt beam="2">  1       -1 0.44953117E-01 0.18445270E+04</pdfrwt>
<totfact> 0.10425178E+01</totfact>
</mgrwt>
</event>
<event>
12    7  0.1637954E-007  0.2513684E+04  0.7818608E-02  0.8398127E-01
         -1   -1    0    0    0  501 -0.00000000000E+00  0.00000000000E+00  0.17232435233E+04  0.17232435233E+04  0.00000000000E+00 0.  1.
          2   -1    0    0  501    0  0.00000000000E+00 -0.00000000000E+00 -0.91667350586E+03  0.91667350586E+03  0.00000000000E+00 0. -1.
         24    2    1    2    0    0  0.19213664467E+03 -0.85431739088E+03 -0.33637671920E+03  0.94163576774E+03  0.82182280825E+02 0.  0.
        254    2    1    2    0    0 -0.19213664467E+03  0.85431739088E+03  0.11429467366E+04  0.16982812614E+04  0.90058720036E+03 0.  0.
         23    2    4    4    0    0 -0.13210702098E+03 -0.14553241092E+03  0.37203317420E+03  0.43056010816E+03  0.91331136063E+02 0.  0.
         23    2    4    4    0    0 -0.60029623688E+02  0.99984980180E+03  0.77091356242E+03  0.12677211532E+04  0.97498819201E+02 0.  0.
          4    1    3    3  502    0  0.18695891530E+03 -0.80014469862E+03 -0.33453247130E+03  0.88718495766E+03  0.00000000000E+00 0. -1.
         -3    1    3    3    0  502  0.51777293618E+01 -0.54172692262E+02 -0.18442478999E+01  0.54450810082E+02  0.00000000000E+00 0.  1.
         13    1    5    5    0    0 -0.12978290983E+03 -0.87178544966E+02  0.29526246670E+03  0.33410122213E+03  0.00000000000E+00 0.  1.
        -13    1    5    5    0    0 -0.23241111466E+01 -0.58353865953E+02  0.76770707495E+02  0.96458886027E+02  0.00000000000E+00 0. -1.
          1    1    6    6  503    0 -0.13600939206E+02  0.16443621247E+02  0.22789905157E+02  0.31221114715E+02  0.00000000000E+00 0. -1.
         -1    1    6    6    0  503 -0.46428684483E+02  0.98340618055E+03  0.74812365727E+03  0.12365000385E+04  0.00000000000E+00 0.  1.
<mgrwt>
<rscale>  0 0.25136839E+04</rscale>
<asrwt>0</asrwt>
<pdfrwt beam="1">  1        2 0.14102669E+00 0.25136839E+04</pdfrwt>
<pdfrwt beam="2">  1       -1 0.26511439E+00 0.25136839E+04</pdfrwt>
<totfact> 0.16132411E+00</totfact>
</mgrwt>
</event>
<event>
12    7  0.1637954E-007  0.1489742E+04  0.7818608E-02  0.8891303E-01
          2   -1    0    0  501    0  0.00000000000E+00  0.00000000000E+00  0.10288169902E+04  0.10288169902E+04  0.00000000000E+00 0. -1.
         -1   -1    0    0    0  501 -0.00000000000E+00 -0.00000000000E+00 -0.53929204432E+03  0.53929204432E+03  0.00000000000E+00 0.  1.
         24    2    1    2    0    0  0.40993039561E+03  0.18018865168E+03  0.29701617864E+03  0.54540182373E+03  0.93454050251E+02 0.  0.
        254    2    1    2    0    0 -0.40993039561E+03 -0.18018865168E+03  0.19250876722E+03  0.10227072108E+04  0.89908816814E+03 0.  0.
         23    2    4    4    0    0 -0.12569757538E+02  0.12961685010E+03 -0.28265976098E+03  0.32411505883E+03  0.90529024353E+02 0.  0.
         23    2    4    4    0    0 -0.39736063807E+03 -0.30980550178E+03  0.47516852820E+03  0.69859215195E+03  0.91492835475E+02 0.  0.
          2    1    3    3  502    0  0.16714520535E+02  0.33860692204E+02  0.21273967963E+02  0.43341704929E+02  0.00000000000E+00 0. -1.
         -3    1    3    3    0  502  0.39321587508E+03  0.14632795948E+03  0.27574221068E+03  0.50206011880E+03  0.00000000000E+00 0.  1.
         13    1    5    5    0    0  0.13949741680E+02  0.12424383559E+03 -0.18888198970E+03  0.22651165976E+03  0.00000000000E+00 0. -1.
        -13    1    5    5    0    0 -0.26519499218E+02  0.53730145094E+01 -0.93777771287E+02  0.97603399076E+02  0.00000000000E+00 0.  1.
          1    1    6    6  503    0 -0.37901583110E+03 -0.29170754384E+03  0.41532470185E+03  0.63343578942E+03  0.00000000000E+00 0. -1.
         -1    1    6    6    0  503 -0.18344806976E+02 -0.18097957939E+02  0.59843826355E+02  0.65156362525E+02  0.00000000000E+00 0.  1.
<mgrwt>
<rscale>  0 0.14897420E+04</rscale>
<asrwt>0</asrwt>
<pdfrwt beam="1">  1        2 0.15827954E+00 0.14897420E+04</pdfrwt>
<pdfrwt beam="2">  1       -1 0.82968007E-01 0.14897420E+04</pdfrwt>
<totfact> 0.38428401E+01</totfact>
</mgrwt>
</event>
<event>
12    7  0.1637954E-007  0.1388322E+04  0.7818608E-02  0.8962316E-01
         -1   -1    0    0    0  501 -0.00000000000E+00  0.00000000000E+00  0.39606801655E+03  0.39606801655E+03  0.00000000000E+00 0.  1.
          2   -1    0    0  501    0  0.00000000000E+00 -0.00000000000E+00 -0.12166073124E+04  0.12166073124E+04  0.00000000000E+00 0. -1.
         24    2    1    2    0    0 -0.36424252796E+03 -0.82054753926E+02 -0.40440558452E+03  0.55638534349E+03  0.81333706654E+02 0.  0.
        254    2    1    2    0    0  0.36424252796E+03  0.82054753926E+02 -0.41613371137E+03  0.10562899855E+04  0.89620068395E+03 0.  0.
         23    2    4    4    0    0  0.11908005869E+03 -0.30995726530E+03 -0.46919832838E+03  0.58183907903E+03  0.90200198698E+02 0.  0.
         23    2    4    4    0    0  0.24516246928E+03  0.39201201922E+03  0.53064617014E+02  0.47445090646E+03  0.92248303553E+02 0.  0.
          2    1    3    3  502    0 -0.30331379388E+03 -0.90816035242E+02 -0.36549359953E+03  0.48356217916E+03  0.00000000000E+00 0. -1.
         -1    1    3    3    0  502 -0.60928734081E+02  0.87612813159E+01 -0.38911984994E+02  0.72823164331E+02  0.00000000000E+00 0.  1.
         13    1    5    5    0    0 -0.13838396070E+01 -0.11424552610E+03 -0.15786783211E+03  0.19487485128E+03  0.00000000000E+00 0. -1.
        -13    1    5    5    0    0  0.12046389829E+03 -0.19571173920E+03 -0.31133049627E+03  0.38696422775E+03  0.00000000000E+00 0.  1.
          3    1    6    6  503    0  0.12135633306E+03  0.15350364356E+03 -0.17942028415E+02  0.19650100393E+03  0.00000000000E+00 0. -1.
         -3    1    6    6    0  503  0.12380613622E+03  0.23850837566E+03  0.71006645429E+02  0.27794990254E+03  0.00000000000E+00 0.  1.
<mgrwt>
<rscale>  0 0.13883216E+04</rscale>
<asrwt>0</asrwt>
<pdfrwt beam="1">  1        2 0.18717035E+00 0.13883216E+04</pdfrwt>
<pdfrwt beam="2">  1       -1 0.60933543E-01 0.13883216E+04</pdfrwt>
<totfact> 0.56162362E+01</totfact>
</mgrwt>
</event>
<event>
12    7  0.1637954E-007  0.1273508E+04  0.7818608E-02  0.9050842E-01
          2   -1    0    0  501    0  0.00000000000E+00  0.00000000000E+00  0.25242193186E+04  0.25242193186E+04  0.00000000000E+00 0. -1.
         -1   -1    0    0    0  501 -0.00000000000E+00 -0.00000000000E+00 -0.16062603611E+03  0.16062603611E+03  0.00000000000E+00 0.  1.
         24    2    1    2    0    0 -0.21464105330E+03 -0.20876957923E+02  0.11756186879E+03  0.25834044331E+03  0.80077228465E+02 0.  0.
        254    2    1    2    0    0  0.21464105330E+03  0.20876957923E+02  0.22460314137E+04  0.24265049114E+04  0.89261545170E+03 0.  0.
         23    2    4    4    0    0  0.48265651735E+03  0.74873760941E+01  0.19741682964E+04  0.20343544735E+04  0.90798053735E+02 0.  0.
         23    2    4    4    0    0 -0.26801546404E+03  0.13389581829E+02  0.27186311725E+03  0.39215043792E+03  0.88661387139E+02 0.  0.
          2    1    3    3  502    0 -0.60318282080E+02 -0.29209791454E+02  0.69364554226E+02  0.96451793414E+02  0.00000000000E+00 0. -1.
         -1    1    3    3    0  502 -0.15432277122E+03  0.83328335315E+01  0.48197314569E+02  0.16188864989E+03  0.00000000000E+00 0.  1.
         13    1    5    5    0    0  0.40691765186E+03  0.10863611596E+02  0.17790276608E+04  0.18250039483E+04  0.00000000000E+00 0. -1.
        -13    1    5    5    0    0  0.75738865485E+02 -0.33762355014E+01  0.19514063563E+03  0.20935052516E+03  0.00000000000E+00 0.  1.
          3    1    6    6  503    0 -0.81947902554E+02 -0.35792732833E+02  0.73339080894E+02  0.11565119646E+03  0.00000000000E+00 0. -1.
         -3    1    6    6    0  503 -0.18606756149E+03  0.49182314661E+02  0.19852403636E+03  0.27649924146E+03  0.00000000000E+00 0.  1.
<mgrwt>
<rscale>  0 0.12735075E+04</rscale>
<asrwt>0</asrwt>
<pdfrwt beam="1">  1        2 0.38834140E+00 0.12735075E+04</pdfrwt>
<pdfrwt beam="2">  1       -1 0.24711700E-01 0.12735075E+04</pdfrwt>
<totfact> 0.54149743E+01</totfact>
</mgrwt>
</event>
<event>
12    7  0.1637954E-007  0.1740120E+04  0.7818608E-02  0.8738808E-01
         -3   -1    0    0    0  501 -0.00000000000E+00  0.00000000000E+00  0.35259523298E+03  0.35259523298E+03  0.00000000000E+00 0.  1.
          2   -1    0    0  501    0  0.00000000000E+00 -0.00000000000E+00 -0.21469492223E+04  0.21469492223E+04  0.00000000000E+00 0. -1.
         24    2    1    2    0    0 -0.59741165752E+03  0.13080396298E+03 -0.41879228414E+03  0.74558534355E+03  0.80623582103E+02 0.  0.
        254    2    1    2    0    0  0.59741165752E+03 -0.13080396298E+03 -0.13755617051E+04  0.17539591117E+04  0.90010676897E+03 0.  0.
         23    2    4    4    0    0  0.74814456712E+03  0.13765975678E+03 -0.99717678104E+03  0.12576262113E+04  0.92691168191E+02 0.  0.
         23    2    4    4    0    0 -0.15073290959E+03 -0.26846371976E+03 -0.37838492411E+03  0.49633290043E+03  0.91531515868E+02 0.  0.
          2    1    3    3  502    0 -0.95798865730E+02 -0.26727500175E+01 -0.44626515281E+02  0.10571703805E+03  0.00000000000E+00 0. -1.
         -1    1    3    3    0  502 -0.50161279179E+03  0.13347671300E+03 -0.37416576886E+03  0.63986830550E+03  0.00000000000E+00 0.  1.
         13    1    5    5    0    0  0.67299933508E+03  0.14145333207E+03 -0.85982311539E+03  0.11010145049E+04  0.00000000000E+00 0. -1.
        -13    1    5    5    0    0  0.75145232032E+02 -0.37935752880E+01 -0.13735366565E+03  0.15661170639E+03  0.00000000000E+00 0.  1.
          4    1    6    6  503    0 -0.14436060694E+03 -0.19735207145E+03 -0.32726601376E+03  0.40852278848E+03  0.00000000000E+00 0. -1.
         -4    1    6    6    0  503 -0.63723026544E+01 -0.71111648312E+02 -0.51118910346E+02  0.87810111956E+02  0.00000000000E+00 0.  1.
<mgrwt>
<rscale>  0 0.17401196E+04</rscale>
<asrwt>0</asrwt>
<pdfrwt beam="1">  1        2 0.33029988E+00 0.17401196E+04</pdfrwt>
<pdfrwt beam="2">  1       -3 0.54245420E-01 0.17401196E+04</pdfrwt>
<totfact> 0.11307204E+01</totfact>
</mgrwt>
</event>
<event>
12    7  0.1637954E-007  0.2200230E+04  0.7818608E-02  0.8518332E-01
         -1   -1    0    0    0  501 -0.00000000000E+00  0.00000000000E+00  0.92602020399E+03  0.92602020399E+03  0.00000000000E+00 0.  1.
          2   -1    0    0  501    0  0.00000000000E+00 -0.00000000000E+00 -0.13069405951E+04  0.13069405951E+04  0.00000000000E+00 0. -1.
         24    2    1    2    0    0 -0.15863865455E+03 -0.99675305004E+02 -0.10671361249E+04  0.10863495602E+04  0.79211543679E+02 0.  0.
        254    2    1    2    0    0  0.15863865455E+03  0.99675305004E+02  0.68621573381E+03  0.11466112389E+04  0.89929078209E+03 0.  0.
         23    2    4    4    0    0 -0.35968066859E+03  0.11627281013E+03  0.24886874396E+03  0.46180668243E+03  0.91870618144E+02 0.  0.
         23    2    4    4    0    0  0.51831932314E+03 -0.16597505126E+02  0.43734698985E+03  0.68480455649E+03  0.93565448485E+02 0.  0.
          4    1    3    3  502    0 -0.15113467953E+03 -0.11151565855E+03 -0.10209492615E+04  0.10380822838E+04  0.00000000000E+00 0. -1.
         -3    1    3    3    0  502 -0.75039750132E+01  0.11840353545E+02 -0.46186863427E+02  0.48267276351E+02  0.00000000000E+00 0.  1.
         13    1    5    5    0    0 -0.33503464688E+02  0.31961244599E+01  0.58721642772E+02  0.67682558222E+02  0.00000000000E+00 0. -1.
        -13    1    5    5    0    0 -0.32617720391E+03  0.11307668567E+03  0.19014710119E+03  0.39412412420E+03  0.00000000000E+00 0.  1.
          1    1    6    6  503    0  0.17412936711E+03  0.12089617402E+02  0.96008797159E+02  0.19921065350E+03  0.00000000000E+00 0. -1.
         -1    1    6    6    0  503  0.34418995604E+03 -0.28687122528E+02  0.34133819269E+03  0.48559390299E+03  0.00000000000E+00 0.  1.
<mgrwt>
<rscale>  0 0.22002303E+04</rscale>
<asrwt>0</asrwt>
<pdfrwt beam="1">  1        2 0.20106778E+00 0.22002303E+04</pdfrwt>
<pdfrwt beam="2">  1       -1 0.14246465E+00 0.22002303E+04</pdfrwt>
<totfact> 0.68311385E+00</totfact>
</mgrwt>
</event>
<event>
12    7  0.1637954E-007  0.1647993E+04  0.7818608E-02  0.8791595E-01
          2   -1    0    0  501    0  0.00000000000E+00  0.00000000000E+00  0.98731502229E+03  0.98731502229E+03  0.00000000000E+00 0. -1.
         -1   -1    0    0    0  501 -0.00000000000E+00 -0.00000000000E+00 -0.68769374107E+03  0.68769374107E+03  0.00000000000E+00 0.  1.
         24    2    1    2    0    0 -0.37275319765E+02  0.54031962202E+03 -0.10198224119E+03  0.55673808947E+03  0.78880792000E+02 0.  0.
        254    2    1    2    0    0  0.37275319765E+02 -0.54031962202E+03  0.40160352241E+03  0.11182706739E+04  0.89213741513E+03 0.  0.
         23    2    4    4    0    0 -0.26898789617E+03  0.12078642384E+03  0.98152534627E+02  0.32388795864E+03  0.91244951784E+02 0.  0.
         23    2    4    4    0    0  0.30626321594E+03 -0.66110604586E+03  0.30345098778E+03  0.79438271526E+03  0.90016859600E+02 0.  0.
          4    1    3    3  502    0 -0.40888526841E+02  0.53020097044E+03 -0.87846252459E+02  0.53898228612E+03  0.00000000000E+00 0. -1.
         -3    1    3    3    0  502  0.36132070759E+01  0.10118651584E+02 -0.14135988733E+02  0.17755803353E+02  0.00000000000E+00 0.  1.
         13    1    5    5    0    0  0.18146469619E+01  0.64766256217E+01  0.18000157345E+02  0.19215756230E+02  0.00000000000E+00 0.  1.
        -13    1    5    5    0    0 -0.27080254313E+03  0.11430979822E+03  0.80152377282E+02  0.30467220241E+03  0.00000000000E+00 0. -1.
          4    1    6    6  503    0  0.34203530391E+02 -0.39733428383E+02  0.30401303435E+01  0.52515418829E+02  0.00000000000E+00 0.  1.
         -4    1    6    6    0  503  0.27205968554E+03 -0.62137261747E+03  0.30041085744E+03  0.74186729643E+03  0.00000000000E+00 0. -1.
<mgrwt>
<rscale>  0 0.16479932E+04</rscale>
<asrwt>0</asrwt>
<pdfrwt beam="1">  1        2 0.15189462E+00 0.16479932E+04</pdfrwt>
<pdfrwt beam="2">  1       -1 0.10579904E+00 0.16479932E+04</pdfrwt>
<totfact> 0.23407957E+01</totfact>
</mgrwt>
</event>
<event>
12    7  0.1637954E-007  0.1249582E+04  0.7818608E-02  0.9070531E-01
         -1   -1    0    0    0  501 -0.00000000000E+00  0.00000000000E+00  0.34890651249E+03  0.34890651249E+03  0.00000000000E+00 0.  1.
          2   -1    0    0  501    0  0.00000000000E+00 -0.00000000000E+00 -0.11188210988E+04  0.11188210988E+04  0.00000000000E+00 0. -1.
         24    2    1    2    0    0 -0.18533913546E+03 -0.22486560829E+03 -0.30084875498E+03  0.42633081577E+03  0.79579232042E+02 0.  0.
        254    2    1    2    0    0  0.18533913546E+03  0.22486560829E+03 -0.46906583132E+03  0.10413967955E+04  0.88293227071E+03 0.  0.
         23    2    4    4    0    0  0.20319069296E+03  0.54778682567E+03 -0.34165056746E+03  0.68182122039E+03  0.82451211330E+02 0.  0.
         23    2    4    4    0    0 -0.17851557501E+02 -0.32292121738E+03 -0.12741526386E+03  0.35957557512E+03  0.91995402173E+02 0.  0.
          4    1    3    3  502    0 -0.15350171907E+03 -0.21972102874E+03 -0.28163421182E+03  0.38879035160E+03  0.00000000000E+00 0. -1.
         -3    1    3    3    0  502 -0.31837416389E+02 -0.51445795513E+01 -0.19214543164E+02  0.37540464169E+02  0.00000000000E+00 0.  1.
         13    1    5    5    0    0  0.11664429945E+03  0.41555084568E+03 -0.23891963718E+03  0.49332645477E+03  0.00000000000E+00 0.  1.
        -13    1    5    5    0    0  0.86546393508E+02  0.13223597998E+03 -0.10273093028E+03  0.18849476562E+03  0.00000000000E+00 0. -1.
          4    1    6    6  503    0 -0.56758951325E+01  0.17740872780E+01 -0.14364637924E+02  0.15546896601E+02  0.00000000000E+00 0. -1.
         -4    1    6    6    0  503 -0.12175662368E+02 -0.32469530466E+03 -0.11305062594E+03  0.34402867852E+03  0.00000000000E+00 0.  1.
<mgrwt>
<rscale>  0 0.12495823E+04</rscale>
<asrwt>0</asrwt>
<pdfrwt beam="1">  1        2 0.17212632E+00 0.12495823E+04</pdfrwt>
<pdfrwt beam="2">  1       -1 0.53677925E-01 0.12495823E+04</pdfrwt>
<totfact> 0.83310307E+01</totfact>
</mgrwt>
</event>
<event>
12    7  0.1637954E-007  0.1933725E+04  0.7818608E-02  0.8638249E-01
          2   -1    0    0  501    0  0.00000000000E+00  0.00000000000E+00  0.20504401316E+04  0.20504401316E+04  0.00000000000E+00 0. -1.
         -1   -1    0    0    0  501 -0.00000000000E+00 -0.00000000000E+00 -0.45591336126E+03  0.45591336126E+03  0.00000000000E+00 0.  1.
         24    2    1    2    0    0  0.32706942800E+03 -0.60137571153E+03  0.10330641332E+04  0.12420872462E+04  0.83259033745E+02 0.  0.
        254    2    1    2    0    0 -0.32706942800E+03  0.60137571153E+03  0.56146263714E+03  0.12642662467E+04  0.90249747501E+03 0.  0.
         23    2    4    4    0    0 -0.58416728928E+03  0.17875238620E+03  0.21499470955E+03  0.65351813514E+03  0.87517943197E+02 0.  0.
         23    2    4    4    0    0  0.25709786128E+03  0.42262332534E+03  0.34646792758E+03  0.61074811153E+03  0.90903495549E+02 0.  0.
          4    1    3    3  502    0  0.88268985160E+02 -0.20653849695E+03  0.39927983864E+03  0.45812002140E+03  0.00000000000E+00 0. -1.
         -3    1    3    3    0  502  0.23880044284E+03 -0.39483721458E+03  0.63378429457E+03  0.78396722480E+03  0.00000000000E+00 0.  1.
         13    1    5    5    0    0 -0.29896431120E+03  0.59839081505E+02  0.14025981543E+03  0.33560868712E+03  0.00000000000E+00 0.  1.
        -13    1    5    5    0    0 -0.28520297808E+03  0.11891330469E+03  0.74734894125E+02  0.31790944802E+03  0.00000000000E+00 0. -1.
          3    1    6    6  503    0  0.37720789460E+02  0.16638084188E+02  0.34086908078E+02  0.53493935219E+02  0.00000000000E+00 0. -1.
         -3    1    6    6    0  503  0.21937707182E+03  0.40598524115E+03  0.31238101951E+03  0.55725417631E+03  0.00000000000E+00 0.  1.
<mgrwt>
<rscale>  0 0.19337250E+04</rscale>
<asrwt>0</asrwt>
<pdfrwt beam="1">  1        2 0.31545232E+00 0.19337250E+04</pdfrwt>
<pdfrwt beam="2">  1       -1 0.70140518E-01 0.19337250E+04</pdfrwt>
<totfact> 0.13684942E+01</totfact>
</mgrwt>
</event>
<event>
12    7  0.1637954E-007  0.1331151E+04  0.7818608E-02  0.9005221E-01
         -3   -1    0    0    0  501 -0.00000000000E+00  0.00000000000E+00  0.13374388588E+03  0.13374388588E+03  0.00000000000E+00 0.  1.
          2   -1    0    0  501    0  0.00000000000E+00 -0.00000000000E+00 -0.33122313072E+04  0.33122313072E+04  0.00000000000E+00 0. -1.
         24    2    1    2    0    0 -0.82157023220E+02 -0.85337271495E+02 -0.17716460147E+04  0.17774548509E+04  0.81141352860E+02 0.  0.
        254    2    1    2    0    0  0.82157023220E+02  0.85337271495E+02 -0.14068414066E+04  0.16685203422E+04  0.88922728398E+03 0.  0.
         23    2    4    4    0    0 -0.13901745366E+03  0.38393885962E+03 -0.11030269896E+04  0.11797937554E+04  0.92248930412E+02 0.  0.
         23    2    4    4    0    0  0.22117447688E+03 -0.29860158813E+03 -0.30381441698E+03  0.48872658676E+03  0.92029446272E+02 0.  0.
          4    1    3    3  502    0 -0.47821707240E+02 -0.40293732446E+02 -0.14113178326E+04  0.14127025608E+04  0.00000000000E+00 0. -1.
         -3    1    3    3    0  502 -0.34335315981E+02 -0.45043539049E+02 -0.36032818208E+03  0.36475229010E+03  0.00000000000E+00 0.  1.
         13    1    5    5    0    0 -0.85707790346E+02  0.33582515453E+03 -0.89884821479E+03  0.96335480119E+03  0.00000000000E+00 0.  1.
        -13    1    5    5    0    0 -0.53309663315E+02  0.48113705091E+02 -0.20417877484E+03  0.21643895425E+03  0.00000000000E+00 0. -1.
          2    1    6    6  503    0  0.42093759752E+02 -0.12958538501E+03 -0.11792279614E+03  0.18019445737E+03  0.00000000000E+00 0. -1.
         -2    1    6    6    0  503  0.17908071713E+03 -0.16901620312E+03 -0.18589162085E+03  0.30853212939E+03  0.00000000000E+00 0.  1.
<mgrwt>
<rscale>  0 0.13311509E+04</rscale>
<asrwt>0</asrwt>
<pdfrwt beam="1">  1        2 0.50957401E+00 0.13311509E+04</pdfrwt>
<pdfrwt beam="2">  1       -3 0.20575984E-01 0.13311509E+04</pdfrwt>
<totfact> 0.15486084E+01</totfact>
</mgrwt>
</event>
<event>
12    7  0.1637954E-007  0.1889253E+04  0.7818608E-02  0.8660224E-01
          2   -1    0    0  501    0  0.00000000000E+00  0.00000000000E+00  0.11746116201E+04  0.11746116201E+04  0.00000000000E+00 0. -1.
         -1   -1    0    0    0  501 -0.00000000000E+00 -0.00000000000E+00 -0.75967205074E+03  0.75967205074E+03  0.00000000000E+00 0.  1.
         24    2    1    2    0    0  0.29800818832E+03  0.65649891692E+03  0.30943930269E+02  0.72612156683E+03  0.80593391563E+02 0.  0.
        254    2    1    2    0    0 -0.29800818832E+03 -0.65649891692E+03  0.38399563905E+03  0.12081621040E+04  0.89017038282E+03 0.  0.
         23    2    4    4    0    0  0.20744062300E+03 -0.53182466361E+03  0.44408109131E+02  0.57969660433E+03  0.90592428041E+02 0.  0.
         23    2    4    4    0    0 -0.50544881132E+03 -0.12467425331E+03  0.33958752992E+03  0.62846549965E+03  0.92881771444E+02 0.  0.
          4    1    3    3  502    0  0.19683889813E+03  0.33925965102E+03  0.26303083520E+02  0.39310878244E+03  0.00000000000E+00 0. -1.
         -3    1    3    3    0  502  0.10116929019E+03  0.31723926590E+03  0.46408467489E+01  0.33301278439E+03  0.00000000000E+00 0.  1.
         13    1    5    5    0    0  0.73662367515E+02 -0.30988328004E+03  0.14698580965E+02  0.31885708385E+03  0.00000000000E+00 0.  1.
        -13    1    5    5    0    0  0.13377825548E+03 -0.22194138357E+03  0.29709528166E+02  0.26083952048E+03  0.00000000000E+00 0. -1.
          1    1    6    6  503    0 -0.40503827637E+03 -0.61555381537E+02  0.27488782505E+03  0.49336435490E+03  0.00000000000E+00 0. -1.
         -1    1    6    6    0  503 -0.10041053495E+03 -0.63118871773E+02  0.64699704869E+02  0.13510114475E+03  0.00000000000E+00 0.  1.
<mgrwt>
<rscale>  0 0.18892534E+04</rscale>
<asrwt>0</asrwt>
<pdfrwt beam="1">  1        2 0.18070948E+00 0.18892534E+04</pdfrwt>
<pdfrwt beam="2">  1       -1 0.11687262E+00 0.18892534E+04</pdfrwt>
<totfact> 0.13845224E+01</totfact>
</mgrwt>
</event>
<event>
12    7  0.1637954E-007  0.1900058E+04  0.7818608E-02  0.8654828E-01
          2   -1    0    0  501    0  0.00000000000E+00  0.00000000000E+00  0.15251503137E+04  0.15251503137E+04  0.00000000000E+00 0. -1.
         -1   -1    0    0    0  501 -0.00000000000E+00 -0.00000000000E+00 -0.59178103450E+03  0.59178103450E+03  0.00000000000E+00 0.  1.
         24    2    1    2    0    0 -0.67357141340E+03 -0.13763622405E+03  0.64612318245E+03  0.94686368328E+03  0.80209031252E+02 0.  0.
        254    2    1    2    0    0  0.67357141340E+03  0.13763622405E+03  0.28724609679E+03  0.11700676650E+04  0.90216730231E+03 0.  0.
         23    2    4    4    0    0  0.11680484368E+03 -0.33439872513E+03  0.22752074317E+03  0.43195765536E+03  0.96725635549E+02 0.  0.
         23    2    4    4    0    0  0.55676656972E+03  0.47203494918E+03  0.59725353627E+02  0.73811000961E+03  0.91832793727E+02 0.  0.
          2    1    3    3  502    0 -0.33620772468E+03 -0.81368811216E+02  0.27269810400E+03  0.44047789218E+03  0.00000000000E+00 0. -1.
         -1    1    3    3    0  502 -0.33736368872E+03 -0.56267412834E+02  0.37342507845E+03  0.50638579110E+03  0.00000000000E+00 0.  1.
         13    1    5    5    0    0  0.80582803651E+02 -0.25024552689E+03  0.11525859969E+03  0.28705566842E+03  0.00000000000E+00 0.  1.
        -13    1    5    5    0    0  0.36222040026E+02 -0.84153198248E+02  0.11226214348E+03  0.14490198694E+03  0.00000000000E+00 0. -1.
          4    1    6    6  503    0  0.54475873185E+02  0.17549210969E+02 -0.59768812526E+01  0.57544058550E+02  0.00000000000E+00 0. -1.
         -4    1    6    6    0  503  0.50229069654E+03  0.45448573822E+03  0.65702234880E+02  0.68056595106E+03  0.00000000000E+00 0.  1.
<mgrwt>
<rscale>  0 0.19000579E+04</rscale>
<asrwt>0</asrwt>
<pdfrwt beam="1">  1        2 0.23463851E+00 0.19000579E+04</pdfrwt>
<pdfrwt beam="2">  1       -1 0.91043237E-01 0.19000579E+04</pdfrwt>
<totfact> 0.15436841E+01</totfact>
</mgrwt>
</event>
<event>
12    7  0.1637954E-007  0.1726085E+04  0.7818608E-02  0.8746625E-01
         -1   -1    0    0    0  501 -0.00000000000E+00  0.00000000000E+00  0.97718530954E+03  0.97718530954E+03  0.00000000000E+00 0.  1.
          2   -1    0    0  501    0  0.00000000000E+00 -0.00000000000E+00 -0.76223286420E+03  0.76223286420E+03  0.00000000000E+00 0. -1.
         24    2    1    2    0    0  0.23473657423E+03  0.32083516865E+03 -0.39766645464E+03  0.56804232963E+03  0.80604059363E+02 0.  0.
        254    2    1    2    0    0 -0.23473657423E+03 -0.32083516865E+03  0.61261889999E+03  0.11713758441E+04  0.91585096321E+03 0.  0.
         23    2    4    4    0    0 -0.17140380370E+03 -0.57862943908E+03  0.14846655037E+03  0.62795958769E+03  0.89997974949E+02 0.  0.
         23    2    4    4    0    0 -0.63332770526E+02  0.25779427043E+03  0.46415234961E+03  0.54341625642E+03  0.96927284087E+02 0.  0.
          4    1    3    3  502    0  0.20360051622E+03  0.22110346721E+03 -0.30813147734E+03  0.43044734956E+03  0.00000000000E+00 0. -1.
         -3    1    3    3    0  502  0.31136058004E+02  0.99731701439E+02 -0.89534977305E+02  0.13759498007E+03  0.00000000000E+00 0.  1.
         13    1    5    5    0    0 -0.22119529936E+02 -0.16902628276E+03  0.73339916102E+02  0.18557451646E+03  0.00000000000E+00 0. -1.
        -13    1    5    5    0    0 -0.14928427377E+03 -0.40960315632E+03  0.75126634272E+02  0.44238507122E+03  0.00000000000E+00 0.  1.
          1    1    6    6  503    0 -0.17668003478E+02  0.11894127337E+03  0.30226008534E+03  0.32530039048E+03  0.00000000000E+00 0. -1.
         -1    1    6    6    0  503 -0.45664767048E+02  0.13885299706E+03  0.16189226427E+03  0.21811586594E+03  0.00000000000E+00 0.  1.
<mgrwt>
<rscale>  0 0.17260855E+04</rscale>
<asrwt>0</asrwt>
<pdfrwt beam="1">  1        2 0.11726659E+00 0.17260855E+04</pdfrwt>
<pdfrwt beam="2">  1       -1 0.15033620E+00 0.17260855E+04</pdfrwt>
<totfact> 0.13806176E+01</totfact>
</mgrwt>
</event>
<event>
12    7  0.1637954E-007  0.2179144E+04  0.7818608E-02  0.8527159E-01
          2   -1    0    0  501    0  0.00000000000E+00  0.00000000000E+00  0.11954213011E+04  0.11954213011E+04  0.00000000000E+00 0. -1.
         -1   -1    0    0    0  501 -0.00000000000E+00 -0.00000000000E+00 -0.99309486352E+03  0.99309486352E+03  0.00000000000E+00 0.  1.
         24    2    1    2    0    0  0.80294839502E+03  0.57732531120E+02 -0.33258372043E+03  0.87471455399E+03  0.80339589540E+02 0.  0.
        254    2    1    2    0    0 -0.80294839502E+03 -0.57732531120E+02  0.53491015797E+03  0.13138016106E+04  0.88988011814E+03 0.  0.
         23    2    4    4    0    0 -0.59915625073E+02  0.53959596180E+01  0.55144951863E+03  0.56184263688E+03  0.89171623921E+02 0.  0.
         23    2    4    4    0    0 -0.74303276995E+03 -0.63128490738E+02 -0.16539360661E+02  0.75195897370E+03  0.95319694307E+02 0.  0.
          4    1    3    3  502    0  0.66401398465E+01 -0.96596662044E+00  0.44259095936E+01  0.80382351560E+01  0.00000000000E+00 0. -1.
         -3    1    3    3    0  502  0.79630825517E+03  0.58698497740E+02 -0.33700963002E+03  0.86667631883E+03  0.00000000000E+00 0.  1.
         13    1    5    5    0    0 -0.14816278822E+02  0.39691841238E+02  0.35073346869E+03  0.35328307409E+03  0.00000000000E+00 0. -1.
        -13    1    5    5    0    0 -0.45099346250E+02 -0.34295881620E+02  0.20071604994E+03  0.20855956279E+03  0.00000000000E+00 0.  1.
          1    1    6    6  503    0 -0.43877284441E+03 -0.40078365710E+02  0.37060007178E+02  0.44215532171E+03  0.00000000000E+00 0. -1.
         -1    1    6    6    0  503 -0.30425992554E+03 -0.23050125027E+02 -0.53599367839E+02  0.30980365199E+03  0.00000000000E+00 0.  1.
<mgrwt>
<rscale>  0 0.21791436E+04</rscale>
<asrwt>0</asrwt>
<pdfrwt beam="1">  1        2 0.18391097E+00 0.21791436E+04</pdfrwt>
<pdfrwt beam="2">  1       -1 0.15278383E+00 0.21791436E+04</pdfrwt>
<totfact> 0.66044545E+00</totfact>
</mgrwt>
</event>
<event>
12    7  0.1637954E-007  0.1292176E+04  0.7818608E-02  0.9035793E-01
          2   -1    0    0  501    0  0.00000000000E+00  0.00000000000E+00  0.94947705790E+03  0.94947705790E+03  0.00000000000E+00 0. -1.
         -1   -1    0    0    0  501 -0.00000000000E+00 -0.00000000000E+00 -0.43964166125E+03  0.43964166125E+03  0.00000000000E+00 0.  1.
         24    2    1    2    0    0  0.32035316121E+03  0.55892259324E+01  0.17270463345E+03  0.37249023272E+03  0.79149830807E+02 0.  0.
        254    2    1    2    0    0 -0.32035316121E+03 -0.55892259324E+01  0.33713076320E+03  0.10166284864E+04  0.90400162642E+03 0.  0.
         23    2    4    4    0    0 -0.61402417046E+03 -0.32322775307E+02  0.10591891453E+03  0.63048394716E+03  0.90668337699E+02 0.  0.
         23    2    4    4    0    0  0.29367100925E+03  0.26733549375E+02  0.23121184867E+03  0.38614453927E+03  0.93227366710E+02 0.  0.
          4    1    3    3  502    0  0.65525251897E+02 -0.12047948535E+01  0.74720492528E+02  0.99388943905E+02  0.00000000000E+00 0. -1.
         -1    1    3    3    0  502  0.25482790931E+03  0.67940207860E+01  0.97984140918E+02  0.27310128882E+03  0.00000000000E+00 0.  1.
         13    1    5    5    0    0 -0.31783539211E+02  0.11448716255E+02 -0.99438345300E+01  0.35215711178E+02  0.00000000000E+00 0.  1.
        -13    1    5    5    0    0 -0.58224063125E+03 -0.43771491563E+02  0.11586274906E+03  0.59526823598E+03  0.00000000000E+00 0. -1.
          4    1    6    6  503    0  0.22131901153E+03 -0.19210587660E+02  0.18292033706E+03  0.28776900676E+03  0.00000000000E+00 0. -1.
         -4    1    6    6    0  503  0.72351997721E+02  0.45944137035E+02  0.48291511614E+02  0.98375532507E+02  0.00000000000E+00 0.  1.
<mgrwt>
<rscale>  0 0.12921759E+04</rscale>
<asrwt>0</asrwt>
<pdfrwt beam="1">  1        2 0.14607339E+00 0.12921759E+04</pdfrwt>
<pdfrwt beam="2">  1       -1 0.67637179E-01 0.12921759E+04</pdfrwt>
<totfact> 0.67315211E+01</totfact>
</mgrwt>
</event>
<event>
12    7  0.1637954E-007  0.1807492E+04  0.7818608E-02  0.8702326E-01
         -3   -1    0    0    0  501 -0.00000000000E+00  0.00000000000E+00  0.22483456033E+03  0.22483456033E+03  0.00000000000E+00 0.  1.
          2   -1    0    0  501    0  0.00000000000E+00 -0.00000000000E+00 -0.36327008115E+04  0.36327008115E+04  0.00000000000E+00 0. -1.
         24    2    1    2    0    0  0.63371381718E+03  0.19812114434E+03 -0.10404322607E+04  0.12369560167E+04  0.81949424702E+02 0.  0.
        254    2    1    2    0    0 -0.63371381718E+03 -0.19812114434E+03 -0.23674339904E+04  0.26205793551E+04  0.90655792283E+03 0.  0.
         23    2    4    4    0    0 -0.51060889544E+03 -0.36855100167E+03 -0.73408053532E+03  0.97122154952E+03  0.88576413230E+02 0.  0.
         23    2    4    4    0    0 -0.12310492173E+03  0.17042985734E+03 -0.16333534551E+04  0.16493578056E+04  0.91304454910E+02 0.  0.
          2    1    3    3  502    0  0.17275956507E+03  0.47723873259E+02 -0.35076016653E+03  0.39389862887E+03  0.00000000000E+00 0. -1.
         -1    1    3    3    0  502  0.46095425210E+03  0.15039727108E+03 -0.68967209419E+03  0.84305738784E+03  0.00000000000E+00 0.  1.
         13    1    5    5    0    0 -0.20144124617E+03 -0.15504224558E+03 -0.23224886096E+03  0.34431991954E+03  0.00000000000E+00 0. -1.
        -13    1    5    5    0    0 -0.30916764927E+03 -0.21350875609E+03 -0.50183167437E+03  0.62690162999E+03  0.00000000000E+00 0.  1.
          4    1    6    6  503    0 -0.66220949234E+02  0.31012072789E+02 -0.71654333187E+03  0.72026474939E+03  0.00000000000E+00 0. -1.
         -4    1    6    6    0  503 -0.56883972499E+02  0.13941778455E+03 -0.91681012324E+03  0.92909305618E+03  0.00000000000E+00 0.  1.
<mgrwt>
<rscale>  0 0.18074918E+04</rscale>
<asrwt>0</asrwt>
<pdfrwt beam="1">  1        2 0.55887704E+00 0.18074918E+04</pdfrwt>
<pdfrwt beam="2">  1       -3 0.34589933E-01 0.18074918E+04</pdfrwt>
<totfact> 0.33425036E+00</totfact>
</mgrwt>
</event>
<event>
12    7  0.1637954E-007  0.1647216E+04  0.7818608E-02  0.8792055E-01
          2   -1    0    0  501    0  0.00000000000E+00  0.00000000000E+00  0.17051243230E+04  0.17051243230E+04  0.00000000000E+00 0. -1.
         -1   -1    0    0    0  501 -0.00000000000E+00 -0.00000000000E+00 -0.39781873583E+03  0.39781873583E+03  0.00000000000E+00 0.  1.
         24    2    1    2    0    0  0.53314513232E+03  0.11676334140E+03  0.20764091392E+03  0.58939531108E+03  0.79966702967E+02 0.  0.
        254    2    1    2    0    0 -0.53314513232E+03 -0.11676334140E+03  0.10996646733E+04  0.15135477478E+04  0.88526096780E+03 0.  0.
         23    2    4    4    0    0  0.51436977558E+02  0.29710230051E+03  0.29457070999E+03  0.43205828487E+03  0.94799360294E+02 0.  0.
         23    2    4    4    0    0 -0.58458210987E+03 -0.41386564191E+03  0.80509396329E+03  0.10814894629E+04  0.91772304595E+02 0.  0.
          2    1    3    3  502    0  0.36307206536E+03  0.83981503075E+02  0.18052662870E+03  0.41408221548E+03  0.00000000000E+00 0. -1.
         -1    1    3    3    0  502  0.17007306695E+03  0.32781838323E+02  0.27114285220E+02  0.17531309560E+03  0.00000000000E+00 0.  1.
         13    1    5    5    0    0 -0.17908294677E+02  0.10222506151E+03  0.62345049751E+02  0.12106847421E+03  0.00000000000E+00 0. -1.
        -13    1    5    5    0    0  0.69345272235E+02  0.19487723900E+03  0.23222566024E+03  0.31098981066E+03  0.00000000000E+00 0.  1.
          1    1    6    6  503    0 -0.18489359450E+03 -0.16035576796E+03  0.22152845186E+03  0.33011281191E+03  0.00000000000E+00 0. -1.
         -1    1    6    6    0  503 -0.39968851538E+03 -0.25350987395E+03  0.58356551143E+03  0.75137665099E+03  0.00000000000E+00 0.  1.
<mgrwt>
<rscale>  0 0.16472163E+04</rscale>
<asrwt>0</asrwt>
<pdfrwt beam="1">  1        2 0.26232682E+00 0.16472163E+04</pdfrwt>
<pdfrwt beam="2">  1       -1 0.61202883E-01 0.16472163E+04</pdfrwt>
<totfact> 0.28711565E+01</totfact>
</mgrwt>
</event>
<event>
12    7  0.1637954E-007  0.1256058E+04  0.7818608E-02  0.9065156E-01
          2   -1    0    0  501    0  0.00000000000E+00  0.00000000000E+00  0.11448896135E+04  0.11448896135E+04  0.00000000000E+00 0. -1.
         -1   -1    0    0    0  501 -0.00000000000E+00 -0.00000000000E+00 -0.34450530112E+03  0.34450530112E+03  0.00000000000E+00 0.  1.
         24    2    1    2    0    0 -0.70773226272E+02  0.13900225315E+03  0.49160613735E+03  0.52281194083E+03  0.85587705079E+02 0.  0.
        254    2    1    2    0    0  0.70773226272E+02 -0.13900225315E+03  0.30877817506E+03  0.96658297381E+03  0.90255648462E+03 0.  0.
         23    2    4    4    0    0  0.36427649776E+03  0.22497860867E+03  0.11598560498E+03  0.45266104411E+03  0.90203210106E+02 0.  0.
         23    2    4    4    0    0 -0.29350327149E+03 -0.36398086182E+03  0.19279257009E+03  0.51392192971E+03  0.91216975429E+02 0.  0.
          4    1    3    3  502    0 -0.42482852386E+02  0.13660265992E+03  0.34503124770E+03  0.37351257186E+03  0.00000000000E+00 0. -1.
         -3    1    3    3    0  502 -0.28290373886E+02  0.23995932362E+01  0.14657488965E+03  0.14929936898E+03  0.00000000000E+00 0.  1.
         13    1    5    5    0    0  0.22266341928E+03  0.87166623858E+02  0.77359894308E+02  0.25131966068E+03  0.00000000000E+00 0.  1.
        -13    1    5    5    0    0  0.14161307848E+03  0.13781198481E+03  0.38625710671E+02  0.20134138342E+03  0.00000000000E+00 0. -1.
          1    1    6    6  503    0 -0.12107932605E+03 -0.17367241907E+03  0.13374180089E+03  0.25041801382E+03  0.00000000000E+00 0. -1.
         -1    1    6    6    0  503 -0.17242394544E+03 -0.19030844276E+03  0.59050769200E+02  0.26350391589E+03  0.00000000000E+00 0.  1.
<mgrwt>
<rscale>  0 0.12560582E+04</rscale>
<asrwt>0</asrwt>
<pdfrwt beam="1">  1        2 0.17613686E+00 0.12560582E+04</pdfrwt>
<pdfrwt beam="2">  1       -1 0.53000816E-01 0.12560582E+04</pdfrwt>
<totfact> 0.82259687E+01</totfact>
</mgrwt>
</event>
<event>
12    7  0.1637954E-007  0.2436605E+04  0.7818608E-02  0.8425925E-01
          4   -1    0    0  501    0  0.00000000000E+00  0.00000000000E+00  0.23699014792E+04  0.23699014792E+04  0.00000000000E+00 0. -1.
         -3   -1    0    0    0  501 -0.00000000000E+00 -0.00000000000E+00 -0.62629642766E+03  0.62629642766E+03  0.00000000000E+00 0.  1.
         24    2    1    2    0    0  0.26759282876E+03  0.93683599469E+02 -0.48972673698E+03  0.57204520563E+03  0.83790820210E+02 0.  0.
        254    2    1    2    0    0 -0.26759282876E+03 -0.93683599469E+02  0.22333317886E+04  0.24241527013E+04  0.89909004135E+03 0.  0.
         23    2    4    4    0    0 -0.55092692611E+03 -0.13252722904E+03  0.98283985891E+03  0.11381440793E+04  0.91180111092E+02 0.  0.
         23    2    4    4    0    0  0.28333409735E+03  0.38843629572E+02  0.12504919297E+04  0.12860086220E+04  0.91110215335E+02 0.  0.
          2    1    3    3  502    0  0.18372590989E+02 -0.93021131862E+01 -0.13050836514E+02  0.24380437714E+02  0.00000000000E+00 0. -1.
         -1    1    3    3    0  502  0.24922023777E+03  0.10298571266E+03 -0.47667590047E+03  0.54766476791E+03  0.00000000000E+00 0.  1.
         13    1    5    5    0    0 -0.20738885090E+03 -0.19463286313E+02  0.29665250013E+03  0.36247987644E+03  0.00000000000E+00 0. -1.
        -13    1    5    5    0    0 -0.34353807521E+03 -0.11306394273E+03  0.68618735878E+03  0.77566420288E+03  0.00000000000E+00 0.  1.
          2    1    6    6  503    0  0.28703472622E+02 -0.22243742185E+02  0.10988617449E+03  0.11573091528E+03  0.00000000000E+00 0. -1.
         -2    1    6    6    0  503  0.25463062473E+03  0.61087371757E+02  0.11406057552E+04  0.11702777067E+04  0.00000000000E+00 0.  1.
<mgrwt>
<rscale>  0 0.24366049E+04</rscale>
<asrwt>0</asrwt>
<pdfrwt beam="1">  1        4 0.36460022E+00 0.24366049E+04</pdfrwt>
<pdfrwt beam="2">  1       -3 0.96353298E-01 0.24366049E+04</pdfrwt>
<totfact> 0.23082724E-02</totfact>
</mgrwt>
</event>
<event>
12    7  0.1637954E-007  0.1413327E+04  0.7818608E-02  0.8944228E-01
         -1   -1    0    0    0  501 -0.00000000000E+00  0.00000000000E+00  0.45480528711E+03  0.45480528711E+03  0.00000000000E+00 0.  1.
          2   -1    0    0  501    0  0.00000000000E+00 -0.00000000000E+00 -0.10979935954E+04  0.10979935954E+04  0.00000000000E+00 0. -1.
         24    2    1    2    0    0 -0.20904671005E+03 -0.29069892738E+03  0.18956809445E+02  0.36850670568E+03  0.85037862965E+02 0.  0.
        254    2    1    2    0    0  0.20904671005E+03  0.29069892738E+03 -0.66214511773E+03  0.11842921768E+04  0.91427862811E+03 0.  0.
         23    2    4    4    0    0 -0.19900499484E+03 -0.18735960816E+03 -0.40926347425E+03  0.50076467271E+03  0.92531374910E+02 0.  0.
         23    2    4    4    0    0  0.40805170489E+03  0.47805853555E+03 -0.25288164349E+03  0.68352750413E+03  0.90634243048E+02 0.  0.
          4    1    3    3  502    0  0.82095948331E+00 -0.26245993583E+02 -0.13162978608E+02  0.29373289898E+02  0.00000000000E+00 0. -1.
         -3    1    3    3    0  502 -0.20986766953E+03 -0.26445293380E+03  0.32119788053E+02  0.33913341578E+03  0.00000000000E+00 0.  1.
         13    1    5    5    0    0 -0.38935263600E+02 -0.88009734842E+02 -0.10114144676E+03  0.13961110426E+03  0.00000000000E+00 0.  1.
        -13    1    5    5    0    0 -0.16006973124E+03 -0.99349873320E+02 -0.30812202748E+03  0.36115356845E+03  0.00000000000E+00 0. -1.
          3    1    6    6  503    0  0.37949934242E+03  0.41233959864E+03 -0.20218798574E+03  0.59575471218E+03  0.00000000000E+00 0. -1.
         -3    1    6    6    0  503  0.28552362465E+02  0.65718936911E+02 -0.50693657743E+02  0.87772791948E+02  0.00000000000E+00 0.  1.
<mgrwt>
<rscale>  0 0.14133270E+04</rscale>
<asrwt>0</asrwt>
<pdfrwt beam="1">  1        2 0.16892209E+00 0.14133270E+04</pdfrwt>
<pdfrwt beam="2">  1       -1 0.69970045E-01 0.14133270E+04</pdfrwt>
<totfact> 0.50043623E+01</totfact>
</mgrwt>
</event>
<event>
12    7  0.1637954E-007  0.1206699E+04  0.7818608E-02  0.9107013E-01
         -1   -1    0    0    0  501 -0.00000000000E+00  0.00000000000E+00  0.71066206989E+03  0.71066206989E+03  0.00000000000E+00 0.  1.
          2   -1    0    0  501    0  0.00000000000E+00 -0.00000000000E+00 -0.51224164410E+03  0.51224164410E+03  0.00000000000E+00 0. -1.
         24    2    1    2    0    0  0.53012351748E+02 -0.24159514407E+03  0.12020906550E+03  0.28601209191E+03  0.78575913705E+02 0.  0.
        254    2    1    2    0    0 -0.53012351748E+02  0.24159514407E+03  0.78211360301E+02  0.93689162208E+03  0.90026127962E+03 0.  0.
         23    2    4    4    0    0  0.38936263860E+03  0.25172878037E+03  0.97674997238E+02  0.48262496712E+03  0.91737727212E+02 0.  0.
         23    2    4    4    0    0 -0.44237499035E+03 -0.10133636306E+02 -0.19463636938E+02  0.45426665497E+03  0.10090112974E+03 0.  0.
          2    1    3    3  502    0  0.40263449913E+02 -0.41501021607E+02  0.15733825461E+02  0.59925232222E+02  0.00000000000E+00 0. -1.
         -1    1    3    3    0  502  0.12748901835E+02 -0.20009412246E+03  0.10447524004E+03  0.22608685968E+03  0.00000000000E+00 0.  1.
         13    1    5    5    0    0  0.15127274496E+03  0.79638491323E+02  0.78814418757E+02  0.18824836061E+03  0.00000000000E+00 0. -1.
        -13    1    5    5    0    0  0.23808989364E+03  0.17209028905E+03  0.18860578481E+02  0.29437660651E+03  0.00000000000E+00 0.  1.
          1    1    6    6  503    0 -0.23676576635E+03 -0.70527116442E+01  0.39965878260E+02  0.24021873425E+03  0.00000000000E+00 0. -1.
         -1    1    6    6    0  503 -0.20560922399E+03 -0.30809246622E+01 -0.59429515198E+02  0.21404792072E+03  0.00000000000E+00 0.  1.
<mgrwt>
<rscale>  0 0.12066991E+04</rscale>
<asrwt>0</asrwt>
<pdfrwt beam="1">  1        2 0.78806407E-01 0.12066991E+04</pdfrwt>
<pdfrwt beam="2">  1       -1 0.10933263E+00 0.12066991E+04</pdfrwt>
<totfact> 0.52302537E+01</totfact>
</mgrwt>
</event>
<event>
12    7  0.1637954E-007  0.1669825E+04  0.7818608E-02  0.8778764E-01
          2   -1    0    0  501    0  0.00000000000E+00  0.00000000000E+00  0.77415684181E+03  0.77415684181E+03  0.00000000000E+00 0. -1.
         -1   -1    0    0    0  501 -0.00000000000E+00 -0.00000000000E+00 -0.90043640102E+03  0.90043640102E+03  0.00000000000E+00 0.  1.
         24    2    1    2    0    0 -0.18415738046E+03  0.44064854174E+03 -0.39079868123E+03  0.62222853671E+03  0.79747504829E+02 0.  0.
        254    2    1    2    0    0  0.18415738046E+03 -0.44064854174E+03  0.26451912203E+03  0.10523647061E+04  0.89967551408E+03 0.  0.
         23    2    4    4    0    0 -0.25106452057E+03 -0.27908561663E+03 -0.15746769338E+03  0.41756654989E+03  0.92970824624E+02 0.  0.
         23    2    4    4    0    0  0.43522190104E+03 -0.16156292511E+03  0.42198681541E+03  0.63479815622E+03  0.96825331655E+02 0.  0.
          2    1    3    3  502    0 -0.61941471876E+02  0.22960029194E+03 -0.16135939379E+03  0.28738457503E+03  0.00000000000E+00 0. -1.
         -1    1    3    3    0  502 -0.12221590859E+03  0.21104824980E+03 -0.22943928744E+03  0.33484396169E+03  0.00000000000E+00 0.  1.
         13    1    5    5    0    0 -0.40614550538E+01 -0.28976351553E+02  0.60475244603E+01  0.29878034048E+02  0.00000000000E+00 0.  1.
        -13    1    5    5    0    0 -0.24700306552E+03 -0.25010926508E+03 -0.16351521784E+03  0.38768851585E+03  0.00000000000E+00 0. -1.
          2    1    6    6  503    0  0.41390780462E+03 -0.17200898681E+03  0.38512488023E+03  0.59095510459E+03  0.00000000000E+00 0. -1.
         -2    1    6    6    0  503  0.21314096415E+02  0.10446061701E+02  0.36861935177E+02  0.43843051628E+02  0.00000000000E+00 0.  1.
<mgrwt>
<rscale>  0 0.16698251E+04</rscale>
<asrwt>0</asrwt>
<pdfrwt beam="1">  1        2 0.11910105E+00 0.16698251E+04</pdfrwt>
<pdfrwt beam="2">  1       -1 0.13852868E+00 0.16698251E+04</pdfrwt>
<totfact> 0.16883795E+01</totfact>
</mgrwt>
</event>
<event>
12    7  0.1637954E-007  0.1612242E+04  0.7818608E-02  0.8813062E-01
          2   -1    0    0  501    0  0.00000000000E+00  0.00000000000E+00  0.82908822112E+03  0.82908822112E+03  0.00000000000E+00 0. -1.
         -1   -1    0    0    0  501 -0.00000000000E+00 -0.00000000000E+00 -0.78379019043E+03  0.78379019043E+03  0.00000000000E+00 0.  1.
         24    2    1    2    0    0 -0.16148650875E+03  0.51359590623E+03  0.12263488183E+03  0.55785375960E+03  0.79390524936E+02 0.  0.
        254    2    1    2    0    0  0.16148650875E+03 -0.51359590623E+03 -0.77336851138E+02  0.10550246520E+04  0.90401182530E+03 0.  0.
         23    2    4    4    0    0  0.24211467245E+03  0.19558309677E+03 -0.86536331144E+02  0.33533450399E+03  0.89935702618E+02 0.  0.
         23    2    4    4    0    0 -0.80628163700E+02 -0.70917900300E+03  0.91994800058E+01  0.71969014797E+03  0.91834196092E+02 0.  0.
          4    1    3    3  502    0  0.67729272562E+00  0.48030297250E+01 -0.68266177860E+01  0.83743973140E+01  0.00000000000E+00 0. -1.
         -3    1    3    3    0  502 -0.16216380147E+03  0.50879287651E+03  0.12946149962E+03  0.54947936228E+03  0.00000000000E+00 0.  1.
         13    1    5    5    0    0  0.19815902926E+03  0.12848526991E+03 -0.31974151378E+02  0.23832291501E+03  0.00000000000E+00 0. -1.
        -13    1    5    5    0    0  0.43955643188E+02  0.67097826856E+02 -0.54562179766E+02  0.97011588986E+02  0.00000000000E+00 0.  1.
          2    1    6    6  503    0 -0.96543227448E+02 -0.47188556103E+03  0.12943954693E+02  0.48183412440E+03  0.00000000000E+00 0. -1.
         -2    1    6    6    0  503  0.15915063748E+02 -0.23729344197E+03 -0.37444746870E+01  0.23785602357E+03  0.00000000000E+00 0.  1.
<mgrwt>
<rscale>  0 0.16122422E+04</rscale>
<asrwt>0</asrwt>
<pdfrwt beam="1">  1        2 0.12755203E+00 0.16122422E+04</pdfrwt>
<pdfrwt beam="2">  1       -1 0.12058311E+00 0.16122422E+04</pdfrwt>
<totfact> 0.21971610E+01</totfact>
</mgrwt>
</event>
<event>
12    7  0.1637954E-007  0.1694600E+04  0.7818608E-02  0.8764450E-01
          2   -1    0    0  501    0  0.00000000000E+00  0.00000000000E+00  0.48746097423E+03  0.48746097423E+03  0.00000000000E+00 0. -1.
         -1   -1    0    0    0  501 -0.00000000000E+00 -0.00000000000E+00 -0.14727681242E+04  0.14727681242E+04  0.00000000000E+00 0.  1.
         24    2    1    2    0    0  0.42002863503E+03 -0.22495429641E+03 -0.96661846834E+02  0.49266436304E+03  0.79662866240E+02 0.  0.
        254    2    1    2    0    0 -0.42002863503E+03  0.22495429641E+03 -0.88864530313E+03  0.14675647354E+04  0.10663148166E+04 0.  0.
         23    2    4    4    0    0 -0.43293147550E+03  0.56321713124E+03 -0.28503673156E+03  0.77088811210E+03  0.91538754872E+02 0.  0.
         23    2    4    4    0    0  0.12902840466E+02 -0.33826283483E+03 -0.60360857157E+03  0.69667662328E+03  0.80167206760E+02 0.  0.
          4    1    3    3  502    0  0.36973174770E+03 -0.16529262402E+03 -0.78253933390E+02  0.41248866033E+03  0.00000000000E+00 0. -1.
         -3    1    3    3    0  502  0.50296887337E+02 -0.59661672388E+02 -0.18407913444E+02  0.80175702712E+02  0.00000000000E+00 0.  1.
         13    1    5    5    0    0 -0.21633893852E+01  0.20170457862E+02 -0.20865723806E+02  0.29101650364E+02  0.00000000000E+00 0. -1.
        -13    1    5    5    0    0 -0.43076808612E+03  0.54304667337E+03 -0.26417100776E+03  0.74178646174E+03  0.00000000000E+00 0.  1.
          4    1    6    6  503    0 -0.13290271863E+02 -0.15466141759E+02 -0.16755195755E+02  0.26392602219E+02  0.00000000000E+00 0. -1.
         -4    1    6    6    0  503  0.26193112330E+02 -0.32279669307E+03 -0.58685337582E+03  0.67028402107E+03  0.00000000000E+00 0.  1.
<mgrwt>
<rscale>  0 0.16945996E+04</rscale>
<asrwt>0</asrwt>
<pdfrwt beam="1">  1        2 0.74993997E-01 0.16945996E+04</pdfrwt>
<pdfrwt beam="2">  1       -1 0.22657971E+00 0.16945996E+04</pdfrwt>
<totfact> 0.68637601E+00</totfact>
</mgrwt>
</event>
<event>
12    7  0.1637954E-007  0.1425501E+04  0.7818608E-02  0.8935563E-01
          2   -1    0    0  501    0  0.00000000000E+00  0.00000000000E+00  0.19038919518E+04  0.19038919518E+04  0.00000000000E+00 0. -1.
         -1   -1    0    0    0  501 -0.00000000000E+00 -0.00000000000E+00 -0.26682896548E+03  0.26682896548E+03  0.00000000000E+00 0.  1.
         24    2    1    2    0    0  0.41581263200E+03  0.30605991101E+02  0.60981994265E+03  0.74336203012E+03  0.82884701554E+02 0.  0.
        254    2    1    2    0    0 -0.41581263200E+03 -0.30605991101E+02  0.10272430437E+04  0.14273588872E+04  0.89904852504E+03 0.  0.
         23    2    4    4    0    0 -0.44094907992E+02 -0.41393288979E+03  0.30271702859E+03  0.52266532562E+03  0.90866083006E+02 0.  0.
         23    2    4    4    0    0 -0.37171772401E+03  0.38332689869E+03  0.72452601508E+03  0.90469356155E+03  0.91754652098E+02 0.  0.
          4    1    3    3  502    0  0.11761860661E+03 -0.63888609723E+01  0.23586900739E+03  0.26364586629E+03  0.00000000000E+00 0. -1.
         -3    1    3    3    0  502  0.29819402539E+03  0.36994852074E+02  0.37395093526E+03  0.47971616383E+03  0.00000000000E+00 0.  1.
         13    1    5    5    0    0 -0.26479213274E+02 -0.18716961648E+03  0.83091275352E+02  0.20648916220E+03  0.00000000000E+00 0.  1.
        -13    1    5    5    0    0 -0.17615694718E+02 -0.22676327331E+03  0.21962575324E+03  0.31617616341E+03  0.00000000000E+00 0. -1.
          3    1    6    6  503    0 -0.18236145483E+03  0.17412754592E+03  0.26770611997E+03  0.36775354400E+03  0.00000000000E+00 0. -1.
         -3    1    6    6    0  503 -0.18935626918E+03  0.20919935277E+03  0.45681989512E+03  0.53694001755E+03  0.00000000000E+00 0.  1.
<mgrwt>
<rscale>  0 0.14255013E+04</rscale>
<asrwt>0</asrwt>
<pdfrwt beam="1">  1        2 0.29290645E+00 0.14255013E+04</pdfrwt>
<pdfrwt beam="2">  1       -1 0.41050611E-01 0.14255013E+04</pdfrwt>
<totfact> 0.48576205E+01</totfact>
</mgrwt>
</event>
<event>
12    7  0.1637954E-007  0.1379122E+04  0.7818608E-02  0.8969071E-01
          2   -1    0    0  501    0  0.00000000000E+00  0.00000000000E+00  0.13546420548E+04  0.13546420548E+04  0.00000000000E+00 0. -1.
         -1   -1    0    0    0  501 -0.00000000000E+00 -0.00000000000E+00 -0.35101104155E+03  0.35101104155E+03  0.00000000000E+00 0.  1.
         24    2    1    2    0    0  0.29199435059E+03 -0.26892339397E+03  0.21339817653E+03  0.45766795530E+03  0.79628405500E+02 0.  0.
        254    2    1    2    0    0 -0.29199435059E+03  0.26892339397E+03  0.79023283668E+03  0.12479851410E+04  0.88057849362E+03 0.  0.
         23    2    4    4    0    0 -0.41855685814E+03  0.21952299879E+03  0.43307320076E+02  0.48314444786E+03  0.90403777732E+02 0.  0.
         23    2    4    4    0    0  0.12656250755E+03  0.49400395180E+02  0.74692551660E+03  0.76484069315E+03  0.92871369067E+02 0.  0.
          4    1    3    3  502    0  0.87642203648E+01  0.91135761812E-01 -0.50449226850E+01  0.10112917938E+02  0.00000000000E+00 0. -1.
         -3    1    3    3    0  502  0.28323013022E+03 -0.26901452974E+03  0.21844309922E+03  0.44755503737E+03  0.00000000000E+00 0.  1.
         13    1    5    5    0    0 -0.31783949294E+03  0.12049304364E+03  0.27779337013E+02  0.34104575705E+03  0.00000000000E+00 0. -1.
        -13    1    5    5    0    0 -0.10071736520E+03  0.99029955158E+02  0.15527983063E+02  0.14209869081E+03  0.00000000000E+00 0.  1.
          3    1    6    6  503    0  0.10598177097E+03  0.45313003122E+02  0.72640115862E+03  0.73548898515E+03  0.00000000000E+00 0. -1.
         -3    1    6    6    0  503  0.20580736588E+02  0.40873920578E+01  0.20524357979E+02  0.29351708004E+02  0.00000000000E+00 0.  1.
<mgrwt>
<rscale>  0 0.13791219E+04</rscale>
<asrwt>0</asrwt>
<pdfrwt beam="1">  1        2 0.20840647E+00 0.13791219E+04</pdfrwt>
<pdfrwt beam="2">  1       -1 0.54001699E-01 0.13791219E+04</pdfrwt>
<totfact> 0.59096704E+01</totfact>
</mgrwt>
</event>
<event>
12    7  0.1637954E-007  0.1588584E+04  0.7818608E-02  0.8827592E-01
         -1   -1    0    0    0  501 -0.00000000000E+00  0.00000000000E+00  0.92898578868E+03  0.92898578868E+03  0.00000000000E+00 0.  1.
          2   -1    0    0  501    0  0.00000000000E+00 -0.00000000000E+00 -0.67912721764E+03  0.67912721764E+03  0.00000000000E+00 0. -1.
         24    2    1    2    0    0 -0.24129677475E+03  0.35271734382E+03 -0.24570316470E+03  0.49956246589E+03  0.80987369677E+02 0.  0.
        254    2    1    2    0    0  0.24129677475E+03 -0.35271734382E+03  0.49556173575E+03  0.11085505404E+04  0.89480121178E+03 0.  0.
         23    2    4    4    0    0 -0.16242952047E+03 -0.50969848333E+03  0.33551268790E+03  0.63793515958E+03  0.90645524190E+02 0.  0.
         23    2    4    4    0    0  0.40372629522E+03  0.15698113951E+03  0.16004904785E+03  0.47061538085E+03  0.90692554037E+02 0.  0.
          2    1    3    3  502    0 -0.22420137361E+03  0.27346450432E+03 -0.20656842392E+03  0.40953584069E+03  0.00000000000E+00 0. -1.
         -1    1    3    3    0  502 -0.17095401147E+02  0.79252839501E+02 -0.39134740782E+02  0.90026625203E+02  0.00000000000E+00 0.  1.
         13    1    5    5    0    0 -0.77159688382E+02 -0.13260565164E+03  0.12386029143E+03  0.19717821419E+03  0.00000000000E+00 0.  1.
        -13    1    5    5    0    0 -0.85269832087E+02 -0.37709283169E+03  0.21165239647E+03  0.44075694539E+03  0.00000000000E+00 0. -1.
          2    1    6    6  503    0  0.38658143453E+03  0.15381827400E+03  0.13003698330E+03  0.43590696710E+03  0.00000000000E+00 0. -1.
         -2    1    6    6    0  503  0.17144860691E+02  0.31628655079E+01  0.30012064550E+02  0.34708413748E+02  0.00000000000E+00 0.  1.
<mgrwt>
<rscale>  0 0.15885837E+04</rscale>
<asrwt>0</asrwt>
<pdfrwt beam="1">  1        2 0.10448111E+00 0.15885837E+04</pdfrwt>
<pdfrwt beam="2">  1       -1 0.14292089E+00 0.15885837E+04</pdfrwt>
<totfact> 0.18528320E+01</totfact>
</mgrwt>
</event>
<event>
12    7  0.1637954E-007  0.1220789E+04  0.7818608E-02  0.9094852E-01
          2   -1    0    0  501    0  0.00000000000E+00  0.00000000000E+00  0.89931679955E+03  0.89931679955E+03  0.00000000000E+00 0. -1.
         -1   -1    0    0    0  501 -0.00000000000E+00 -0.00000000000E+00 -0.41429393491E+03  0.41429393491E+03  0.00000000000E+00 0.  1.
         24    2    1    2    0    0  0.22763110644E+03  0.15570150293E+03  0.56150467559E+02  0.29233025651E+03  0.79026737416E+02 0.  0.
        254    2    1    2    0    0 -0.22763110644E+03 -0.15570150293E+03  0.42887239708E+03  0.10212804780E+04  0.88488609608E+03 0.  0.
         23    2    4    4    0    0  0.32765226879E+03 -0.10568508051E+03  0.21907229575E+03  0.41770819424E+03  0.89230708180E+02 0.  0.
         23    2    4    4    0    0 -0.55528337523E+03 -0.50016422424E+02  0.20980010133E+03  0.60357228372E+03  0.97170725161E+02 0.  0.
          4    1    3    3  502    0  0.16253768620E+03  0.82495252721E+02  0.66045502620E+02  0.19387102561E+03  0.00000000000E+00 0. -1.
         -3    1    3    3    0  502  0.65093420242E+02  0.73206250212E+02 -0.98950350608E+01  0.98459230892E+02  0.00000000000E+00 0.  1.
         13    1    5    5    0    0  0.35241228995E+02 -0.44740234529E+02  0.34431583492E+02  0.66551985308E+02  0.00000000000E+00 0. -1.
        -13    1    5    5    0    0  0.29241103980E+03 -0.60944845980E+02  0.18464071226E+03  0.35115620893E+03  0.00000000000E+00 0.  1.
          2    1    6    6  503    0 -0.45070467090E+03 -0.57154526138E+01  0.18554338613E+03  0.48743585722E+03  0.00000000000E+00 0.  1.
         -2    1    6    6    0  503 -0.10457870433E+03 -0.44300969811E+02  0.24256715201E+02  0.11613642649E+03  0.00000000000E+00 0. -1.
<mgrwt>
<rscale>  0 0.12207891E+04</rscale>
<asrwt>0</asrwt>
<pdfrwt beam="1">  1        2 0.13835643E+00 0.12207891E+04</pdfrwt>
<pdfrwt beam="2">  1       -1 0.63737529E-01 0.12207891E+04</pdfrwt>
<totfact> 0.82412007E+01</totfact>
</mgrwt>
</event>
<event>
12    7  0.2048161E-007  0.1616734E+04  0.7818608E-02  0.8810333E-01
         -1   -1    0    0    0  501 -0.00000000000E+00  0.00000000000E+00  0.30284309565E+03  0.30284309565E+03  0.00000000000E+00 0.  1.
          2   -1    0    0  501    0  0.00000000000E+00 -0.00000000000E+00 -0.21577427618E+04  0.21577427618E+04  0.00000000000E+00 0. -1.
         24    2    1    2    0    0  0.23398038886E+03  0.78490032496E+02  0.11304717163E+03  0.28266791721E+03  0.78828807103E+02 0.  0.
        254    2    1    2    0    0 -0.23398038886E+03 -0.78490032496E+02 -0.19679468378E+04  0.21779179403E+04  0.89978013457E+03 0.  0.
         23    2    4    4    0    0 -0.25719576557E+03 -0.46017705996E+03 -0.12268583311E+04  0.13389533610E+04  0.98499491867E+02 0.  0.
         23    2    4    4    0    0  0.23215376702E+02  0.38168702746E+03 -0.74108850664E+03  0.83896457926E+03  0.91790249619E+02 0.  0.
          2    1    3    3  502    0  0.11470668352E+02 -0.12013391735E+02  0.17566819263E+02  0.24176247691E+02  0.00000000000E+00 0. -1.
         -1    1    3    3    0  502  0.22250972051E+03  0.90503424231E+02  0.95480352366E+02  0.25849166951E+03  0.00000000000E+00 0.  1.
         13    1    5    5    0    0 -0.23889124207E+03 -0.41368279956E+03 -0.10226860606E+04  0.11287556257E+04  0.00000000000E+00 0. -1.
        -13    1    5    5    0    0 -0.18304523498E+02 -0.46494260399E+02 -0.20417227059E+03  0.21019773526E+03  0.00000000000E+00 0.  1.
          1    1    6    6  503    0 -0.48072187262E+01  0.30431545879E+03 -0.51304973094E+03  0.59653250895E+03  0.00000000000E+00 0. -1.
         -1    1    6    6    0  503  0.28022595428E+02  0.77371568674E+02 -0.22803877569E+03  0.24243207031E+03  0.00000000000E+00 0.  1.
<mgrwt>
<rscale>  0 0.16167344E+04</rscale>
<asrwt>0</asrwt>
<pdfrwt beam="1">  1        2 0.33196042E+00 0.16167344E+04</pdfrwt>
<pdfrwt beam="2">  1       -1 0.46591246E-01 0.16167344E+04</pdfrwt>
<totfact> 0.27312565E+01</totfact>
</mgrwt>
</event>
<event>
12    7  0.1637954E-007  0.1757782E+04  0.7818608E-02  0.8729078E-01
         -1   -1    0    0    0  501 -0.00000000000E+00  0.00000000000E+00  0.46138396290E+03  0.46138396290E+03  0.00000000000E+00 0.  1.
          2   -1    0    0  501    0  0.00000000000E+00 -0.00000000000E+00 -0.16742014595E+04  0.16742014595E+04  0.00000000000E+00 0. -1.
         24    2    1    2    0    0 -0.59420967798E+03 -0.18005034173E+03 -0.61885627003E+03  0.88029152964E+03  0.80167494951E+02 0.  0.
        254    2    1    2    0    0  0.59420967798E+03  0.18005034173E+03 -0.59396122653E+03  0.12552938927E+04  0.91513362495E+03 0.  0.
         23    2    4    4    0    0  0.35484155592E+02  0.42782757247E+03 -0.69998082933E+02  0.44462557313E+03  0.92177066604E+02 0.  0.
         23    2    4    4    0    0  0.55872552238E+03 -0.24777723074E+03 -0.52396314360E+03  0.81066831959E+03  0.95278450347E+02 0.  0.
          4    1    3    3  502    0 -0.44233765331E+03 -0.13211196678E+03 -0.50694255391E+03  0.68564343814E+03  0.00000000000E+00 0. -1.
         -3    1    3    3    0  502 -0.15187202466E+03 -0.47938374951E+02 -0.11191371612E+03  0.19464809150E+03  0.00000000000E+00 0.  1.
         13    1    5    5    0    0  0.32722572929E+02  0.52929781696E+02 -0.24860259095E+02  0.67010156333E+02  0.00000000000E+00 0.  1.
        -13    1    5    5    0    0  0.27615826633E+01  0.37489779077E+03 -0.45137823837E+02  0.37761541680E+03  0.00000000000E+00 0. -1.
          2    1    6    6  503    0  0.70127811186E+01  0.78496014115E+01 -0.91693479935E+01  0.13959666327E+02  0.00000000000E+00 0.  1.
         -2    1    6    6    0  503  0.55171274127E+03 -0.25562683215E+03 -0.51479379560E+03  0.79670865326E+03  0.00000000000E+00 0. -1.
<mgrwt>
<rscale>  0 0.17577824E+04</rscale>
<asrwt>0</asrwt>
<pdfrwt beam="1">  1        2 0.25756946E+00 0.17577824E+04</pdfrwt>
<pdfrwt beam="2">  1       -1 0.70982146E-01 0.17577824E+04</pdfrwt>
<totfact> 0.21928413E+01</totfact>
</mgrwt>
</event>
<event>
12    7  0.1637954E-007  0.1569017E+04  0.7818608E-02  0.8839811E-01
         -1   -1    0    0    0  501 -0.00000000000E+00  0.00000000000E+00  0.49724907179E+03  0.49724907179E+03  0.00000000000E+00 0.  1.
          2   -1    0    0  501    0  0.00000000000E+00 -0.00000000000E+00 -0.12377174657E+04  0.12377174657E+04  0.00000000000E+00 0. -1.
         24    2    1    2    0    0 -0.27072219569E+03 -0.33373465968E+01 -0.54135552388E+03  0.61051246159E+03  0.79737177056E+02 0.  0.
        254    2    1    2    0    0  0.27072219569E+03  0.33373465968E+01 -0.19911286999E+03  0.11244540759E+04  0.10730560976E+04 0.  0.
         23    2    4    4    0    0  0.61363649865E+02 -0.47482410794E+03  0.12713065307E+03  0.50364434558E+03  0.90950496851E+02 0.  0.
         23    2    4    4    0    0  0.20935854583E+03  0.47816145454E+03 -0.32624352307E+03  0.62080973028E+03  0.80625725069E+02 0.  0.
          2    1    3    3  502    0 -0.18802759437E+03  0.14707670958E+02 -0.29611447847E+03  0.35107616864E+03  0.00000000000E+00 0. -1.
         -1    1    3    3    0  502 -0.82694601317E+02 -0.18045017554E+02 -0.24524104541E+03  0.25943629295E+03  0.00000000000E+00 0.  1.
         13    1    5    5    0    0  0.76301184554E+02 -0.32175294990E+03  0.61114652494E+02  0.33627642243E+03  0.00000000000E+00 0. -1.
        -13    1    5    5    0    0 -0.14937534690E+02 -0.15307115804E+03  0.66016000581E+02  0.16736792315E+03  0.00000000000E+00 0.  1.
          3    1    6    6  503    0  0.61310560670E+02  0.18848986711E+03 -0.84307966806E+02  0.21539556198E+03  0.00000000000E+00 0. -1.
         -3    1    6    6    0  503  0.14804798516E+03  0.28967158743E+03 -0.24193555626E+03  0.40541416830E+03  0.00000000000E+00 0.  1.
<mgrwt>
<rscale>  0 0.15690173E+04</rscale>
<asrwt>0</asrwt>
<pdfrwt beam="1">  1        2 0.19041807E+00 0.15690173E+04</pdfrwt>
<pdfrwt beam="2">  1       -1 0.76499857E-01 0.15690173E+04</pdfrwt>
<totfact> 0.33808802E+01</totfact>
</mgrwt>
</event>
<event>
12    7  0.1637954E-007  0.1528112E+04  0.7818608E-02  0.8865971E-01
         -1   -1    0    0    0  501 -0.00000000000E+00  0.00000000000E+00  0.32848222433E+03  0.32848222433E+03  0.00000000000E+00 0.  1.
          2   -1    0    0  501    0  0.00000000000E+00 -0.00000000000E+00 -0.17772085099E+04  0.17772085099E+04  0.00000000000E+00 0. -1.
         24    2    1    2    0    0  0.15563189632E+03  0.82701422171E+02  0.16337685133E+03  0.25410163253E+03  0.82551994052E+02 0.  0.
        254    2    1    2    0    0 -0.15563189632E+03 -0.82701422171E+02 -0.16121031369E+04  0.18515891017E+04  0.89355742134E+03 0.  0.
         23    2    4    4    0    0  0.32369764200E+03 -0.14847883889E+03 -0.10020244977E+04  0.10672145418E+04  0.89820125887E+02 0.  0.
         23    2    4    4    0    0 -0.47932953832E+03  0.65777416724E+02 -0.61007863917E+03  0.78437455998E+03  0.94678558857E+02 0.  0.
          4    1    3    3  502    0  0.10508413585E+02  0.41656668803E+02  0.46421473775E+02  0.63250755247E+02  0.00000000000E+00 0. -1.
         -3    1    3    3    0  502  0.14512348274E+03  0.41044753368E+02  0.11695537755E+03  0.19085087728E+03  0.00000000000E+00 0.  1.
         13    1    5    5    0    0  0.26323993778E+03 -0.14919755013E+03 -0.88824666218E+03  0.93836949369E+03  0.00000000000E+00 0. -1.
        -13    1    5    5    0    0  0.60457704227E+02  0.71871123388E+00 -0.11377783556E+03  0.12884504806E+03  0.00000000000E+00 0.  1.
          2    1    6    6  503    0 -0.40362340285E+03  0.39395079224E+02 -0.45291672245E+03  0.60794521222E+03  0.00000000000E+00 0. -1.
         -2    1    6    6    0  503 -0.75706135477E+02  0.26382337500E+02 -0.15716191672E+03  0.17642934776E+03  0.00000000000E+00 0.  1.
<mgrwt>
<rscale>  0 0.15281118E+04</rscale>
<asrwt>0</asrwt>
<pdfrwt beam="1">  1        2 0.27341669E+00 0.15281118E+04</pdfrwt>
<pdfrwt beam="2">  1       -1 0.50535727E-01 0.15281118E+04</pdfrwt>
<totfact> 0.38377201E+01</totfact>
</mgrwt>
</event>
<event>
12    7  0.1637954E-007  0.2839584E+04  0.7818608E-02  0.8291083E-01
         -1   -1    0    0    0  501 -0.00000000000E+00  0.00000000000E+00  0.46295306238E+03  0.46295306238E+03  0.00000000000E+00 0.  1.
          2   -1    0    0  501    0  0.00000000000E+00 -0.00000000000E+00 -0.43542424191E+04  0.43542424191E+04  0.00000000000E+00 0. -1.
         24    2    1    2    0    0  0.28803392064E+03  0.11654699812E+04 -0.24569263139E+04  0.27356804489E+04  0.78592555866E+02 0.  0.
        254    2    1    2    0    0 -0.28803392064E+03 -0.11654699812E+04 -0.14343630429E+04  0.20815150327E+04  0.91324896701E+03 0.  0.
         23    2    4    4    0    0  0.38687356252E+02  0.69986662118E+02 -0.45023246107E+03  0.46608527096E+03  0.90174089410E+02 0.  0.
         23    2    4    4    0    0 -0.32672127689E+03 -0.12354566434E+04 -0.98413058183E+03  0.16154297617E+04  0.89444969007E+02 0.  0.
          4    1    3    3  502    0  0.27330997109E+01  0.58017507003E+02 -0.14990869879E+03  0.16076728189E+03  0.00000000000E+00 0. -1.
         -3    1    3    3    0  502  0.28530082093E+03  0.11074524742E+04 -0.23070176151E+04  0.25749131670E+04  0.00000000000E+00 0.  1.
         13    1    5    5    0    0  0.57382733201E+02  0.54946144703E+02 -0.42020018181E+03  0.42764477044E+03  0.00000000000E+00 0.  1.
        -13    1    5    5    0    0 -0.18695376949E+02  0.15040517414E+02 -0.30032279256E+02  0.38440500525E+02  0.00000000000E+00 0. -1.
          4    1    6    6  503    0 -0.26712107979E+03 -0.10503416498E+04 -0.87135949982E+03  0.13906252660E+04  0.00000000000E+00 0.  1.
         -4    1    6    6    0  503 -0.59600197103E+02 -0.18511499361E+03 -0.11277108201E+03  0.22480449571E+03  0.00000000000E+00 0. -1.
<mgrwt>
<rscale>  0 0.28395844E+04</rscale>
<asrwt>0</asrwt>
<pdfrwt beam="1">  1        2 0.66988347E+00 0.28395844E+04</pdfrwt>
<pdfrwt beam="2">  1       -1 0.71223546E-01 0.28395844E+04</pdfrwt>
<totfact> 0.33248070E-01</totfact>
</mgrwt>
</event>
<event>
12    7  0.3072138E-007  0.1845801E+04  0.7818608E-02  0.8682315E-01
         -1   -1    0    0    0  501 -0.00000000000E+00  0.00000000000E+00  0.74631997599E+03  0.74631997599E+03  0.00000000000E+00 0.  1.
          2   -1    0    0  501    0  0.00000000000E+00 -0.00000000000E+00 -0.11412600885E+04  0.11412600885E+04  0.00000000000E+00 0. -1.
         24    2    1    2    0    0  0.10466240385E+02  0.56919015703E-01 -0.90984007625E+03  0.91354030061E+03  0.81470062342E+02 0.  0.
        254    2    1    2    0    0 -0.10466240385E+02 -0.56919015703E-01  0.51489996371E+03  0.97403976391E+03  0.82675385915E+03 0.  0.
         23    2    4    4    0    0  0.61133804692E+02  0.39757868611E+03  0.24643354433E+03  0.48063542446E+03  0.92058490897E+02 0.  0.
         23    2    4    4    0    0 -0.71600045077E+02 -0.39763560513E+03  0.26846641938E+03  0.49340433945E+03  0.90183052376E+02 0.  0.
          4    1    3    3  502    0  0.24562730281E+02  0.17116419681E+01 -0.88150872899E+03  0.88185253683E+03  0.00000000000E+00 0. -1.
         -3    1    3    3    0  502 -0.14096489896E+02 -0.16547229524E+01 -0.28331347264E+02  0.31687763778E+02  0.00000000000E+00 0.  1.
         13    1    5    5    0    0  0.19443911247E+01  0.27438397970E+03  0.14434851138E+03  0.31004329006E+03  0.00000000000E+00 0. -1.
        -13    1    5    5    0    0  0.59189413568E+02  0.12319470641E+03  0.10208503295E+03  0.17059213440E+03  0.00000000000E+00 0.  1.
          1    1    6    6  503    0 -0.29343724249E+02 -0.30768966506E+03  0.23591552245E+03  0.38883173464E+03  0.00000000000E+00 0. -1.
         -1    1    6    6    0  503 -0.42256320828E+02 -0.89945940069E+02  0.32550896933E+02  0.10457260481E+03  0.00000000000E+00 0.  1.
<mgrwt>
<rscale>  0 0.18458009E+04</rscale>
<asrwt>0</asrwt>
<pdfrwt beam="1">  1        2 0.17557848E+00 0.18458009E+04</pdfrwt>
<pdfrwt beam="2">  1       -1 0.11481846E+00 0.18458009E+04</pdfrwt>
<totfact> 0.15192081E+01</totfact>
</mgrwt>
</event>
<event>
12    7  0.1637954E-007  0.3213421E+04  0.7818608E-02  0.8185282E-01
          2   -1    0    0  501    0  0.00000000000E+00  0.00000000000E+00  0.18755680836E+04  0.18755680836E+04  0.00000000000E+00 0. -1.
         -1   -1    0    0    0  501 -0.00000000000E+00 -0.00000000000E+00 -0.13763931456E+04  0.13763931456E+04  0.00000000000E+00 0.  1.
         24    2    1    2    0    0 -0.79191975957E+03  0.12106932995E+04 -0.81865139671E+02  0.14512086277E+04  0.79933779418E+02 0.  0.
        254    2    1    2    0    0  0.79191975957E+03 -0.12106932995E+04  0.58104007769E+03  0.18007526015E+04  0.90121428573E+03 0.  0.
         23    2    4    4    0    0  0.56298836131E+03 -0.96878279967E+03 -0.85301017114E+00  0.11243041867E+04  0.92537390414E+02 0.  0.
         23    2    4    4    0    0  0.22893139826E+03 -0.24191049980E+03  0.58189308786E+03  0.67644841479E+03  0.89736375864E+02 0.  0.
          2    1    3    3  502    0 -0.36592741035E+03  0.54441788412E+03 -0.76125927882E+02  0.66037024395E+03  0.00000000000E+00 0. -1.
         -1    1    3    3    0  502 -0.42599234922E+03  0.66627541535E+03 -0.57392117885E+01  0.79083838377E+03  0.00000000000E+00 0.  1.
         13    1    5    5    0    0  0.89560456388E+02 -0.95498288948E+02 -0.23747295775E+01  0.13094517128E+03  0.00000000000E+00 0.  1.
        -13    1    5    5    0    0  0.47342790492E+03 -0.87328451072E+03  0.15217194064E+01  0.99335901539E+03  0.00000000000E+00 0. -1.
          2    1    6    6  503    0  0.11590965786E+03 -0.10594521227E+03  0.35977442533E+03  0.39255200153E+03  0.00000000000E+00 0. -1.
         -2    1    6    6    0  503  0.11302174040E+03 -0.13596528753E+03  0.22211866253E+03  0.28389641326E+03  0.00000000000E+00 0.  1.
<mgrwt>
<rscale>  0 0.32134213E+04</rscale>
<asrwt>0</asrwt>
<pdfrwt beam="1">  1        2 0.28854893E+00 0.32134213E+04</pdfrwt>
<pdfrwt beam="2">  1       -1 0.21175279E+00 0.32134213E+04</pdfrwt>
<totfact> 0.93783310E-01</totfact>
</mgrwt>
</event>
<event>
12    7  0.1637954E-007  0.1721292E+04  0.7818608E-02  0.8749313E-01
          2   -1    0    0  501    0  0.00000000000E+00  0.00000000000E+00  0.77136103649E+03  0.77136103649E+03  0.00000000000E+00 0. -1.
         -1   -1    0    0    0  501 -0.00000000000E+00 -0.00000000000E+00 -0.96026591339E+03  0.96026591339E+03  0.00000000000E+00 0.  1.
         24    2    1    2    0    0  0.25253064832E+03  0.44016842873E+03 -0.43944495763E+03  0.67603662975E+03  0.79960490126E+02 0.  0.
        254    2    1    2    0    0 -0.25253064832E+03 -0.44016842873E+03  0.25054008073E+03  0.10555903201E+04  0.89105590056E+03 0.  0.
         23    2    4    4    0    0 -0.52778780315E+03 -0.37321565384E+03  0.35104475722E+03  0.74146352871E+03  0.93197926007E+02 0.  0.
         23    2    4    4    0    0  0.27525715484E+03 -0.66952774891E+02 -0.10050467649E+03  0.31412679143E+03  0.91242949009E+02 0.  0.
          2    1    3    3  502    0  0.94157249427E+02  0.13735600982E+03 -0.99349755068E+02  0.19391398837E+03  0.00000000000E+00 0. -1.
         -3    1    3    3    0  502  0.15837339889E+03  0.30281241892E+03 -0.34009520256E+03  0.48212264138E+03  0.00000000000E+00 0.  1.
         13    1    5    5    0    0 -0.50271283168E+03 -0.34242930772E+03  0.34994948426E+03  0.70174259060E+03  0.00000000000E+00 0. -1.
        -13    1    5    5    0    0 -0.25074971471E+02 -0.30786346121E+02  0.10952729519E+01  0.39720938113E+02  0.00000000000E+00 0.  1.
          2    1    6    6  503    0  0.23373987186E+03 -0.79716562098E+02 -0.10887251819E+03  0.26989309585E+03  0.00000000000E+00 0. -1.
         -2    1    6    6    0  503  0.41517282979E+02  0.12763787207E+02  0.83678417094E+01  0.44233695581E+02  0.00000000000E+00 0.  1.
<mgrwt>
<rscale>  0 0.17212922E+04</rscale>
<asrwt>0</asrwt>
<pdfrwt beam="1">  1        2 0.11867093E+00 0.17212922E+04</pdfrwt>
<pdfrwt beam="2">  1       -1 0.14773322E+00 0.17212922E+04</pdfrwt>
<totfact> 0.14252048E+01</totfact>
</mgrwt>
</event>
<event>
12    7  0.1637954E-007  0.1055207E+04  0.7818608E-02  0.9249985E-01
          2   -1    0    0  501    0  0.00000000000E+00  0.00000000000E+00  0.20013302755E+04  0.20013302755E+04  0.00000000000E+00 0. -1.
         -1   -1    0    0    0  501 -0.00000000000E+00 -0.00000000000E+00 -0.13909010698E+03  0.13909010698E+03  0.00000000000E+00 0.  1.
         24    2    1    2    0    0  0.58924275568E+02 -0.10559190968E+03  0.18589190142E+03  0.23456944362E+03  0.76454582771E+02 0.  0.
        254    2    1    2    0    0 -0.58924275568E+02  0.10559190968E+03  0.16763482671E+04  0.19058509389E+04  0.89861146604E+03 0.  0.
         23    2    4    4    0    0  0.23947002437E+02 -0.85671155832E+02 -0.69675884701E+02  0.14508756894E+03  0.91009163746E+02 0.  0.
         23    2    4    4    0    0 -0.82871278005E+02  0.19126306551E+03  0.17460241518E+04  0.17607633699E+04  0.90763964228E+02 0.  0.
          4    1    3    3  502    0 -0.53868643202E+01 -0.26358826007E+02  0.57201091219E+01  0.27505011617E+02  0.00000000000E+00 0. -1.
         -3    1    3    3    0  502  0.64311139889E+02 -0.79233083672E+02  0.18017179229E+03  0.20706443200E+03  0.00000000000E+00 0.  1.
         13    1    5    5    0    0 -0.80816055469E+01 -0.80948508415E+02 -0.76868920505E+02  0.11192320717E+03  0.00000000000E+00 0. -1.
        -13    1    5    5    0    0  0.32028607983E+02 -0.47226474164E+01  0.71930358039E+01  0.33164361777E+02  0.00000000000E+00 0.  1.
          1    1    6    6  503    0 -0.74955657341E+02  0.10125123395E+03  0.73581995718E+03  0.74652606943E+03  0.00000000000E+00 0. -1.
         -1    1    6    6    0  503 -0.79156206636E+01  0.90011831557E+02  0.10102041946E+04  0.10142373005E+04  0.00000000000E+00 0.  1.
<mgrwt>
<rscale>  0 0.10552066E+04</rscale>
<asrwt>0</asrwt>
<pdfrwt beam="1">  1        2 0.30789694E+00 0.10552066E+04</pdfrwt>
<pdfrwt beam="2">  1       -1 0.21398479E-01 0.10552066E+04</pdfrwt>
<totfact> 0.13845611E+02</totfact>
</mgrwt>
</event>
<event>
12    7  0.1637954E-007  0.1864040E+04  0.7818608E-02  0.8672966E-01
          2   -1    0    0  501    0  0.00000000000E+00  0.00000000000E+00  0.13402720342E+04  0.13402720342E+04  0.00000000000E+00 0. -1.
         -1   -1    0    0    0  501 -0.00000000000E+00 -0.00000000000E+00 -0.64812310542E+03  0.64812310542E+03  0.00000000000E+00 0.  1.
         24    2    1    2    0    0 -0.20486082121E+03 -0.57558247792E+03 -0.12662656762E+03  0.62899502554E+03  0.79607220547E+02 0.  0.
        254    2    1    2    0    0  0.20486082121E+03  0.57558247792E+03  0.81877549644E+03  0.13594001141E+04  0.89683455094E+03 0.  0.
         23    2    4    4    0    0  0.15863741316E+03  0.48133681852E+03  0.10062461644E+04  0.11298774025E+04  0.85091947499E+02 0.  0.
         23    2    4    4    0    0  0.46223408052E+02  0.94245659408E+02 -0.18747066798E+03  0.22952271164E+03  0.80725312243E+02 0.  0.
          4    1    3    3  502    0 -0.63551295473E+02 -0.89236273483E+02 -0.18095681742E+02  0.11103753131E+03  0.00000000000E+00 0. -1.
         -1    1    3    3    0  502 -0.14130952574E+03 -0.48634620444E+03 -0.10853088587E+03  0.51795749423E+03  0.00000000000E+00 0.  1.
         13    1    5    5    0    0  0.95536013640E+02  0.35555850474E+03  0.79419347677E+03  0.87538120767E+03  0.00000000000E+00 0.  1.
        -13    1    5    5    0    0  0.63101399523E+02  0.12577831377E+03  0.21205268765E+03  0.25449619482E+03  0.00000000000E+00 0. -1.
          3    1    6    6  503    0  0.18643191489E+02  0.78392156658E+02 -0.17945634600E+03  0.19671674798E+03  0.00000000000E+00 0.  1.
         -3    1    6    6    0  503  0.27580216562E+02  0.15853502750E+02 -0.80143219777E+01  0.32805963662E+02  0.00000000000E+00 0. -1.
<mgrwt>
<rscale>  0 0.18640400E+04</rscale>
<asrwt>0</asrwt>
<pdfrwt beam="1">  1        2 0.20619570E+00 0.18640400E+04</pdfrwt>
<pdfrwt beam="2">  1       -1 0.99711247E-01 0.18640400E+04</pdfrwt>
<totfact> 0.16090532E+01</totfact>
</mgrwt>
</event>
<event>
12    7  0.1637954E-007  0.1461170E+04  0.7818608E-02  0.8910693E-01
         -1   -1    0    0    0  501 -0.00000000000E+00  0.00000000000E+00  0.24045621171E+03  0.24045621171E+03  0.00000000000E+00 0.  1.
          2   -1    0    0  501    0  0.00000000000E+00 -0.00000000000E+00 -0.22197577230E+04  0.22197577230E+04  0.00000000000E+00 0. -1.
         24    2    1    2    0    0  0.33700441341E+03 -0.29962419274E+03 -0.54586481894E+03  0.71293631201E+03  0.83445508530E+02 0.  0.
        254    2    1    2    0    0 -0.33700441341E+03  0.29962419274E+03 -0.14334366923E+04  0.17472776227E+04  0.89156699595E+03 0.  0.
         23    2    4    4    0    0  0.19470795898E+02  0.39143952946E+02 -0.12601538814E+04  0.12642468005E+04  0.91764953881E+02 0.  0.
         23    2    4    4    0    0 -0.35647520931E+03  0.26048023979E+03 -0.17328281094E+03  0.48303082221E+03  0.91473014952E+02 0.  0.
          2    1    3    3  502    0  0.15999230328E+02 -0.29481689802E+02 -0.16230867610E+02  0.37263742003E+02  0.00000000000E+00 0. -1.
         -1    1    3    3    0  502  0.32100518309E+03 -0.27014250294E+03 -0.52963395133E+03  0.67567257001E+03  0.00000000000E+00 0.  1.
         13    1    5    5    0    0  0.37435313222E+02 -0.16124481974E+02 -0.66990667330E+03  0.67114555241E+03  0.00000000000E+00 0.  1.
        -13    1    5    5    0    0 -0.17964517323E+02  0.55268434920E+02 -0.59024720810E+03  0.59310124806E+03  0.00000000000E+00 0. -1.
          1    1    6    6  503    0 -0.60509894037E+02  0.51592079373E+02  0.42072584021E+01  0.79629711501E+02  0.00000000000E+00 0. -1.
         -1    1    6    6    0  503 -0.29596531528E+03  0.20888816042E+03 -0.17749006934E+03  0.40340111071E+03  0.00000000000E+00 0.  1.
<mgrwt>
<rscale>  0 0.14611701E+04</rscale>
<asrwt>0</asrwt>
<pdfrwt beam="1">  1        2 0.34150121E+00 0.14611701E+04</pdfrwt>
<pdfrwt beam="2">  1       -1 0.36993261E-01 0.14611701E+04</pdfrwt>
<totfact> 0.39061492E+01</totfact>
</mgrwt>
</event>
<event>
12    7  0.1637954E-007  0.3038367E+04  0.7818608E-02  0.8232859E-01
          2   -1    0    0  501    0  0.00000000000E+00  0.00000000000E+00  0.23528306189E+04  0.23528306189E+04  0.00000000000E+00 0. -1.
         -1   -1    0    0    0  501 -0.00000000000E+00 -0.00000000000E+00 -0.98091151830E+03  0.98091151830E+03  0.00000000000E+00 0.  1.
         24    2    1    2    0    0 -0.39530679694E+03  0.10859283620E+03  0.20775715931E+04  0.21192855188E+04  0.83710917101E+02 0.  0.
        254    2    1    2    0    0  0.39530679694E+03 -0.10859283620E+03 -0.70565249257E+03  0.12144566184E+04  0.89938844220E+03 0.  0.
         23    2    4    4    0    0  0.60964340527E+03 -0.30138603617E+03 -0.48154919790E+03  0.83862320358E+03  0.94343114183E+02 0.  0.
         23    2    4    4    0    0 -0.21433660833E+03  0.19279319997E+03 -0.22410329467E+03  0.37583341483E+03  0.88989153265E+02 0.  0.
          2    1    3    3  502    0 -0.18203793146E+03  0.90510780489E+02  0.10882140139E+04  0.11070409883E+04  0.00000000000E+00 0. -1.
         -1    1    3    3    0  502 -0.21326886548E+03  0.18082055711E+02  0.98935757927E+03  0.10122445304E+04  0.00000000000E+00 0.  1.
         13    1    5    5    0    0  0.21916419008E+03 -0.68376249153E+02 -0.19438042127E+03  0.30081888544E+03  0.00000000000E+00 0. -1.
        -13    1    5    5    0    0  0.39047921519E+03 -0.23300978702E+03 -0.28716877663E+03  0.53780431814E+03  0.00000000000E+00 0.  1.
          3    1    6    6  503    0 -0.59940739367E+02  0.33828652703E+02 -0.13541743140E+02  0.70147336277E+02  0.00000000000E+00 0. -1.
         -3    1    6    6    0  503 -0.15439586897E+03  0.15896454727E+03 -0.21056155153E+03  0.30568607856E+03  0.00000000000E+00 0.  1.
<mgrwt>
<rscale>  0 0.30383671E+04</rscale>
<asrwt>0</asrwt>
<pdfrwt beam="1">  1        2 0.36197394E+00 0.30383671E+04</pdfrwt>
<pdfrwt beam="2">  1       -1 0.15090947E+00 0.30383671E+04</pdfrwt>
<totfact> 0.14083886E+00</totfact>
</mgrwt>
</event>
<event>
12    7  0.1637954E-007  0.1398452E+04  0.7818608E-02  0.8954940E-01
          2   -1    0    0  501    0  0.00000000000E+00  0.00000000000E+00  0.14198184197E+04  0.14198184197E+04  0.00000000000E+00 0. -1.
         -1   -1    0    0    0  501 -0.00000000000E+00 -0.00000000000E+00 -0.34435181694E+03  0.34435181694E+03  0.00000000000E+00 0.  1.
         24    2    1    2    0    0  0.26001795732E+03  0.20590342185E+03  0.60838637518E+03  0.69757185101E+03  0.80417339848E+02 0.  0.
        254    2    1    2    0    0 -0.26001795732E+03 -0.20590342185E+03  0.46708022759E+03  0.10665983856E+04  0.89970140603E+03 0.  0.
         23    2    4    4    0    0  0.52838119767E+02  0.14347885003E+03 -0.18339854418E+03  0.25939020568E+03  0.10134202233E+03 0.  0.
         23    2    4    4    0    0 -0.31285607709E+03 -0.34938227188E+03  0.65047877176E+03  0.80720817997E+03  0.92279555833E+02 0.  0.
          4    1    3    3  502    0  0.21119781752E+03  0.15214746599E+03  0.53149381635E+03  0.59180997487E+03  0.00000000000E+00 0. -1.
         -3    1    3    3    0  502  0.48820139804E+02  0.53755955861E+02  0.76892558833E+02  0.10576187614E+03  0.00000000000E+00 0.  1.
         13    1    5    5    0    0 -0.25922130592E+02  0.12537715809E+02 -0.43818015966E+02  0.52432525167E+02  0.00000000000E+00 0. -1.
        -13    1    5    5    0    0  0.78760250358E+02  0.13094113422E+03 -0.13958052821E+03  0.20695768051E+03  0.00000000000E+00 0.  1.
          2    1    6    6  503    0 -0.33844105771E+02 -0.16348629659E+02  0.23221329972E+02  0.44180667184E+02  0.00000000000E+00 0. -1.
         -2    1    6    6    0  503 -0.27901197131E+03 -0.33303364222E+03  0.62725744179E+03  0.76302751279E+03  0.00000000000E+00 0.  1.
<mgrwt>
<rscale>  0 0.13984521E+04</rscale>
<asrwt>0</asrwt>
<pdfrwt beam="1">  1        2 0.21843360E+00 0.13984521E+04</pdfrwt>
<pdfrwt beam="2">  1       -1 0.52977204E-01 0.13984521E+04</pdfrwt>
<totfact> 0.56176347E+01</totfact>
</mgrwt>
</event>
<event>
12    7  0.1637954E-007  0.1821997E+04  0.7818608E-02  0.8694689E-01
          2   -1    0    0  501    0  0.00000000000E+00  0.00000000000E+00  0.13151081768E+04  0.13151081768E+04  0.00000000000E+00 0. -1.
         -1   -1    0    0    0  501 -0.00000000000E+00 -0.00000000000E+00 -0.63106435240E+03  0.63106435240E+03  0.00000000000E+00 0.  1.
         24    2    1    2    0    0 -0.17193849197E+03 -0.57134840910E+02  0.96302840391E+03  0.98274346105E+03  0.74389303282E+02 0.  0.
        254    2    1    2    0    0  0.17193849197E+03  0.57134840910E+02 -0.27898457947E+03  0.96342906818E+03  0.90417693997E+03 0.  0.
         23    2    4    4    0    0 -0.26638814737E+03  0.26021709440E+03 -0.27547136425E+03  0.47161330449E+03  0.88651312352E+02 0.  0.
         23    2    4    4    0    0  0.43832663933E+03 -0.20308225349E+03 -0.35132152216E+01  0.49181576369E+03  0.92183286454E+02 0.  0.
          2    1    3    3  502    0 -0.74140640083E+02 -0.41329797840E+02  0.61705897103E+03  0.62286977807E+03  0.00000000000E+00 0. -1.
         -1    1    3    3    0  502 -0.97797851882E+02 -0.15805043069E+02  0.34596943288E+03  0.35987368299E+03  0.00000000000E+00 0.  1.
         13    1    5    5    0    0 -0.32344537730E+02  0.23325514092E+02 -0.70598774444E+00  0.39884171639E+02  0.00000000000E+00 0. -1.
        -13    1    5    5    0    0 -0.23404360964E+03  0.23689158030E+03 -0.27476537650E+03  0.43172913286E+03  0.00000000000E+00 0.  1.
          4    1    6    6  503    0  0.30574318502E+03 -0.14583986768E+03 -0.44608503081E+02  0.34166954904E+03  0.00000000000E+00 0. -1.
         -4    1    6    6    0  503  0.13258345431E+03 -0.57242385806E+02  0.41095287859E+02  0.15014621465E+03  0.00000000000E+00 0.  1.
<mgrwt>
<rscale>  0 0.18219966E+04</rscale>
<asrwt>0</asrwt>
<pdfrwt beam="1">  1        2 0.20232434E+00 0.18219966E+04</pdfrwt>
<pdfrwt beam="2">  1       -1 0.97086823E-01 0.18219966E+04</pdfrwt>
<totfact> 0.17743386E+01</totfact>
</mgrwt>
</event>
<event>
12    7  0.1637954E-007  0.2295789E+04  0.7818608E-02  0.8479583E-01
         -1   -1    0    0    0  501 -0.00000000000E+00  0.00000000000E+00  0.12418185261E+04  0.12418185261E+04  0.00000000000E+00 0.  1.
          2   -1    0    0  501    0  0.00000000000E+00 -0.00000000000E+00 -0.10610743772E+04  0.10610743772E+04  0.00000000000E+00 0. -1.
         24    2    1    2    0    0  0.20099020685E+03 -0.87009155670E+03 -0.30677663532E+03  0.94763399925E+03  0.80261524163E+02 0.  0.
        254    2    1    2    0    0 -0.20099020685E+03  0.87009155670E+03  0.48752078419E+03  0.13552589041E+04  0.89531770994E+03 0.  0.
         23    2    4    4    0    0 -0.13837881274E+03  0.27465419295E+03 -0.24564072688E+03  0.40442836086E+03  0.92947893164E+02 0.  0.
         23    2    4    4    0    0 -0.62611394112E+02  0.59543736375E+03  0.73316151107E+03  0.95083054320E+03  0.89928192155E+02 0.  0.
          4    1    3    3  502    0  0.15366711910E+03 -0.60467243468E+03 -0.17759087302E+03  0.64867623275E+03  0.00000000000E+00 0. -1.
         -3    1    3    3    0  502  0.47323087746E+02 -0.26541912202E+03 -0.12918576230E+03  0.29895776650E+03  0.00000000000E+00 0.  1.
         13    1    5    5    0    0 -0.23161017839E+02  0.16717283868E+02  0.21617245314E+01  0.28645652029E+02  0.00000000000E+00 0. -1.
        -13    1    5    5    0    0 -0.11521779490E+03  0.25793690908E+03 -0.24780245141E+03  0.37578270883E+03  0.00000000000E+00 0.  1.
          3    1    6    6  503    0 -0.30986911772E+02  0.30842671663E+03  0.30875765153E+03  0.43751401762E+03  0.00000000000E+00 0. -1.
         -3    1    6    6    0  503 -0.31624482341E+02  0.28701064711E+03  0.42440385954E+03  0.51331652558E+03  0.00000000000E+00 0.  1.
<mgrwt>
<rscale>  0 0.22957890E+04</rscale>
<asrwt>0</asrwt>
<pdfrwt beam="1">  1        2 0.16324221E+00 0.22957890E+04</pdfrwt>
<pdfrwt beam="2">  1       -1 0.19104900E+00 0.22957890E+04</pdfrwt>
<totfact> 0.41384250E+00</totfact>
</mgrwt>
</event>
<event>
12    7  0.1637954E-007  0.1111192E+04  0.7818608E-02  0.9194352E-01
          2   -1    0    0  501    0  0.00000000000E+00  0.00000000000E+00  0.76963633945E+03  0.76963633945E+03  0.00000000000E+00 0. -1.
         -1   -1    0    0    0  501 -0.00000000000E+00 -0.00000000000E+00 -0.40108122931E+03  0.40108122931E+03  0.00000000000E+00 0.  1.
         24    2    1    2    0    0  0.52217593362E+02 -0.16646254855E+03  0.12117565766E+03  0.22678713891E+03  0.79450671714E+02 0.  0.
        254    2    1    2    0    0 -0.52217593362E+02  0.16646254855E+03  0.24737945247E+03  0.94393042985E+03  0.89407583894E+03 0.  0.
         23    2    4    4    0    0 -0.39636839003E+03 -0.13187788611E+03  0.21450559941E+03  0.47822111923E+03  0.90460539715E+02 0.  0.
         23    2    4    4    0    0  0.34415079667E+03  0.29834043466E+03  0.32873853058E+02  0.46570931062E+03  0.91420380570E+02 0.  0.
          2    1    3    3  502    0  0.24801724777E+02 -0.83195912191E+02  0.13370261541E+02  0.87837630039E+02  0.00000000000E+00 0. -1.
         -1    1    3    3    0  502  0.27415868585E+02 -0.83266636362E+02  0.10780539612E+03  0.13894950887E+03  0.00000000000E+00 0.  1.
         13    1    5    5    0    0 -0.39101580980E+03 -0.14150271770E+03  0.21265716812E+03  0.46705401592E+03  0.00000000000E+00 0. -1.
        -13    1    5    5    0    0 -0.53525802244E+01  0.96248315929E+01  0.18484312948E+01  0.11167103317E+02  0.00000000000E+00 0.  1.
          4    1    6    6  503    0  0.15189659708E+03  0.15795544443E+03  0.57011182485E+02  0.22643492125E+03  0.00000000000E+00 0. -1.
         -4    1    6    6    0  503  0.19225419958E+03  0.14038499023E+03 -0.24137329426E+02  0.23927438937E+03  0.00000000000E+00 0.  1.
<mgrwt>
<rscale>  0 0.11111916E+04</rscale>
<asrwt>0</asrwt>
<pdfrwt beam="1">  1        2 0.11840559E+00 0.11111916E+04</pdfrwt>
<pdfrwt beam="2">  1       -1 0.61704805E-01 0.11111916E+04</pdfrwt>
<totfact> 0.10941956E+02</totfact>
</mgrwt>
</event>
<event>
12    7  0.1637954E-007  0.2773672E+04  0.7818608E-02  0.8311489E-01
          2   -1    0    0  501    0  0.00000000000E+00  0.00000000000E+00  0.15809662266E+04  0.15809662266E+04  0.00000000000E+00 0. -1.
         -1   -1    0    0    0  501 -0.00000000000E+00 -0.00000000000E+00 -0.12165430378E+04  0.12165430378E+04  0.00000000000E+00 0.  1.
         24    2    1    2    0    0 -0.32102079238E+03 -0.78561463039E+03 -0.74792774715E+03  0.11346022595E+04  0.87645169496E+02 0.  0.
        254    2    1    2    0    0  0.32102079238E+03  0.78561463039E+03  0.11123509359E+04  0.16629070048E+04  0.89871597601E+03 0.  0.
         23    2    4    4    0    0  0.24218687602E+03  0.42508436658E+02  0.81085834006E+03  0.85184774653E+03  0.87703395141E+02 0.  0.
         23    2    4    4    0    0  0.78833916356E+02  0.74310619373E+03  0.30149259585E+03  0.81105925832E+03  0.92183152619E+02 0.  0.
          4    1    3    3  502    0 -0.41097896173E+02 -0.14660912225E+03 -0.97525816057E+02  0.18081636153E+03  0.00000000000E+00 0. -1.
         -3    1    3    3    0  502 -0.27992289621E+03 -0.63900550813E+03 -0.65040193110E+03  0.95378589800E+03  0.00000000000E+00 0.  1.
         13    1    5    5    0    0  0.10771830285E+03  0.40964925606E+02  0.25302798183E+03  0.27803689951E+03  0.00000000000E+00 0. -1.
        -13    1    5    5    0    0  0.13446857317E+03  0.15435110520E+01  0.55783035823E+03  0.57381084702E+03  0.00000000000E+00 0.  1.
          2    1    6    6  503    0  0.55569595089E+02  0.16094043427E+03  0.64435888085E+02  0.18204885870E+03  0.00000000000E+00 0. -1.
         -2    1    6    6    0  503  0.23264321267E+02  0.58216575946E+03  0.23705670776E+03  0.62901039962E+03  0.00000000000E+00 0.  1.
<mgrwt>
<rscale>  0 0.27736715E+04</rscale>
<asrwt>0</asrwt>
<pdfrwt beam="1">  1        2 0.24322557E+00 0.27736715E+04</pdfrwt>
<pdfrwt beam="2">  1       -1 0.18716047E+00 0.27736715E+04</pdfrwt>
<totfact> 0.20998362E+00</totfact>
</mgrwt>
</event>
<event>
12    7  0.1637954E-007  0.1683690E+04  0.7818608E-02  0.8770721E-01
          2   -1    0    0  501    0  0.00000000000E+00  0.00000000000E+00  0.24774232797E+04  0.24774232797E+04  0.00000000000E+00 0. -1.
         -1   -1    0    0    0  501 -0.00000000000E+00 -0.00000000000E+00 -0.28606462814E+03  0.28606462814E+03  0.00000000000E+00 0.  1.
         24    2    1    2    0    0  0.37580715829E+03  0.12767376054E+03  0.15425079226E+04  0.15947397253E+04  0.79576950108E+02 0.  0.
        254    2    1    2    0    0 -0.37580715829E+03 -0.12767376054E+03  0.64885072901E+03  0.11687481825E+04  0.88737446228E+03 0.  0.
         23    2    4    4    0    0  0.22957648968E+03  0.63746067983E+02 -0.29541962836E+01  0.25437134782E+03  0.89034428837E+02 0.  0.
         23    2    4    4    0    0 -0.60538364797E+03 -0.19141982852E+03  0.65180492529E+03  0.91437683472E+03  0.90024570273E+02 0.  0.
          4    1    3    3  502    0  0.32561065520E+03  0.84175591766E+02  0.13428003111E+04  0.13842761663E+04  0.00000000000E+00 0. -1.
         -3    1    3    3    0  502  0.50196503090E+02  0.43498168771E+02  0.19970761148E+03  0.21046355906E+03  0.00000000000E+00 0.  1.
         13    1    5    5    0    0  0.20529646464E+03  0.27487290450E+02 -0.18721478246E+02  0.20797279456E+03  0.00000000000E+00 0.  1.
        -13    1    5    5    0    0  0.24280025046E+02  0.36258777533E+02  0.15767281963E+02  0.46398553263E+02  0.00000000000E+00 0. -1.
          2    1    6    6  503    0 -0.67519058739E+02 -0.47909308145E+02  0.62645322788E+02  0.10381985151E+03  0.00000000000E+00 0. -1.
         -2    1    6    6    0  503 -0.53786458924E+03 -0.14351052037E+03  0.58915960251E+03  0.81055698321E+03  0.00000000000E+00 0.  1.
<mgrwt>
<rscale>  0 0.16836902E+04</rscale>
<asrwt>0</asrwt>
<pdfrwt beam="1">  1        2 0.38114203E+00 0.16836902E+04</pdfrwt>
<pdfrwt beam="2">  1       -1 0.44009944E-01 0.16836902E+04</pdfrwt>
<totfact> 0.19902375E+01</totfact>
</mgrwt>
</event>
<event>
12    7  0.1637954E-007  0.1808653E+04  0.7818608E-02  0.8701711E-01
         -1   -1    0    0    0  501 -0.00000000000E+00  0.00000000000E+00  0.21274424618E+03  0.21274424618E+03  0.00000000000E+00 0.  1.
          2   -1    0    0  501    0  0.00000000000E+00 -0.00000000000E+00 -0.38440838877E+04  0.38440838877E+04  0.00000000000E+00 0. -1.
         24    2    1    2    0    0 -0.37977397549E+03 -0.31441633814E+03 -0.32689918014E+03  0.59944111594E+03  0.96853865966E+02 0.  0.
        254    2    1    2    0    0  0.37977397549E+03  0.31441633814E+03 -0.33044404614E+04  0.34573870179E+04  0.88944495216E+03 0.  0.
         23    2    4    4    0    0  0.50180485252E+03  0.53844340588E+03 -0.22810103965E+04  0.23985942020E+04  0.92283831084E+02 0.  0.
         23    2    4    4    0    0 -0.12203087703E+03 -0.22402706774E+03 -0.10234300648E+04  0.10587928159E+04  0.92484957840E+02 0.  0.
          4    1    3    3  502    0  0.47238249034E+00  0.54722532124E+01 -0.45907974883E+01  0.71584999837E+01  0.00000000000E+00 0. -1.
         -3    1    3    3    0  502 -0.38024635798E+03 -0.31988859135E+03 -0.32230838266E+03  0.59228261596E+03  0.00000000000E+00 0.  1.
         13    1    5    5    0    0  0.17702714729E+03  0.13891972740E+03 -0.61744206449E+03  0.65716969235E+03  0.00000000000E+00 0. -1.
        -13    1    5    5    0    0  0.32477770523E+03  0.39952367848E+03 -0.16635683321E+04  0.17414245097E+04  0.00000000000E+00 0.  1.
          4    1    6    6  503    0 -0.11230078333E+02 -0.62752504437E+01 -0.18615334244E+03  0.18659732133E+03  0.00000000000E+00 0. -1.
         -4    1    6    6    0  503 -0.11080079869E+03 -0.21775181729E+03 -0.83727672237E+03  0.87219549457E+03  0.00000000000E+00 0.  1.
<mgrwt>
<rscale>  0 0.18086533E+04</rscale>
<asrwt>0</asrwt>
<pdfrwt beam="1">  1        2 0.59139754E+00 0.18086533E+04</pdfrwt>
<pdfrwt beam="2">  1       -1 0.32729883E-01 0.18086533E+04</pdfrwt>
<totfact> 0.43214182E+00</totfact>
</mgrwt>
</event>
<event>
12    7  0.1637954E-007  0.2952679E+04  0.7818608E-02  0.8257374E-01
         -1   -1    0    0    0  501 -0.00000000000E+00  0.00000000000E+00  0.14834730265E+04  0.14834730265E+04  0.00000000000E+00 0.  1.
          2   -1    0    0  501    0  0.00000000000E+00 -0.00000000000E+00 -0.14692401392E+04  0.14692401392E+04  0.00000000000E+00 0. -1.
         24    2    1    2    0    0  0.71323817996E+03 -0.32653301412E+03 -0.10801525266E+04  0.13373138201E+04  0.79663429870E+02 0.  0.
        254    2    1    2    0    0 -0.71323817996E+03  0.32653301412E+03  0.10943854139E+04  0.16153993457E+04  0.89247022423E+03 0.  0.
         23    2    4    4    0    0  0.16093291238E+03 -0.91273582679E+02  0.12064134270E+03  0.23869374667E+03  0.90499182036E+02 0.  0.
         23    2    4    4    0    0 -0.87417109234E+03  0.41780659680E+03  0.97374407121E+03  0.13767055990E+04  0.91669728318E+02 0.  0.
          4    1    3    3  502    0  0.55982280460E+03 -0.22117458625E+03 -0.80605845945E+03  0.10060069633E+04  0.00000000000E+00 0. -1.
         -1    1    3    3    0  502  0.15341537535E+03 -0.10535842787E+03 -0.27409406711E+03  0.33130685677E+03  0.00000000000E+00 0.  1.
         13    1    5    5    0    0  0.36362726513E+02 -0.50083198343E+02  0.21891454955E+01  0.61930339849E+02  0.00000000000E+00 0. -1.
        -13    1    5    5    0    0  0.12457018586E+03 -0.41190384336E+02  0.11845219721E+03  0.17676340682E+03  0.00000000000E+00 0.  1.
          4    1    6    6  503    0 -0.85034126632E+03  0.38708835243E+03  0.93258188418E+03  0.13200858428E+04  0.00000000000E+00 0.  1.
         -4    1    6    6    0  503 -0.23829826020E+02  0.30718244372E+02  0.41162187031E+02  0.56619756151E+02  0.00000000000E+00 0. -1.
<mgrwt>
<rscale>  0 0.29526789E+04</rscale>
<asrwt>0</asrwt>
<pdfrwt beam="1">  1        2 0.22603694E+00 0.29526789E+04</pdfrwt>
<pdfrwt beam="2">  1       -1 0.22822662E+00 0.29526789E+04</pdfrwt>
<totfact> 0.12540743E+00</totfact>
</mgrwt>
</event>
<event>
12    7  0.1637954E-007  0.1120962E+04  0.7818608E-02  0.9184998E-01
          2   -1    0    0  501    0  0.00000000000E+00  0.00000000000E+00  0.25712775920E+03  0.25712775920E+03  0.00000000000E+00 0. -1.
         -1   -1    0    0    0  501 -0.00000000000E+00 -0.00000000000E+00 -0.12217236918E+04  0.12217236918E+04  0.00000000000E+00 0.  1.
         24    2    1    2    0    0 -0.59994738360E+02 -0.14947271369E+03 -0.30025458580E+03  0.35012694865E+03  0.80589100418E+02 0.  0.
        254    2    1    2    0    0  0.59994738360E+02  0.14947271369E+03 -0.66434134684E+03  0.11287245024E+04  0.89818044757E+03 0.  0.
         23    2    4    4    0    0  0.28498271148E+03 -0.14834424281E+03 -0.66503311963E+03  0.74406444838E+03  0.90231330031E+02 0.  0.
         23    2    4    4    0    0 -0.22498797312E+03  0.29781695650E+03  0.69177278922E+00  0.38466005401E+03  0.92996510544E+02 0.  0.
          4    1    3    3  502    0  0.98394416180E+01 -0.79616259185E+02 -0.15398912810E+03  0.17363241319E+03  0.00000000000E+00 0. -1.
         -3    1    3    3    0  502 -0.69834179978E+02 -0.69856454507E+02 -0.14626545770E+03  0.17649453546E+03  0.00000000000E+00 0.  1.
         13    1    5    5    0    0  0.22089708942E+03 -0.12262183139E+03 -0.59145517477E+03  0.64315694928E+03  0.00000000000E+00 0.  1.
        -13    1    5    5    0    0  0.64085622066E+02 -0.25722411413E+02 -0.73577944864E+02  0.10090749910E+03  0.00000000000E+00 0. -1.
          4    1    6    6  503    0 -0.17878345794E+03  0.16844163992E+03  0.17502681935E+02  0.24625688775E+03  0.00000000000E+00 0.  1.
         -4    1    6    6    0  503 -0.46204515186E+02  0.12937531658E+03 -0.16810909146E+02  0.13840316626E+03  0.00000000000E+00 0. -1.
<mgrwt>
<rscale>  0 0.11209622E+04</rscale>
<asrwt>0</asrwt>
<pdfrwt beam="1">  1        2 0.39558116E-01 0.11209622E+04</pdfrwt>
<pdfrwt beam="2">  1       -1 0.18795749E+00 0.11209622E+04</pdfrwt>
<totfact> 0.27095819E+01</totfact>
</mgrwt>
</event>
<event>
12    7  0.1637954E-007  0.1397780E+04  0.7818608E-02  0.8955427E-01
          2   -1    0    0  501    0  0.00000000000E+00  0.00000000000E+00  0.15739707908E+04  0.15739707908E+04  0.00000000000E+00 0. -1.
         -3   -1    0    0    0  501 -0.00000000000E+00 -0.00000000000E+00 -0.31032809977E+03  0.31032809977E+03  0.00000000000E+00 0.  1.
         24    2    1    2    0    0  0.31394191204E+03  0.25509718227E+03  0.34709905057E+03  0.53770632258E+03  0.70825432538E+02 0.  0.
        254    2    1    2    0    0 -0.31394191204E+03 -0.25509718227E+03  0.91654364050E+03  0.13465925680E+04  0.89979175525E+03 0.  0.
         23    2    4    4    0    0 -0.50608289508E+03  0.13737132231E+02  0.85349086737E+03  0.99651893466E+03  0.91075358689E+02 0.  0.
         23    2    4    4    0    0  0.19214098304E+03 -0.26883431450E+03  0.63052773127E+02  0.35007363337E+03  0.96880599538E+02 0.  0.
          2    1    3    3  502    0  0.18686588070E+03  0.19040196397E+03  0.24618895355E+03  0.36301620640E+03  0.00000000000E+00 0. -1.
         -1    1    3    3    0  502  0.12707603133E+03  0.64695218298E+02  0.10091009702E+03  0.17469011618E+03  0.00000000000E+00 0.  1.
         13    1    5    5    0    0 -0.19254125616E+03 -0.12330849736E+02  0.24846621270E+03  0.31457851807E+03  0.00000000000E+00 0. -1.
        -13    1    5    5    0    0 -0.31354163892E+03  0.26067981967E+02  0.60502465467E+03  0.68194041659E+03  0.00000000000E+00 0.  1.
          1    1    6    6  503    0  0.20172007178E+03 -0.23881895645E+03  0.60947082301E+02  0.31849651201E+03  0.00000000000E+00 0. -1.
         -1    1    6    6    0  503 -0.95790887384E+01 -0.30015358052E+02  0.21056908258E+01  0.31577121368E+02  0.00000000000E+00 0.  1.
<mgrwt>
<rscale>  0 0.13977802E+04</rscale>
<asrwt>0</asrwt>
<pdfrwt beam="1">  1        2 0.24214935E+00 0.13977802E+04</pdfrwt>
<pdfrwt beam="2">  1       -3 0.47742785E-01 0.13977802E+04</pdfrwt>
<totfact> 0.31375093E+01</totfact>
</mgrwt>
</event>
<event>
12    7  0.2363278E-007  0.2826570E+04  0.7818608E-02  0.8295066E-01
          2   -1    0    0  501    0  0.00000000000E+00  0.00000000000E+00  0.15259502183E+04  0.15259502183E+04  0.00000000000E+00 0. -1.
         -1   -1    0    0    0  501 -0.00000000000E+00 -0.00000000000E+00 -0.13089385441E+04  0.13089385441E+04  0.00000000000E+00 0.  1.
         24    2    1    2    0    0  0.37949199274E+03  0.21301811666E+03  0.13006184236E+04  0.13737730371E+04  0.79077070886E+02 0.  0.
        254    2    1    2    0    0 -0.37949199274E+03 -0.21301811666E+03 -0.10836067494E+04  0.14611157252E+04  0.87821676400E+03 0.  0.
         23    2    4    4    0    0  0.25145166037E+03  0.29899025882E+02 -0.47930387375E+03  0.54935910655E+03  0.89114170066E+02 0.  0.
         23    2    4    4    0    0 -0.63094365311E+03 -0.24291714254E+03 -0.60430287566E+03  0.91175661868E+03  0.94971230545E+02 0.  0.
          2    1    3    3  502    0  0.35072562439E+03  0.19672496489E+03  0.12518689202E+04  0.13148707042E+04  0.00000000000E+00 0. -1.
         -1    1    3    3    0  502  0.28766368346E+02  0.16293151764E+02  0.48749503472E+02  0.58902332984E+02  0.00000000000E+00 0.  1.
         13    1    5    5    0    0  0.77367998112E+02 -0.27033246214E+02 -0.19040095529E+03  0.20728995950E+03  0.00000000000E+00 0. -1.
        -13    1    5    5    0    0  0.17408366226E+03  0.56932272096E+02 -0.28890291846E+03  0.34206914705E+03  0.00000000000E+00 0.  1.
          4    1    6    6  503    0 -0.33744924036E+03 -0.16002593883E+03 -0.38299897816E+03  0.53494720130E+03  0.00000000000E+00 0. -1.
         -4    1    6    6    0  503 -0.29349441275E+03 -0.82891203710E+02 -0.22130389751E+03  0.37680941737E+03  0.00000000000E+00 0.  1.
<mgrwt>
<rscale>  0 0.28265704E+04</rscale>
<asrwt>0</asrwt>
<pdfrwt beam="1">  1        2 0.23476157E+00 0.28265704E+04</pdfrwt>
<pdfrwt beam="2">  1       -1 0.20137516E+00 0.28265704E+04</pdfrwt>
<totfact> 0.17868390E+00</totfact>
</mgrwt>
</event>
<event>
12    7  0.1637954E-007  0.1217964E+04  0.7818608E-02  0.9097276E-01
         -1   -1    0    0    0  501 -0.00000000000E+00  0.00000000000E+00  0.15242904127E+04  0.15242904127E+04  0.00000000000E+00 0.  1.
          2   -1    0    0  501    0  0.00000000000E+00 -0.00000000000E+00 -0.24329963174E+03  0.24329963174E+03  0.00000000000E+00 0. -1.
         24    2    1    2    0    0 -0.88436795062E+02 -0.24466303391E+03  0.22652571316E+03  0.35414238306E+03  0.80136520223E+02 0.  0.
        254    2    1    2    0    0  0.88436795062E+02  0.24466303391E+03  0.10544650678E+04  0.14134476614E+04  0.90457539506E+03 0.  0.
         23    2    4    4    0    0 -0.22842141030E+03  0.47468034418E+03  0.67185349089E+03  0.85866125538E+03  0.91729321494E+02 0.  0.
         23    2    4    4    0    0  0.31685820537E+03 -0.23001731027E+03  0.38261157691E+03  0.55478640600E+03  0.89940269988E+02 0.  0.
          4    1    3    3  502    0 -0.32073323409E+02 -0.19585148699E+02  0.50254713631E+02  0.62751990934E+02  0.00000000000E+00 0. -1.
         -3    1    3    3    0  502 -0.56363471653E+02 -0.22507788521E+03  0.17627099953E+03  0.29139039213E+03  0.00000000000E+00 0.  1.
         13    1    5    5    0    0 -0.21664144148E+03  0.41584673630E+03  0.54934161938E+03  0.72224527485E+03  0.00000000000E+00 0. -1.
        -13    1    5    5    0    0 -0.11779968829E+02  0.58833607880E+02  0.12251187152E+03  0.13641598053E+03  0.00000000000E+00 0.  1.
          4    1    6    6  503    0  0.92974456868E+02 -0.10494842903E+03  0.17876264600E+03  0.22718826112E+03  0.00000000000E+00 0. -1.
         -4    1    6    6    0  503  0.22388374850E+03 -0.12506888124E+03  0.20384893091E+03  0.32759814488E+03  0.00000000000E+00 0.  1.
<mgrwt>
<rscale>  0 0.12179644E+04</rscale>
<asrwt>0</asrwt>
<pdfrwt beam="1">  1        2 0.37430713E-01 0.12179644E+04</pdfrwt>
<pdfrwt beam="2">  1       -1 0.23450621E+00 0.12179644E+04</pdfrwt>
<totfact> 0.13838129E+01</totfact>
</mgrwt>
</event>
<event>
12    7  0.1637954E-007  0.1274642E+04  0.7818608E-02  0.9049920E-01
         -1   -1    0    0    0  501 -0.00000000000E+00  0.00000000000E+00  0.44312436157E+03  0.44312436157E+03  0.00000000000E+00 0.  1.
          2   -1    0    0  501    0  0.00000000000E+00 -0.00000000000E+00 -0.91662280486E+03  0.91662280486E+03  0.00000000000E+00 0. -1.
         24    2    1    2    0    0  0.19379046999E+03 -0.11088308382E+03 -0.36518448299E+03  0.43549694867E+03  0.80299944878E+02 0.  0.
        254    2    1    2    0    0 -0.19379046999E+03  0.11088308382E+03 -0.10831396029E+03  0.92425021776E+03  0.89031272399E+03 0.  0.
         23    2    4    4    0    0 -0.19061028098E+03 -0.20369505748E+03 -0.39253711108E+03  0.49006355128E+03  0.90845721177E+02 0.  0.
         23    2    4    4    0    0 -0.31801890052E+01  0.31457814130E+03  0.28422315079E+03  0.43418666648E+03  0.93625537753E+02 0.  0.
          4    1    3    3  502    0  0.18569455093E+03 -0.87809459017E+02 -0.35242086307E+03  0.40791351052E+03  0.00000000000E+00 0. -1.
         -3    1    3    3    0  502  0.80959190608E+01 -0.23073624798E+02 -0.12763619927E+02  0.27583438154E+02  0.00000000000E+00 0.  1.
         13    1    5    5    0    0 -0.57407763906E+02 -0.12007571370E+03 -0.21521451468E+03  0.25304370315E+03  0.00000000000E+00 0. -1.
        -13    1    5    5    0    0 -0.13320251708E+03 -0.83619343784E+02 -0.17732259640E+03  0.23701984813E+03  0.00000000000E+00 0.  1.
          2    1    6    6  503    0  0.23372028376E+02  0.18167860317E+02  0.16519388352E+02  0.33900044992E+02  0.00000000000E+00 0. -1.
         -2    1    6    6    0  503 -0.26552217381E+02  0.29641028098E+03  0.26770376244E+03  0.40028662149E+03  0.00000000000E+00 0.  1.
<mgrwt>
<rscale>  0 0.12746417E+04</rscale>
<asrwt>0</asrwt>
<pdfrwt beam="1">  1        2 0.14101889E+00 0.12746417E+04</pdfrwt>
<pdfrwt beam="2">  1       -1 0.68172980E-01 0.12746417E+04</pdfrwt>
<totfact> 0.69751669E+01</totfact>
</mgrwt>
</event>
<event>
12    7  0.1637954E-007  0.1552502E+04  0.7818608E-02  0.8850271E-01
          2   -1    0    0  501    0  0.00000000000E+00  0.00000000000E+00  0.83951191703E+03  0.83951191703E+03  0.00000000000E+00 0. -1.
         -1   -1    0    0    0  501 -0.00000000000E+00 -0.00000000000E+00 -0.71775749354E+03  0.71775749354E+03  0.00000000000E+00 0.  1.
         24    2    1    2    0    0  0.40222312824E+03 -0.30775844677E+03  0.12210481779E+03  0.52725060623E+03  0.81147450969E+02 0.  0.
        254    2    1    2    0    0 -0.40222312824E+03  0.30775844677E+03 -0.35039430190E+00  0.10300188043E+04  0.89690574091E+03 0.  0.
         23    2    4    4    0    0 -0.36163127940E+03 -0.25414942971E+03 -0.68594474910E+02  0.45563066955E+03  0.86746701277E+02 0.  0.
         23    2    4    4    0    0 -0.40591848841E+02  0.56190787648E+03  0.68244080608E+02  0.57438813479E+03  0.88748605675E+02 0.  0.
          2    1    3    3  502    0  0.94101839814E+02 -0.55000868904E+02  0.58420336244E+02  0.12366562790E+03  0.00000000000E+00 0. -1.
         -1    1    3    3    0  502  0.30812128843E+03 -0.25275757786E+03  0.63684481546E+02  0.40358497834E+03  0.00000000000E+00 0.  1.
         13    1    5    5    0    0 -0.33653799181E+03 -0.21209457467E+03 -0.42281689673E+02  0.40003708555E+03  0.00000000000E+00 0. -1.
        -13    1    5    5    0    0 -0.25093287592E+02 -0.42054855044E+02 -0.26312785237E+02  0.55593583999E+02  0.00000000000E+00 0.  1.
          2    1    6    6  503    0 -0.53755000268E+02  0.54827524039E+03  0.61741264827E+02  0.55435306715E+03  0.00000000000E+00 0. -1.
         -2    1    6    6    0  503  0.13163151427E+02  0.13632636090E+02  0.65028157812E+01  0.20035067640E+02  0.00000000000E+00 0.  1.
<mgrwt>
<rscale>  0 0.15525025E+04</rscale>
<asrwt>0</asrwt>
<pdfrwt beam="1">  1        2 0.12915568E+00 0.15525025E+04</pdfrwt>
<pdfrwt beam="2">  1       -1 0.11042423E+00 0.15525025E+04</pdfrwt>
<totfact> 0.26827508E+01</totfact>
</mgrwt>
</event>
<event>
12    7  0.1637954E-007  0.2143683E+04  0.7818608E-02  0.8542241E-01
         -1   -1    0    0    0  501 -0.00000000000E+00  0.00000000000E+00  0.11341257378E+04  0.11341257378E+04  0.00000000000E+00 0.  1.
          2   -1    0    0  501    0  0.00000000000E+00 -0.00000000000E+00 -0.10129778816E+04  0.10129778816E+04  0.00000000000E+00 0. -1.
         24    2    1    2    0    0  0.19222163025E+02 -0.73897697350E+03 -0.43236291974E+03  0.85993921902E+03  0.78110864348E+02 0.  0.
        254    2    1    2    0    0 -0.19222163025E+02  0.73897697350E+03  0.55351077590E+03  0.12871644004E+04  0.89663903308E+03 0.  0.
         23    2    4    4    0    0  0.39935315876E+03  0.34394495676E+03  0.89101825568E+02  0.54199300129E+03  0.89644851695E+02 0.  0.
         23    2    4    4    0    0 -0.41857532179E+03  0.39503201674E+03  0.46440895033E+03  0.74517139908E+03  0.91373664716E+02 0.  0.
          4    1    3    3  502    0 -0.11900238911E+02 -0.49526727912E+03 -0.25714871890E+03  0.55817269468E+03  0.00000000000E+00 0. -1.
         -1    1    3    3    0  502  0.31122401936E+02 -0.24370969438E+03 -0.17521420085E+03  0.30176652435E+03  0.00000000000E+00 0.  1.
         13    1    5    5    0    0  0.26506312800E+03  0.21473635462E+03  0.99503973726E+02  0.35534659785E+03  0.00000000000E+00 0.  1.
        -13    1    5    5    0    0  0.13429003077E+03  0.12920860214E+03 -0.10402148158E+02  0.18664640344E+03  0.00000000000E+00 0. -1.
          3    1    6    6  503    0 -0.28325808630E+03  0.29801310990E+03  0.37347243458E+03  0.55545352327E+03  0.00000000000E+00 0. -1.
         -3    1    6    6    0  503 -0.13531723549E+03  0.97018906841E+02  0.90936515757E+02  0.18971787581E+03  0.00000000000E+00 0.  1.
<mgrwt>
<rscale>  0 0.21436831E+04</rscale>
<asrwt>0</asrwt>
<pdfrwt beam="1">  1        2 0.15584275E+00 0.21436831E+04</pdfrwt>
<pdfrwt beam="2">  1       -1 0.17448088E+00 0.21436831E+04</pdfrwt>
<totfact> 0.59046536E+00</totfact>
</mgrwt>
</event>
<event>
12    7  0.1637954E-007  0.1862211E+04  0.7818608E-02  0.8673898E-01
          2   -1    0    0  501    0  0.00000000000E+00  0.00000000000E+00  0.36074777683E+03  0.36074777683E+03  0.00000000000E+00 0. -1.
         -1   -1    0    0    0  501 -0.00000000000E+00 -0.00000000000E+00 -0.24032244272E+04  0.24032244272E+04  0.00000000000E+00 0.  1.
         24    2    1    2    0    0  0.13776998898E+03  0.54008460967E+03 -0.10666725834E+03  0.57324390986E+03  0.80985929203E+02 0.  0.
        254    2    1    2    0    0 -0.13776998898E+03 -0.54008460967E+03 -0.19358093921E+04  0.21907282942E+04  0.86096486639E+03 0.  0.
         23    2    4    4    0    0 -0.16657884013E+03  0.12349154094E+03 -0.12178880542E+03  0.25684552077E+03  0.90213290306E+02 0.  0.
         23    2    4    4    0    0  0.28808851150E+02 -0.66357615061E+03 -0.18140205867E+04  0.19338827734E+04  0.89825581320E+02 0.  0.
          4    1    3    3  502    0  0.12889826473E+03  0.43763068274E+03 -0.11367725626E+03  0.47016794416E+03  0.00000000000E+00 0. -1.
         -3    1    3    3    0  502  0.88717242481E+01  0.10245392693E+03  0.70099979227E+01  0.10307596570E+03  0.00000000000E+00 0.  1.
         13    1    5    5    0    0  0.10929751706E+01 -0.80892421871E+01  0.42785786512E+01  0.92161092202E+01  0.00000000000E+00 0. -1.
        -13    1    5    5    0    0 -0.16767181530E+03  0.13158078313E+03 -0.12606738407E+03  0.24762941155E+03  0.00000000000E+00 0.  1.
          2    1    6    6  503    0 -0.10891365571E+02 -0.88848145280E+01 -0.47136467634E+02  0.49187481682E+02  0.00000000000E+00 0. -1.
         -2    1    6    6    0  503  0.39700216721E+02 -0.65469133609E+03 -0.17668841190E+04  0.18846952918E+04  0.00000000000E+00 0.  1.
<mgrwt>
<rscale>  0 0.18622114E+04</rscale>
<asrwt>0</asrwt>
<pdfrwt beam="1">  1        2 0.55499660E-01 0.18622114E+04</pdfrwt>
<pdfrwt beam="2">  1       -1 0.36972682E+00 0.18622114E+04</pdfrwt>
<totfact> 0.11037711E+00</totfact>
</mgrwt>
</event>
<event>
12    7  0.1637954E-007  0.3339524E+04  0.7818608E-02  0.8152911E-01
          2   -1    0    0  501    0  0.00000000000E+00  0.00000000000E+00  0.19119365247E+04  0.19119365247E+04  0.00000000000E+00 0. -1.
         -1   -1    0    0    0  501 -0.00000000000E+00 -0.00000000000E+00 -0.14582623277E+04  0.14582623277E+04  0.00000000000E+00 0.  1.
         24    2    1    2    0    0  0.94846950499E+03 -0.51239804200E+02  0.14377307214E+04  0.17250301558E+04  0.80246444684E+02 0.  0.
        254    2    1    2    0    0 -0.94846950499E+03  0.51239804200E+02 -0.98405652441E+03  0.16451686966E+04  0.91432646115E+03 0.  0.
         23    2    4    4    0    0 -0.10884289709E+04  0.17493592227E+03 -0.87485070998E+03  0.14103397249E+04  0.91728803173E+02 0.  0.
         23    2    4    4    0    0  0.13995946592E+03 -0.12369611807E+03 -0.10920581443E+03  0.23482897166E+03  0.91265296260E+02 0.  0.
          4    1    3    3  502    0  0.59532885807E+03 -0.22600309732E+02  0.83226694113E+03  0.10235211207E+04  0.00000000000E+00 0. -1.
         -3    1    3    3    0  502  0.35314064692E+03 -0.28639494468E+02  0.60546378025E+03  0.70150903512E+03  0.00000000000E+00 0.  1.
         13    1    5    5    0    0 -0.33789544553E+03  0.30789490745E+02 -0.22465553251E+03  0.40692927289E+03  0.00000000000E+00 0.  1.
        -13    1    5    5    0    0 -0.75053352538E+03  0.14414643152E+03 -0.65019517747E+03  0.10034104520E+04  0.00000000000E+00 0. -1.
          2    1    6    6  503    0  0.14661262702E+03 -0.91889656384E+02 -0.78073315250E+02  0.18982732655E+03  0.00000000000E+00 0. -1.
         -2    1    6    6    0  503 -0.66531611002E+01 -0.31806461684E+02 -0.31132499179E+02  0.45001645110E+02  0.00000000000E+00 0.  1.
<mgrwt>
<rscale>  0 0.33395239E+04</rscale>
<asrwt>0</asrwt>
<pdfrwt beam="1">  1        2 0.29414408E+00 0.33395239E+04</pdfrwt>
<pdfrwt beam="2">  1       -1 0.22434805E+00 0.33395239E+04</pdfrwt>
<totfact> 0.72903374E-01</totfact>
</mgrwt>
</event>
<event>
12    7  0.1637954E-007  0.2132614E+04  0.7818608E-02  0.8547011E-01
         -1   -1    0    0    0  501 -0.00000000000E+00  0.00000000000E+00  0.38320734329E+03  0.38320734329E+03  0.00000000000E+00 0.  1.
          2   -1    0    0  501    0  0.00000000000E+00 -0.00000000000E+00 -0.29670900899E+04  0.29670900899E+04  0.00000000000E+00 0. -1.
         24    2    1    2    0    0 -0.33408778731E+03  0.69598048349E+02  0.20043557312E+03  0.40336817938E+03  0.77929013883E+02 0.  0.
        254    2    1    2    0    0  0.33408778731E+03 -0.69598048349E+02 -0.27843183198E+04  0.29469292539E+04  0.90305314537E+03 0.  0.
         23    2    4    4    0    0  0.35800458646E+03  0.25527697779E+03 -0.67345413381E+03  0.80908412657E+03  0.87994512331E+02 0.  0.
         23    2    4    4    0    0 -0.23916799150E+02 -0.32487502614E+03 -0.21108641860E+04  0.21378451273E+04  0.92295074373E+02 0.  0.
          4    1    3    3  502    0 -0.14313413744E+03  0.49983818158E+02  0.50521881022E+02  0.15980683290E+03  0.00000000000E+00 0. -1.
         -3    1    3    3    0  502 -0.19095364986E+03  0.19614230192E+02  0.14991369210E+03  0.24356134648E+03  0.00000000000E+00 0.  1.
         13    1    5    5    0    0  0.36188942050E+03  0.24775768951E+03 -0.64975665417E+03  0.78392061781E+03  0.00000000000E+00 0. -1.
        -13    1    5    5    0    0 -0.38848340452E+01  0.75192882781E+01 -0.23697479642E+02  0.25163508760E+02  0.00000000000E+00 0.  1.
          2    1    6    6  503    0 -0.25238534434E+01 -0.21253151234E+03 -0.16171952120E+04  0.16311028071E+04  0.00000000000E+00 0. -1.
         -2    1    6    6    0  503 -0.21392945706E+02 -0.11234351380E+03 -0.49366897400E+03  0.50674232023E+03  0.00000000000E+00 0.  1.
<mgrwt>
<rscale>  0 0.21326141E+04</rscale>
<asrwt>0</asrwt>
<pdfrwt beam="1">  1        2 0.45647540E+00 0.21326141E+04</pdfrwt>
<pdfrwt beam="2">  1       -1 0.58954976E-01 0.21326141E+04</pdfrwt>
<totfact> 0.55766850E+00</totfact>
</mgrwt>
</event>
<event>
12    7  0.1637954E-007  0.1347296E+04  0.7818608E-02  0.8992878E-01
          2   -1    0    0  501    0  0.00000000000E+00  0.00000000000E+00  0.31977882487E+03  0.31977882487E+03  0.00000000000E+00 0. -1.
         -1   -1    0    0    0  501 -0.00000000000E+00 -0.00000000000E+00 -0.14191102387E+04  0.14191102387E+04  0.00000000000E+00 0.  1.
         24    2    1    2    0    0  0.17876629350E+03  0.18183214266E+03 -0.64255103571E+03  0.69600610632E+03  0.80822959273E+02 0.  0.
        254    2    1    2    0    0 -0.17876629350E+03 -0.18183214266E+03 -0.45678037815E+03  0.10428829573E+04  0.90218414580E+03 0.  0.
         23    2    4    4    0    0 -0.20879086406E+03 -0.19282499599E+03  0.21255178895E+03  0.36660315573E+03  0.91893997676E+02 0.  0.
         23    2    4    4    0    0  0.30024570565E+02  0.10992853329E+02 -0.66933216709E+03  0.67627980156E+03  0.91249670830E+02 0.  0.
          2    1    3    3  502    0  0.47561365219E+02  0.91777300157E+01 -0.86035014665E+02  0.98733671755E+02  0.00000000000E+00 0. -1.
         -1    1    3    3    0  502  0.13120492828E+03  0.17265441265E+03 -0.55651602105E+03  0.59727243457E+03  0.00000000000E+00 0.  1.
         13    1    5    5    0    0 -0.21542864810E+03 -0.18238313176E+03  0.18809430411E+03  0.33919400999E+03  0.00000000000E+00 0. -1.
        -13    1    5    5    0    0  0.66377840365E+01 -0.10441864233E+02  0.24457484841E+02  0.27409145742E+02  0.00000000000E+00 0.  1.
          1    1    6    6  503    0  0.28725730163E+02 -0.11208977394E+02 -0.63251996163E+03  0.63327111935E+03  0.00000000000E+00 0. -1.
         -1    1    6    6    0  503  0.12988404027E+01  0.22201830722E+02 -0.36812205466E+02  0.43008682206E+02  0.00000000000E+00 0.  1.
<mgrwt>
<rscale>  0 0.13472957E+04</rscale>
<asrwt>0</asrwt>
<pdfrwt beam="1">  1        2 0.49196742E-01 0.13472957E+04</pdfrwt>
<pdfrwt beam="2">  1       -1 0.21832465E+00 0.13472957E+04</pdfrwt>
<totfact> 0.12921893E+01</totfact>
</mgrwt>
</event>
<event>
12    7  0.1637954E-007  0.1882462E+04  0.7818608E-02  0.8663636E-01
          2   -1    0    0  501    0  0.00000000000E+00  0.00000000000E+00  0.25520294677E+04  0.25520294677E+04  0.00000000000E+00 0. -1.
         -1   -1    0    0    0  501 -0.00000000000E+00 -0.00000000000E+00 -0.34714165477E+03  0.34714165477E+03  0.00000000000E+00 0.  1.
         24    2    1    2    0    0 -0.47354492600E+02  0.62951862139E+03  0.13508801347E+04  0.14931660982E+04  0.78305272889E+02 0.  0.
        254    2    1    2    0    0  0.47354492600E+02 -0.62951862139E+03  0.85400767819E+03  0.14060050242E+04  0.92140375035E+03 0.  0.
         23    2    4    4    0    0  0.34489993228E+03 -0.48501507409E+03  0.14577783602E+03  0.61908885235E+03  0.88454758161E+02 0.  0.
         23    2    4    4    0    0 -0.29754543968E+03 -0.14450354730E+03  0.70822984217E+03  0.78691617190E+03  0.90735816524E+02 0.  0.
          4    1    3    3  502    0 -0.36178619236E+02  0.41897894262E+03  0.98250631202E+03  0.10687239587E+04  0.00000000000E+00 0. -1.
         -3    1    3    3    0  502 -0.11175873364E+02  0.21053967878E+03  0.36837382270E+03  0.42444213944E+03  0.00000000000E+00 0.  1.
         13    1    5    5    0    0  0.33257911264E+03 -0.45026621328E+03  0.11593281485E+03  0.57165456925E+03  0.00000000000E+00 0.  1.
        -13    1    5    5    0    0  0.12320819642E+02 -0.34748860817E+02  0.29845021167E+02  0.47434283100E+02  0.00000000000E+00 0. -1.
          1    1    6    6  503    0 -0.20379240936E+03 -0.82467156200E+02  0.55429470168E+03  0.59630092594E+03  0.00000000000E+00 0. -1.
         -1    1    6    6    0  503 -0.93753030322E+02 -0.62036391102E+02  0.15393514049E+03  0.19061524596E+03  0.00000000000E+00 0.  1.
<mgrwt>
<rscale>  0 0.18824619E+04</rscale>
<asrwt>0</asrwt>
<pdfrwt beam="1">  1        2 0.39261991E+00 0.18824619E+04</pdfrwt>
<pdfrwt beam="2">  1       -1 0.53406410E-01 0.18824619E+04</pdfrwt>
<totfact> 0.12274279E+01</totfact>
</mgrwt>
</event>
<event>
12    7  0.1637954E-007  0.1963578E+04  0.7818608E-02  0.8623841E-01
         -1   -1    0    0    0  501 -0.00000000000E+00  0.00000000000E+00  0.47253813834E+03  0.47253813834E+03  0.00000000000E+00 0.  1.
          2   -1    0    0  501    0  0.00000000000E+00 -0.00000000000E+00 -0.20398548862E+04  0.20398548862E+04  0.00000000000E+00 0. -1.
         24    2    1    2    0    0 -0.15560245924E+03  0.40230414101E+03  0.25031313605E+03  0.50499363565E+03  0.79379838528E+02 0.  0.
        254    2    1    2    0    0  0.15560245924E+03 -0.40230414101E+03 -0.18176298840E+04  0.20073993889E+04  0.73471978637E+03 0.  0.
         23    2    4    4    0    0  0.20419921716E+03 -0.59285922513E+03 -0.14148842570E+04  0.15502300907E+04  0.90202507086E+02 0.  0.
         23    2    4    4    0    0 -0.48596757918E+02  0.19055508411E+03 -0.40274562698E+03  0.45716929827E+03  0.90149000369E+02 0.  0.
          4    1    3    3  502    0 -0.12183094721E+02  0.84296193838E+02  0.21656783397E+02  0.87882264193E+02  0.00000000000E+00 0. -1.
         -3    1    3    3    0  502 -0.14341936452E+03  0.31800794718E+03  0.22865635266E+03  0.41711137146E+03  0.00000000000E+00 0.  1.
         13    1    5    5    0    0 -0.15781624787E+01  0.37921538906E+00 -0.25423228864E+02  0.25474987086E+02  0.00000000000E+00 0. -1.
        -13    1    5    5    0    0  0.20577737964E+03 -0.59323844051E+03 -0.13894610281E+04  0.15247551036E+04  0.00000000000E+00 0.  1.
          2    1    6    6  503    0  0.62567841708E+01  0.78173729392E+02 -0.23634373538E+03  0.24901534203E+03  0.00000000000E+00 0. -1.
         -2    1    6    6    0  503 -0.54853542089E+02  0.11238135472E+03 -0.16640189161E+03  0.20815395624E+03  0.00000000000E+00 0.  1.
<mgrwt>
<rscale>  0 0.19635776E+04</rscale>
<asrwt>0</asrwt>
<pdfrwt beam="1">  1        2 0.31382384E+00 0.19635776E+04</pdfrwt>
<pdfrwt beam="2">  1       -1 0.72698173E-01 0.19635776E+04</pdfrwt>
<totfact> 0.12850367E+01</totfact>
</mgrwt>
</event>
<event>
12    7  0.1637954E-007  0.1243272E+04  0.7818608E-02  0.9075801E-01
          2   -1    0    0  501    0  0.00000000000E+00  0.00000000000E+00  0.10038213324E+04  0.10038213324E+04  0.00000000000E+00 0. -1.
         -1   -1    0    0    0  501 -0.00000000000E+00 -0.00000000000E+00 -0.38496048194E+03  0.38496048194E+03  0.00000000000E+00 0.  1.
         24    2    1    2    0    0  0.22006911275E+03  0.70339310861E+02  0.32715921504E+03  0.40898331201E+03  0.82801959356E+02 0.  0.
        254    2    1    2    0    0 -0.22006911275E+03 -0.70339310861E+02  0.29170163539E+03  0.97979850230E+03  0.90638690854E+03 0.  0.
         23    2    4    4    0    0  0.16938106819E+03 -0.10475053297E+03 -0.23318854602E+03  0.31912629330E+03  0.88329342023E+02 0.  0.
         23    2    4    4    0    0 -0.38945018094E+03  0.34411222113E+02  0.52489018141E+03  0.66067220900E+03  0.90124855424E+02 0.  0.
          2    1    3    3  502    0  0.20870867002E+03  0.49850928548E+02  0.25583476956E+03  0.33390994795E+03  0.00000000000E+00 0. -1.
         -1    1    3    3    0  502  0.11360442734E+02  0.20488382313E+02  0.71324445480E+02  0.75073364064E+02  0.00000000000E+00 0.  1.
         13    1    5    5    0    0  0.63973289849E+01  0.71693101001E+01 -0.45540797151E+02  0.46543410174E+02  0.00000000000E+00 0. -1.
        -13    1    5    5    0    0  0.16298373920E+03 -0.11191984307E+03 -0.18764774887E+03  0.27258288313E+03  0.00000000000E+00 0.  1.
          3    1    6    6  503    0 -0.34776777824E+03  0.39731004637E+02  0.50431491090E+03  0.61388476905E+03  0.00000000000E+00 0. -1.
         -3    1    6    6    0  503 -0.41682402701E+02 -0.53197825239E+01  0.20575270509E+02  0.46787439955E+02  0.00000000000E+00 0.  1.
<mgrwt>
<rscale>  0 0.12432724E+04</rscale>
<asrwt>0</asrwt>
<pdfrwt beam="1">  1        2 0.15443405E+00 0.12432724E+04</pdfrwt>
<pdfrwt beam="2">  1       -1 0.59224690E-01 0.12432724E+04</pdfrwt>
<totfact> 0.81243798E+01</totfact>
</mgrwt>
</event>
<event>
12    7  0.1637954E-007  0.1883607E+04  0.7818608E-02  0.8663059E-01
          2   -1    0    0  501    0  0.00000000000E+00  0.00000000000E+00  0.13459391582E+04  0.13459391582E+04  0.00000000000E+00 0. -1.
         -1   -1    0    0    0  501 -0.00000000000E+00 -0.00000000000E+00 -0.65901510953E+03  0.65901510953E+03  0.00000000000E+00 0.  1.
         24    2    1    2    0    0 -0.17862569606E+03  0.19360253716E+03  0.99268969474E+03  0.10302266940E+04  0.80901972946E+02 0.  0.
        254    2    1    2    0    0  0.17862569606E+03 -0.19360253716E+03 -0.30576564603E+03  0.97472757379E+03  0.88724975691E+03 0.  0.
         23    2    4    4    0    0  0.98782652110E+02 -0.11270181718E+03  0.30207411392E+03  0.34960982614E+03  0.92295981917E+02 0.  0.
         23    2    4    4    0    0  0.79843043949E+02 -0.80900719988E+02 -0.60783975996E+03  0.62511774765E+03  0.91559742697E+02 0.  0.
          4    1    3    3  502    0 -0.69832458171E+02  0.77147044227E+02  0.54921834634E+03  0.55898929382E+03  0.00000000000E+00 0. -1.
         -3    1    3    3    0  502 -0.10879323789E+03  0.11645549294E+03  0.44347134840E+03  0.47123740015E+03  0.00000000000E+00 0.  1.
         13    1    5    5    0    0  0.77363030662E+02 -0.91160559967E+02  0.29515731873E+03  0.31845428087E+03  0.00000000000E+00 0.  1.
        -13    1    5    5    0    0  0.21419621448E+02 -0.21541257209E+02  0.69167951948E+01  0.31155545267E+02  0.00000000000E+00 0. -1.
          3    1    6    6  503    0  0.31860283883E+02 -0.29591775685E+01 -0.35102873272E+03  0.35248405016E+03  0.00000000000E+00 0. -1.
         -3    1    6    6    0  503  0.47982760066E+02 -0.77941542419E+02 -0.25681102724E+03  0.27263369749E+03  0.00000000000E+00 0.  1.
<mgrwt>
<rscale>  0 0.18836074E+04</rscale>
<asrwt>0</asrwt>
<pdfrwt beam="1">  1        2 0.20706756E+00 0.18836074E+04</pdfrwt>
<pdfrwt beam="2">  1       -1 0.10138694E+00 0.18836074E+04</pdfrwt>
<totfact> 0.15344989E+01</totfact>
</mgrwt>
</event>
<event>
12    7  0.1637954E-007  0.1976027E+04  0.7818608E-02  0.8617911E-01
         -1   -1    0    0    0  501 -0.00000000000E+00  0.00000000000E+00  0.85304902702E+03  0.85304902702E+03  0.00000000000E+00 0.  1.
          2   -1    0    0  501    0  0.00000000000E+00 -0.00000000000E+00 -0.11443314866E+04  0.11443314866E+04  0.00000000000E+00 0. -1.
         24    2    1    2    0    0  0.21306524325E+03 -0.26271071241E+03 -0.82657385962E+03  0.89513042612E+03  0.60169910015E+02 0.  0.
        254    2    1    2    0    0 -0.21306524325E+03  0.26271071241E+03  0.53529140005E+03  0.11022500875E+04  0.90222206586E+03 0.  0.
         23    2    4    4    0    0  0.10636335615E+03  0.18250541659E+01 -0.20640856422E+03  0.24874348079E+03  0.89175834735E+02 0.  0.
         23    2    4    4    0    0 -0.31942859939E+03  0.26088565824E+03  0.74169996427E+03  0.85350660671E+03  0.90877576519E+02 0.  0.
          2    1    3    3  502    0  0.20423247954E+03 -0.24368791296E+03 -0.80255409381E+03  0.86324259516E+03  0.00000000000E+00 0. -1.
         -1    1    3    3    0  502  0.88327637011E+01 -0.19022799448E+02 -0.24019765816E+02  0.31887830959E+02  0.00000000000E+00 0.  1.
         13    1    5    5    0    0  0.88306274157E+02 -0.16072260610E+02 -0.20440162403E+03  0.22324054184E+03  0.00000000000E+00 0.  1.
        -13    1    5    5    0    0  0.18057081989E+02  0.17897314776E+02 -0.20069401891E+01  0.25502938950E+02  0.00000000000E+00 0. -1.
          3    1    6    6  503    0 -0.82374673209E+02  0.38249477205E+02  0.10705787515E+03  0.14039230009E+03  0.00000000000E+00 0. -1.
         -3    1    6    6    0  503 -0.23705392618E+03  0.22263618104E+03  0.63464208911E+03  0.71311430661E+03  0.00000000000E+00 0.  1.
<mgrwt>
<rscale>  0 0.19760272E+04</rscale>
<asrwt>0</asrwt>
<pdfrwt beam="1">  1        2 0.17605100E+00 0.19760272E+04</pdfrwt>
<pdfrwt beam="2">  1       -1 0.13123831E+00 0.19760272E+04</pdfrwt>
<totfact> 0.10755863E+01</totfact>
</mgrwt>
</event>
<event>
12    7  0.1637954E-007  0.2300517E+04  0.7818608E-02  0.8477717E-01
         -1   -1    0    0    0  501 -0.00000000000E+00  0.00000000000E+00  0.40832887337E+03  0.40832887337E+03  0.00000000000E+00 0.  1.
          2   -1    0    0  501    0  0.00000000000E+00 -0.00000000000E+00 -0.32402661298E+04  0.32402661298E+04  0.00000000000E+00 0. -1.
         24    2    1    2    0    0 -0.60512198245E+03 -0.71842864371E+03 -0.16433683767E+04  0.18945378238E+04  0.79382709487E+02 0.  0.
        254    2    1    2    0    0  0.60512198245E+03  0.71842864371E+03 -0.11885688798E+04  0.17540571794E+04  0.88414267904E+03 0.  0.
         23    2    4    4    0    0  0.47256844352E+03 -0.49599612542E+02 -0.61131411675E+03  0.77966044189E+03  0.91566368986E+02 0.  0.
         23    2    4    4    0    0  0.13255353892E+03  0.76802825625E+03 -0.57725476301E+03  0.97439673750E+03  0.93744853488E+02 0.  0.
          2    1    3    3  502    0 -0.32849803141E+03 -0.38950354953E+03 -0.81147147109E+03  0.95818052586E+03  0.00000000000E+00 0. -1.
         -1    1    3    3    0  502 -0.27662395104E+03 -0.32892509418E+03 -0.83189690559E+03  0.93635729794E+03  0.00000000000E+00 0.  1.
         13    1    5    5    0    0  0.17851555143E+03  0.48479422238E+01 -0.16994961473E+03  0.24652418987E+03  0.00000000000E+00 0. -1.
        -13    1    5    5    0    0  0.29405289209E+03 -0.54447554766E+02 -0.44136450202E+03  0.53313625201E+03  0.00000000000E+00 0.  1.
          2    1    6    6  503    0  0.14028075059E+03  0.70767659111E+03 -0.50882775156E+03  0.88283097326E+03  0.00000000000E+00 0. -1.
         -2    1    6    6    0  503 -0.77272116646E+01  0.60351665146E+02 -0.68427011445E+02  0.91565764242E+02  0.00000000000E+00 0.  1.
<mgrwt>
<rscale>  0 0.23005167E+04</rscale>
<asrwt>0</asrwt>
<pdfrwt beam="1">  1        2 0.49850246E+00 0.23005167E+04</pdfrwt>
<pdfrwt beam="2">  1       -1 0.62819830E-01 0.23005167E+04</pdfrwt>
<totfact> 0.32397050E+00</totfact>
</mgrwt>
</event>
<event>
12    7  0.1637954E-007  0.2035324E+04  0.7818608E-02  0.8590282E-01
          2   -1    0    0  501    0  0.00000000000E+00  0.00000000000E+00  0.27914065427E+04  0.27914065427E+04  0.00000000000E+00 0. -1.
         -1   -1    0    0    0  501 -0.00000000000E+00 -0.00000000000E+00 -0.37100850413E+03  0.37100850413E+03  0.00000000000E+00 0.  1.
         24    2    1    2    0    0  0.25661983631E+02  0.51741050094E+03  0.19739463883E+04  0.20423778704E+04  0.80441642001E+02 0.  0.
        254    2    1    2    0    0 -0.25661983631E+02 -0.51741050094E+03  0.44645165024E+03  0.11200371764E+04  0.88701298558E+03 0.  0.
         23    2    4    4    0    0  0.28081876702E+02 -0.75607051698E+03  0.28823461065E+03  0.81481281030E+03  0.91703362035E+02 0.  0.
         23    2    4    4    0    0 -0.53743860333E+02  0.23866001603E+03  0.15821703959E+03  0.30522436609E+03  0.91007012142E+02 0.  0.
          4    1    3    3  502    0  0.11780703609E+02  0.36527511239E+03  0.15238702190E+04  0.15670817263E+04  0.00000000000E+00 0. -1.
         -3    1    3    3    0  502  0.13881280022E+02  0.15213538856E+03  0.45007616931E+03  0.47529614407E+03  0.00000000000E+00 0.  1.
         13    1    5    5    0    0 -0.21387069044E+02 -0.22080367319E+03  0.11607011112E+03  0.25036760876E+03  0.00000000000E+00 0. -1.
        -13    1    5    5    0    0  0.49468945746E+02 -0.53526684378E+03  0.17216449953E+03  0.56444520154E+03  0.00000000000E+00 0.  1.
          4    1    6    6  503    0  0.18493944815E+02  0.60929764601E+02  0.13951896502E+02  0.65185256195E+02  0.00000000000E+00 0. -1.
         -4    1    6    6    0  503 -0.72237805147E+02  0.17773025143E+03  0.14426514309E+03  0.24003910989E+03  0.00000000000E+00 0.  1.
<mgrwt>
<rscale>  0 0.20353236E+04</rscale>
<asrwt>0</asrwt>
<pdfrwt beam="1">  1        2 0.42944715E+00 0.20353236E+04</pdfrwt>
<pdfrwt beam="2">  1       -1 0.57078233E-01 0.20353236E+04</pdfrwt>
<totfact> 0.76791049E+00</totfact>
</mgrwt>
</event>
<event>
12    7  0.1637954E-007  0.1593915E+04  0.7818608E-02  0.8824295E-01
          2   -1    0    0  501    0  0.00000000000E+00  0.00000000000E+00  0.12730050790E+04  0.12730050790E+04  0.00000000000E+00 0. -1.
         -1   -1    0    0    0  501 -0.00000000000E+00 -0.00000000000E+00 -0.49893077439E+03  0.49893077439E+03  0.00000000000E+00 0.  1.
         24    2    1    2    0    0 -0.43154840499E+03  0.30921213143E+03  0.15426342627E+03  0.55845721008E+03  0.78937207500E+02 0.  0.
        254    2    1    2    0    0  0.43154840499E+03 -0.30921213143E+03  0.61981087838E+03  0.12134786433E+04  0.89806387569E+03 0.  0.
         23    2    4    4    0    0 -0.71626059330E+02 -0.40533167426E+03  0.23370886612E+02  0.42201059940E+03  0.90125962583E+02 0.  0.
         23    2    4    4    0    0  0.50317446432E+03  0.96119542820E+02  0.59643999177E+03  0.79146804395E+03  0.90870747560E+02 0.  0.
          2    1    3    3  502    0 -0.12776776762E+03  0.61282763222E+02  0.67033576587E+02  0.15675994354E+03  0.00000000000E+00 0. -1.
         -1    1    3    3    0  502 -0.30378063737E+03  0.24792936821E+03  0.87229849684E+02  0.40169726653E+03  0.00000000000E+00 0.  1.
         13    1    5    5    0    0 -0.27616360865E+02 -0.94991730639E+02 -0.31458621709E+02  0.10380624816E+03  0.00000000000E+00 0.  1.
        -13    1    5    5    0    0 -0.44009698464E+02 -0.31033994362E+03  0.54829508320E+02  0.31820435124E+03  0.00000000000E+00 0. -1.
          4    1    6    6  503    0  0.44279575676E+03  0.70324560483E+02  0.47344936639E+03  0.65204902312E+03  0.00000000000E+00 0. -1.
         -4    1    6    6    0  503  0.60378707561E+02  0.25794982337E+02  0.12299062537E+03  0.13941902083E+03  0.00000000000E+00 0.  1.
<mgrwt>
<rscale>  0 0.15939152E+04</rscale>
<asrwt>0</asrwt>
<pdfrwt beam="1">  1        2 0.19584693E+00 0.15939152E+04</pdfrwt>
<pdfrwt beam="2">  1       -1 0.76758581E-01 0.15939152E+04</pdfrwt>
<totfact> 0.31934292E+01</totfact>
</mgrwt>
</event>
<event>
12    7  0.1637954E-007  0.1533969E+04  0.7818608E-02  0.8862173E-01
          2   -1    0    0  501    0  0.00000000000E+00  0.00000000000E+00  0.11653888056E+04  0.11653888056E+04  0.00000000000E+00 0. -1.
         -1   -1    0    0    0  501 -0.00000000000E+00 -0.00000000000E+00 -0.50477995714E+03  0.50477995714E+03  0.00000000000E+00 0.  1.
         24    2    1    2    0    0 -0.26523476369E+03 -0.41885908471E+03  0.30121572066E+03  0.58574184146E+03  0.81056657621E+02 0.  0.
        254    2    1    2    0    0  0.26523476369E+03  0.41885908471E+03  0.35939312776E+03  0.10844269212E+04  0.89500051090E+03 0.  0.
         23    2    4    4    0    0  0.56129080878E+02 -0.22948844320E+03  0.30273056386E+03  0.39478911081E+03  0.91636392550E+02 0.  0.
         23    2    4    4    0    0  0.20910568282E+03  0.64834752791E+03  0.56662563896E+02  0.68963781043E+03  0.91158981401E+02 0.  0.
          4    1    3    3  502    0 -0.16884791604E+03 -0.28174981574E+03  0.24199478845E+03  0.40798781239E+03  0.00000000000E+00 0. -1.
         -3    1    3    3    0  502 -0.96386847655E+02 -0.13710926897E+03  0.59220932211E+02  0.17775402907E+03  0.00000000000E+00 0.  1.
         13    1    5    5    0    0  0.77910382049E+01 -0.19075197442E+03  0.23939317309E+03  0.30619619093E+03  0.00000000000E+00 0.  1.
        -13    1    5    5    0    0  0.48338042673E+02 -0.38736468778E+02  0.63337390775E+02  0.88592919881E+02  0.00000000000E+00 0. -1.
          4    1    6    6  503    0  0.86080597676E+02  0.20870390101E+03 -0.20275884874E+02  0.22666781664E+03  0.00000000000E+00 0. -1.
         -4    1    6    6    0  503  0.12302508514E+03  0.43964362690E+03  0.76938448771E+02  0.46296999378E+03  0.00000000000E+00 0.  1.
<mgrwt>
<rscale>  0 0.15339686E+04</rscale>
<asrwt>0</asrwt>
<pdfrwt beam="1">  1        2 0.17929059E+00 0.15339686E+04</pdfrwt>
<pdfrwt beam="2">  1       -1 0.77658455E-01 0.15339686E+04</pdfrwt>
<totfact> 0.36289039E+01</totfact>
</mgrwt>
</event>
<event>
12    7  0.1637954E-007  0.2840064E+04  0.7818608E-02  0.8290937E-01
         -1   -1    0    0    0  501 -0.00000000000E+00  0.00000000000E+00  0.59227755796E+03  0.59227755796E+03  0.00000000000E+00 0.  1.
          2   -1    0    0  501    0  0.00000000000E+00 -0.00000000000E+00 -0.34046393028E+04  0.34046393028E+04  0.00000000000E+00 0. -1.
         24    2    1    2    0    0  0.38563093425E+02 -0.35114835569E+03  0.46411759907E+03  0.58835534364E+03  0.77230724107E+02 0.  0.
        254    2    1    2    0    0 -0.38563093425E+02  0.35114835569E+03 -0.32764793439E+04  0.34085615171E+04  0.87073672549E+03 0.  0.
         23    2    4    4    0    0  0.31087744276E+03  0.32632188836E+03 -0.96704958755E+03  0.10708993849E+04  0.92248731799E+02 0.  0.
         23    2    4    4    0    0 -0.34944053618E+03  0.24826467328E+02 -0.23094297563E+04  0.23376621322E+04  0.92051090126E+02 0.  0.
          4    1    3    3  502    0 -0.13799413195E+02 -0.25941747785E+02  0.20544475894E+02  0.35853501536E+02  0.00000000000E+00 0. -1.
         -3    1    3    3    0  502  0.52362506620E+02 -0.32520660790E+03  0.44357312317E+03  0.55250184210E+03  0.00000000000E+00 0.  1.
         13    1    5    5    0    0  0.31655446744E+03  0.31144978939E+03 -0.93076977301E+03  0.10312807923E+04  0.00000000000E+00 0.  1.
        -13    1    5    5    0    0 -0.56770246800E+01  0.14872098973E+02 -0.36279814536E+02  0.39618592603E+02  0.00000000000E+00 0. -1.
          4    1    6    6  503    0 -0.25618590144E+03  0.51378524174E+02 -0.18265445287E+04  0.18451384458E+04  0.00000000000E+00 0.  1.
         -4    1    6    6    0  503 -0.93254634744E+02 -0.26552056846E+02 -0.48288522763E+03  0.49252368643E+03  0.00000000000E+00 0. -1.
<mgrwt>
<rscale>  0 0.28400644E+04</rscale>
<asrwt>0</asrwt>
<pdfrwt beam="1">  1        2 0.52379065E+00 0.28400644E+04</pdfrwt>
<pdfrwt beam="2">  1       -1 0.91119627E-01 0.28400644E+04</pdfrwt>
<totfact> 0.10959844E+00</totfact>
</mgrwt>
</event>
<event>
12    7  0.1637954E-007  0.1699852E+04  0.7818608E-02  0.8761449E-01
          2   -1    0    0  501    0  0.00000000000E+00  0.00000000000E+00  0.21423838297E+03  0.21423838297E+03  0.00000000000E+00 0. -1.
         -1   -1    0    0    0  501 -0.00000000000E+00 -0.00000000000E+00 -0.33718232349E+04  0.33718232349E+04  0.00000000000E+00 0.  1.
         24    2    1    2    0    0  0.81574310052E+02 -0.50179834077E+03 -0.43030167525E+03  0.67098222223E+03  0.81250649015E+02 0.  0.
        254    2    1    2    0    0 -0.81574310052E+02  0.50179834077E+03 -0.27272831767E+04  0.29150793957E+04  0.89507452998E+03 0.  0.
         23    2    4    4    0    0 -0.42592689918E+03  0.39904646809E+02 -0.13369985460E+04  0.14074116425E+04  0.10117467641E+03 0.  0.
         23    2    4    4    0    0  0.34435258913E+03  0.46189369396E+03 -0.13902846308E+04  0.15076677532E+04  0.90808641628E+02 0.  0.
          4    1    3    3  502    0  0.32889036955E+02 -0.40571643478E+03 -0.34496382952E+03  0.53356120349E+03  0.00000000000E+00 0. -1.
         -1    1    3    3    0  502  0.48685273096E+02 -0.96081905995E+02 -0.85337845727E+02  0.13742101873E+03  0.00000000000E+00 0.  1.
         13    1    5    5    0    0 -0.24096458288E+03  0.45754785566E+02 -0.61575180848E+03  0.66280292716E+03  0.00000000000E+00 0. -1.
        -13    1    5    5    0    0 -0.18496231630E+03 -0.58501387570E+01 -0.72124673747E+03  0.74460871529E+03  0.00000000000E+00 0.  1.
          1    1    6    6  503    0  0.18672850559E+03  0.28583276579E+03 -0.92091959595E+03  0.98217147536E+03  0.00000000000E+00 0. -1.
         -1    1    6    6    0  503  0.15762408354E+03  0.17606092818E+03 -0.46936503481E+03  0.52549627786E+03  0.00000000000E+00 0.  1.
<mgrwt>
<rscale>  0 0.16998517E+04</rscale>
<asrwt>0</asrwt>
<pdfrwt beam="1">  1        2 0.32959752E-01 0.16998517E+04</pdfrwt>
<pdfrwt beam="2">  1       -1 0.51874203E+00 0.16998517E+04</pdfrwt>
<totfact> 0.19688938E-01</totfact>
</mgrwt>
</event>
<event>
12    7  0.1637954E-007  0.1453883E+04  0.7818608E-02  0.8915713E-01
         -3   -1    0    0    0  501 -0.00000000000E+00  0.00000000000E+00  0.24813533306E+03  0.24813533306E+03  0.00000000000E+00 0.  1.
          4   -1    0    0  501    0  0.00000000000E+00 -0.00000000000E+00 -0.21296589973E+04  0.21296589973E+04  0.00000000000E+00 0. -1.
         24    2    1    2    0    0  0.25848624998E+03  0.16097733320E+03 -0.11240139229E+04  0.11672745257E+04  0.79960466238E+02 0.  0.
        254    2    1    2    0    0 -0.25848624998E+03 -0.16097733320E+03 -0.75750974139E+03  0.12105198047E+04  0.89376078798E+03 0.  0.
         23    2    4    4    0    0  0.11963652807E+03 -0.21928332698E+03 -0.77276423411E+03  0.81699589651E+03  0.88992455097E+02 0.  0.
         23    2    4    4    0    0 -0.37812277805E+03  0.58305993777E+02  0.15254492718E+02  0.39352390822E+03  0.90840203695E+02 0.  0.
          2    1    3    3  502    0  0.11124633293E+03  0.77555275527E+02 -0.64896160972E+03  0.66297944028E+03  0.00000000000E+00 0. -1.
         -1    1    3    3    0  502  0.14723991705E+03  0.83422057678E+02 -0.47505231318E+03  0.50429508538E+03  0.00000000000E+00 0.  1.
         13    1    5    5    0    0  0.14973450220E+02 -0.80158409146E+02 -0.15465724254E+03  0.17483831799E+03  0.00000000000E+00 0.  1.
        -13    1    5    5    0    0  0.10466307785E+03 -0.13912491784E+03 -0.61810699157E+03  0.64215757852E+03  0.00000000000E+00 0. -1.
          2    1    6    6  503    0 -0.12849300878E+03 -0.23318722688E+02  0.53444734983E+01  0.13070110761E+03  0.00000000000E+00 0. -1.
         -2    1    6    6    0  503 -0.24962976927E+03  0.81624716466E+02  0.99100192199E+01  0.26282280062E+03  0.00000000000E+00 0.  1.
<mgrwt>
<rscale>  0 0.14538826E+04</rscale>
<asrwt>0</asrwt>
<pdfrwt beam="1">  1        4 0.32763984E+00 0.14538826E+04</pdfrwt>
<pdfrwt beam="2">  1       -3 0.38174667E-01 0.14538826E+04</pdfrwt>
<totfact> 0.31512702E-01</totfact>
</mgrwt>
</event>
<event>
12    7  0.1637954E-007  0.1327687E+04  0.7818608E-02  0.9007893E-01
         -1   -1    0    0    0  501 -0.00000000000E+00  0.00000000000E+00  0.23464746137E+03  0.23464746137E+03  0.00000000000E+00 0.  1.
          2   -1    0    0  501    0  0.00000000000E+00 -0.00000000000E+00 -0.18780860411E+04  0.18780860411E+04  0.00000000000E+00 0. -1.
         24    2    1    2    0    0  0.94358271926E+02 -0.22428590489E+03 -0.85061693337E+03  0.88797767865E+03  0.75812530747E+02 0.  0.
        254    2    1    2    0    0 -0.94358271926E+02  0.22428590489E+03 -0.79282164631E+03  0.12247558238E+04  0.90125080550E+03 0.  0.
         23    2    4    4    0    0  0.34459343535E+03 -0.55046651133E+02 -0.51259904407E+03  0.62674097951E+03  0.90948919391E+02 0.  0.
         23    2    4    4    0    0 -0.43895170728E+03  0.27933255602E+03 -0.28022260224E+03  0.59801484427E+03  0.91606599013E+02 0.  0.
          4    1    3    3  502    0  0.78057742999E+02 -0.19496958946E+03 -0.80108483366E+03  0.82815642410E+03  0.00000000000E+00 0. -1.
         -3    1    3    3    0  502  0.16300528927E+02 -0.29316315427E+02 -0.49532099718E+02  0.59821254550E+02  0.00000000000E+00 0.  1.
         13    1    5    5    0    0  0.23771270519E+03 -0.18400598663E+02 -0.27720687996E+03  0.36563583869E+03  0.00000000000E+00 0. -1.
        -13    1    5    5    0    0  0.10688073016E+03 -0.36646052469E+02 -0.23539216411E+03  0.26110514082E+03  0.00000000000E+00 0.  1.
          4    1    6    6  503    0 -0.40980215310E+03  0.24371492624E+03 -0.27802916207E+03  0.55193748280E+03  0.00000000000E+00 0. -1.
         -4    1    6    6    0  503 -0.29149554171E+02  0.35617629779E+02 -0.21934401680E+01  0.46077361461E+02  0.00000000000E+00 0.  1.
<mgrwt>
<rscale>  0 0.13276869E+04</rscale>
<asrwt>0</asrwt>
<pdfrwt beam="1">  1        2 0.28893631E+00 0.13276869E+04</pdfrwt>
<pdfrwt beam="2">  1       -1 0.36099610E-01 0.13276869E+04</pdfrwt>
<totfact> 0.63898997E+01</totfact>
</mgrwt>
</event>
<event>
12    7  0.1637954E-007  0.2296343E+04  0.7818608E-02  0.8479364E-01
         -1   -1    0    0    0  501 -0.00000000000E+00  0.00000000000E+00  0.49903961226E+03  0.49903961226E+03  0.00000000000E+00 0.  1.
          2   -1    0    0  501    0  0.00000000000E+00 -0.00000000000E+00 -0.26416707382E+04  0.26416707382E+04  0.00000000000E+00 0. -1.
         24    2    1    2    0    0 -0.61850730627E+02  0.77967533442E+02 -0.22255546178E+04  0.22291360928E+04  0.77781193440E+02 0.  0.
        254    2    1    2    0    0  0.61850730627E+02 -0.77967533442E+02  0.82923491836E+02  0.91157425772E+03  0.90232304232E+03 0.  0.
         23    2    4    4    0    0 -0.23486782155E+02  0.68200923889E+02  0.46807054953E+03  0.48115295904E+03  0.84941954908E+02 0.  0.
         23    2    4    4    0    0  0.85337512782E+02 -0.14616845733E+03 -0.38514705770E+03  0.43042129868E+03  0.90975432395E+02 0.  0.
          4    1    3    3  502    0 -0.10010328556E+02  0.73334858065E+02 -0.13747695767E+04  0.13767605445E+04  0.00000000000E+00 0. -1.
         -3    1    3    3    0  502 -0.51840402072E+02  0.46326753767E+01 -0.85078504114E+03  0.85237554822E+03  0.00000000000E+00 0.  1.
         13    1    5    5    0    0  0.28049039879E+02  0.39396103313E+02  0.27628594860E+03  0.28048658967E+03  0.00000000000E+00 0.  1.
        -13    1    5    5    0    0 -0.51535822034E+02  0.28804820575E+02  0.19178460093E+03  0.20066636937E+03  0.00000000000E+00 0. -1.
          3    1    6    6  503    0  0.41700633870E+02 -0.11557776338E+03 -0.17636974616E+03  0.21494987698E+03  0.00000000000E+00 0. -1.
         -3    1    6    6    0  503  0.43636878912E+02 -0.30590693950E+02 -0.20877731153E+03  0.21547142170E+03  0.00000000000E+00 0.  1.
<mgrwt>
<rscale>  0 0.22963435E+04</rscale>
<asrwt>0</asrwt>
<pdfrwt beam="1">  1        2 0.40641089E+00 0.22963435E+04</pdfrwt>
<pdfrwt beam="2">  1       -1 0.76775324E-01 0.22963435E+04</pdfrwt>
<totfact> 0.50514036E+00</totfact>
</mgrwt>
</event>
