<event>
12    1  0.1442183E-007  0.1494162E+04  0.7818608E-02  0.8888344E-01
         -2   -1    0    0    0  501 -0.00000000000E+00  0.00000000000E+00  0.15193833678E+04  0.15193833678E+04  0.00000000000E+00 0.  1.
          2   -1    0    0  501    0  0.00000000000E+00 -0.00000000000E+00 -0.36733981268E+03  0.36733981268E+03  0.00000000000E+00 0. -1.
         23    2    1    2    0    0  0.17357360221E+03  0.47253696012E+03  0.36198906568E+03  0.62664565978E+03  0.90717832789E+02 0.  0.
        254    2    1    2    0    0 -0.17357360221E+03 -0.47253696012E+03  0.79005448948E+03  0.12600775207E+04  0.84272788483E+03 0.  0.
        -24    2    4    4    0    0  0.28826308162E+02 -0.59506234710E+03  0.81165817916E+03  0.10101574625E+04  0.81847090429E+02 0.  0.
         24    2    4    4    0    0 -0.20239991038E+03  0.12252538698E+03 -0.21603689675E+02  0.24992005827E+03  0.77557217235E+02 0.  0.
         13    1    3    3    0    0  0.11920178159E+03  0.21534614124E+03  0.14414904218E+03  0.28524019990E+03  0.00000000000E+00 0. -1.
        -13    1    3    3    0    0  0.54371820627E+02  0.25719081888E+03  0.21784002350E+03  0.34140545988E+03  0.00000000000E+00 0.  1.
          2    1    6    6  502    0 -0.98916220845E+02  0.91855308586E+02  0.15299938498E+02  0.13585251039E+03  0.00000000000E+00 0. -1.
          1    1    5    5  503    0  0.43173057076E+01 -0.52461772096E+03  0.73666762988E+03  0.90439017531E+03  0.00000000000E+00 0. -1.
         -2    1    5    5    0  503  0.24509002454E+02 -0.70444626142E+02  0.74990549274E+02  0.10576728716E+03  0.00000000000E+00 0.  1.
         -1    1    6    6    0  502 -0.10348368953E+03  0.30670078395E+02 -0.36903628173E+02  0.11406754788E+03  0.00000000000E+00 0.  1.
<mgrwt>
<rscale>  0 0.14941620E+04</rscale>
<asrwt>0</asrwt>
<pdfrwt beam="1">  1        2 0.56513818E-01 0.14941620E+04</pdfrwt>
<pdfrwt beam="2">  1       -2 0.23375128E+00 0.14941620E+04</pdfrwt>
<totfact> 0.68527987E+00</totfact>
</mgrwt>
</event>
<event>
12    1  0.1442183E-007  0.1520049E+04  0.7818608E-02  0.8871229E-01
         -1   -1    0    0    0  501 -0.00000000000E+00  0.00000000000E+00  0.28451042098E+03  0.28451042098E+03  0.00000000000E+00 0.  1.
          1   -1    0    0  501    0  0.00000000000E+00 -0.00000000000E+00 -0.20302844549E+04  0.20302844549E+04  0.00000000000E+00 0. -1.
         23    2    1    2    0    0  0.36148820545E+03  0.19953561429E+03 -0.78013921298E+03  0.88738208292E+03  0.91332280200E+02 0.  0.
        254    2    1    2    0    0 -0.36148820545E+03 -0.19953561429E+03 -0.96563482099E+03  0.14274127930E+04  0.96673082607E+03 0.  0.
        -24    2    4    4    0    0  0.11446799414E+03 -0.84589830899E+02 -0.91416620081E+03  0.92863562543E+03  0.80036997408E+02 0.  0.
         24    2    4    4    0    0 -0.47595619958E+03 -0.11494578339E+03 -0.51468620181E+02  0.49877716757E+03  0.79892471394E+02 0.  0.
         13    1    3    3    0    0  0.25521618466E+03  0.12601736620E+03 -0.61516412357E+03  0.67782193564E+03  0.00000000000E+00 0. -1.
        -13    1    3    3    0    0  0.10627202079E+03  0.73518248090E+02 -0.16497508941E+03  0.20956014728E+03  0.00000000000E+00 0.  1.
          2    1    6    6  502    0 -0.14028767055E+03 -0.65239513328E+02 -0.37323567492E+02  0.15915361541E+03  0.00000000000E+00 0. -1.
          3    1    5    5  503    0  0.12269438989E+02  0.35549398721E+01 -0.27887532584E+03  0.27916773469E+03  0.00000000000E+00 0. -1.
         -4    1    5    5    0  503  0.10219855515E+03 -0.88144770772E+02 -0.63529087496E+03  0.64946789074E+03  0.00000000000E+00 0.  1.
         -1    1    6    6    0  502 -0.33566852903E+03 -0.49706270059E+02 -0.14145052689E+02  0.33962355216E+03  0.00000000000E+00 0.  1.
<mgrwt>
<rscale>  0 0.15200488E+04</rscale>
<asrwt>0</asrwt>
<pdfrwt beam="1">  1        1 0.31235146E+00 0.15200488E+04</pdfrwt>
<pdfrwt beam="2">  1       -1 0.43770834E-01 0.15200488E+04</pdfrwt>
<totfact> 0.14165273E+01</totfact>
</mgrwt>
</event>
<event>
12    1  0.1442183E-007  0.1428046E+04  0.7818608E-02  0.8933764E-01
         -1   -1    0    0    0  501 -0.00000000000E+00  0.00000000000E+00  0.10166644748E+04  0.10166644748E+04  0.00000000000E+00 0.  1.
          1   -1    0    0  501    0  0.00000000000E+00 -0.00000000000E+00 -0.50147230094E+03  0.50147230094E+03  0.00000000000E+00 0. -1.
         23    2    1    2    0    0  0.25081942219E+03 -0.23701939443E+02 -0.20992206806E+03  0.33914316481E+03  0.86479171494E+02 0.  0.
        254    2    1    2    0    0 -0.25081942219E+03  0.23701939443E+02  0.72511424191E+03  0.11789936109E+04  0.89485367871E+03 0.  0.
        -24    2    4    4    0    0 -0.44433166186E+03  0.16031993455E+03  0.77635579509E+02  0.48484079180E+03  0.76877844925E+02 0.  0.
         24    2    4    4    0    0  0.19351223967E+03 -0.13661799511E+03  0.64747866240E+03  0.69415281912E+03  0.80672514140E+02 0.  0.
         11    1    3    3    0    0  0.74289344016E+02 -0.16454186796E+02 -0.11687332772E+03  0.13945974913E+03  0.00000000000E+00 0.  1.
        -11    1    3    3    0    0  0.17653007817E+03 -0.72477526463E+01 -0.93048740341E+02  0.19968341568E+03  0.00000000000E+00 0. -1.
          2    1    6    6  502    0  0.15050511349E+03 -0.85518654960E+02  0.54500335950E+03  0.57183379701E+03  0.00000000000E+00 0. -1.
          3    1    5    5  503    0 -0.39090240068E+03  0.12075388747E+03  0.85268694351E+02  0.41791977511E+03  0.00000000000E+00 0. -1.
         -4    1    5    5    0  503 -0.53429261186E+02  0.39566047079E+02 -0.76331148415E+01  0.66921016688E+02  0.00000000000E+00 0.  1.
         -1    1    6    6    0  502  0.43007126190E+02 -0.51099340147E+02  0.10247530290E+03  0.12231902211E+03  0.00000000000E+00 0.  1.
<mgrwt>
<rscale>  0 0.14280463E+04</rscale>
<asrwt>0</asrwt>
<pdfrwt beam="1">  1        1 0.77149585E-01 0.14280463E+04</pdfrwt>
<pdfrwt beam="2">  1       -1 0.15640992E+00 0.14280463E+04</pdfrwt>
<totfact> 0.13367829E+01</totfact>
</mgrwt>
</event>
<event>
12    1  0.1442183E-007  0.1715986E+04  0.7818608E-02  0.8752299E-01
         -2   -1    0    0    0  501 -0.00000000000E+00  0.00000000000E+00  0.74403312852E+03  0.74403312852E+03  0.00000000000E+00 0. -1.
          2   -1    0    0  501    0  0.00000000000E+00 -0.00000000000E+00 -0.98940716901E+03  0.98940716901E+03  0.00000000000E+00 0.  1.
         23    2    1    2    0    0 -0.33259066324E+03  0.11517080380E+03 -0.61194502415E+03  0.71156750833E+03  0.89279017728E+02 0.  0.
        254    2    1    2    0    0  0.33259066324E+03 -0.11517080380E+03  0.36657098367E+03  0.10218727892E+04  0.88654884124E+03 0.  0.
        -24    2    4    4    0    0  0.50592385343E+03  0.74334672876E+02 -0.56468262141E+02  0.52063907263E+03  0.79948672704E+02 0.  0.
         24    2    4    4    0    0 -0.17333319018E+03 -0.18950547668E+03  0.42303924581E+03  0.50123371656E+03  0.79475245306E+02 0.  0.
         11    1    3    3    0    0 -0.13469330837E+03  0.74454993454E+02 -0.33593766328E+03  0.36951312153E+03  0.00000000000E+00 0. -1.
        -11    1    3    3    0    0 -0.19789735488E+03  0.40715810348E+02 -0.27600736087E+03  0.34205438681E+03  0.00000000000E+00 0.  1.
          2    1    6    6  502    0 -0.14984359456E+03 -0.19107908979E+03  0.36286453978E+03  0.43661767671E+03  0.00000000000E+00 0. -1.
          1    1    5    5  503    0  0.49958690379E+03  0.62858960215E+02 -0.49945747001E+02  0.50599693770E+03  0.00000000000E+00 0. -1.
         -2    1    5    5    0  503  0.63369496403E+01  0.11475712661E+02 -0.65225151401E+01  0.14642134939E+02  0.00000000000E+00 0.  1.
         -1    1    6    6    0  502 -0.23489595618E+02  0.15736131143E+01  0.60174706026E+02  0.64616039850E+02  0.00000000000E+00 0.  1.
<mgrwt>
<rscale>  0 0.17159857E+04</rscale>
<asrwt>0</asrwt>
<pdfrwt beam="1">  1        2 0.15221649E+00 0.17159857E+04</pdfrwt>
<pdfrwt beam="2">  1       -2 0.11446664E+00 0.17159857E+04</pdfrwt>
<totfact> 0.14504143E+01</totfact>
</mgrwt>
</event>
<event>
12    1  0.1442183E-007  0.1833161E+04  0.7818608E-02  0.8688861E-01
         -2   -1    0    0    0  501 -0.00000000000E+00  0.00000000000E+00  0.29732370398E+03  0.29732370398E+03  0.00000000000E+00 0.  1.
          2   -1    0    0  501    0  0.00000000000E+00 -0.00000000000E+00 -0.28256067601E+04  0.28256067601E+04  0.00000000000E+00 0. -1.
         23    2    1    2    0    0  0.38746416146E+03  0.44568814873E+03 -0.13463459602E+04  0.14729865266E+04  0.90969558524E+02 0.  0.
        254    2    1    2    0    0 -0.38746416146E+03 -0.44568814873E+03 -0.11819370959E+04  0.16499439375E+04  0.98821723112E+03 0.  0.
        -24    2    4    4    0    0 -0.52249943006E+03 -0.45621268835E+03 -0.12847005464E+04  0.14621529446E+04  0.79372967307E+02 0.  0.
         24    2    4    4    0    0  0.13503526860E+03  0.10524539621E+02  0.10276345055E+03  0.18779099290E+03  0.79748608413E+02 0.  0.
         11    1    3    3    0    0  0.36165514735E+03  0.39269216491E+03 -0.12600852165E+04  0.13685087997E+04  0.00000000000E+00 0. -1.
        -11    1    3    3    0    0  0.25809014111E+02  0.52995983817E+02 -0.86260743688E+02  0.10447772687E+03  0.00000000000E+00 0.  1.
          2    1    6    6  502    0  0.14060592081E+03  0.12197380252E+02  0.75787941146E+02  0.16019554636E+03  0.00000000000E+00 0. -1.
          1    1    5    5  503    0 -0.42890839490E+03 -0.41018474054E+03 -0.11096650985E+04  0.12584000014E+04  0.00000000000E+00 0. -1.
         -2    1    5    5    0  503 -0.93591035157E+02 -0.46027947804E+02 -0.17503544791E+03  0.20375294321E+03  0.00000000000E+00 0.  1.
         -1    1    6    6    0  502 -0.55706522069E+01 -0.16728406306E+01  0.26975509406E+02  0.27595446535E+02  0.00000000000E+00 0.  1.
<mgrwt>
<rscale>  0 0.18331611E+04</rscale>
<asrwt>0</asrwt>
<pdfrwt beam="1">  1        2 0.43470873E+00 0.18331611E+04</pdfrwt>
<pdfrwt beam="2">  1       -2 0.45742109E-01 0.18331611E+04</pdfrwt>
<totfact> 0.95446316E+00</totfact>
</mgrwt>
</event>
<event>
12    1  0.1442183E-007  0.2314481E+04  0.7818608E-02  0.8472233E-01
         -2   -1    0    0    0  501 -0.00000000000E+00  0.00000000000E+00  0.75163980632E+03  0.75163980632E+03  0.00000000000E+00 0.  1.
          2   -1    0    0  501    0  0.00000000000E+00 -0.00000000000E+00 -0.17817123666E+04  0.17817123666E+04  0.00000000000E+00 0. -1.
         23    2    1    2    0    0  0.95946547815E+03 -0.26954141528E+03 -0.38107024358E+03  0.10711723216E+04  0.94704982369E+02 0.  0.
        254    2    1    2    0    0 -0.95946547815E+03  0.26954141528E+03 -0.64900231674E+03  0.14621798514E+04  0.85061115222E+03 0.  0.
        -24    2    4    4    0    0  0.49295692436E+01  0.26088729909E+03  0.37482315481E+02  0.27558792329E+03  0.80357302155E+02 0.  0.
         24    2    4    4    0    0 -0.96439504739E+03  0.86541161842E+01 -0.68648463222E+03  0.11865919281E+04  0.81280700775E+02 0.  0.
         11    1    3    3    0    0  0.32886374404E+03 -0.83267686253E+02 -0.17732558354E+03  0.38279136915E+03  0.00000000000E+00 0. -1.
        -11    1    3    3    0    0  0.63060173411E+03 -0.18627372902E+03 -0.20374466004E+03  0.68838095244E+03  0.00000000000E+00 0.  1.
          2    1    6    6  502    0 -0.29875882933E+03 -0.34145929099E+02 -0.22263563933E+03  0.37415158756E+03  0.00000000000E+00 0. -1.
          3    1    5    5  503    0 -0.35704940225E+02  0.80313030125E+02  0.97286371130E+01  0.88428908986E+02  0.00000000000E+00 0. -1.
         -4    1    5    5    0  503  0.40634509469E+02  0.18057426897E+03  0.27753678368E+02  0.18715901431E+03  0.00000000000E+00 0.  1.
         -1    1    6    6    0  502 -0.66563621806E+03  0.42800045283E+02 -0.46384899289E+03  0.81244034050E+03  0.00000000000E+00 0.  1.
<mgrwt>
<rscale>  0 0.23144813E+04</rscale>
<asrwt>0</asrwt>
<pdfrwt beam="1">  1        2 0.27410959E+00 0.23144813E+04</pdfrwt>
<pdfrwt beam="2">  1       -2 0.11563689E+00 0.23144813E+04</pdfrwt>
<totfact> 0.46534362E+00</totfact>
</mgrwt>
</event>
<event>
12    1  0.1442183E-007  0.2077949E+04  0.7818608E-02  0.8571019E-01
         -2   -1    0    0    0  501 -0.00000000000E+00  0.00000000000E+00  0.14832992510E+04  0.14832992510E+04  0.00000000000E+00 0.  1.
          2   -1    0    0  501    0  0.00000000000E+00 -0.00000000000E+00 -0.72774830896E+03  0.72774830896E+03  0.00000000000E+00 0. -1.
         23    2    1    2    0    0  0.44078190973E+03 -0.29413316536E+03  0.10130990456E+04  0.11468609983E+04  0.90096960386E+02 0.  0.
        254    2    1    2    0    0 -0.44078190973E+03  0.29413316536E+03 -0.25754810359E+03  0.10641865617E+04  0.88620483041E+03 0.  0.
        -24    2    4    4    0    0 -0.47281851673E+03 -0.14713348673E+03  0.71334415470E+02  0.50665245080E+03  0.80015588439E+02 0.  0.
         24    2    4    4    0    0  0.32036606993E+02  0.44126665209E+03 -0.32888251906E+03  0.55753411086E+03  0.83294483605E+02 0.  0.
         13    1    3    3    0    0  0.17452435684E+02 -0.26821119417E+02  0.10650662404E+03  0.11120980588E+03  0.00000000000E+00 0. -1.
        -13    1    3    3    0    0  0.42332947405E+03 -0.26731204594E+03  0.90659242154E+03  0.10356511924E+04  0.00000000000E+00 0.  1.
          2    1    6    6  502    0  0.32397478532E+02  0.42478075606E+03 -0.33278727612E+03  0.54058825226E+03  0.00000000000E+00 0. -1.
          3    1    5    5  503    0 -0.40184734560E+03 -0.12896231525E+03  0.88945691519E+02  0.43130488516E+03  0.00000000000E+00 0. -1.
         -4    1    5    5    0  503 -0.70971171129E+02 -0.18171171472E+02 -0.17611276049E+02  0.75347565641E+02  0.00000000000E+00 0.  1.
         -1    1    6    6    0  502 -0.36087153906E+00  0.16485896021E+02  0.39047570600E+01  0.16945858596E+02  0.00000000000E+00 0.  1.
<mgrwt>
<rscale>  0 0.20779495E+04</rscale>
<asrwt>0</asrwt>
<pdfrwt beam="1">  1        2 0.11196128E+00 0.20779495E+04</pdfrwt>
<pdfrwt beam="2">  1       -2 0.22819988E+00 0.20779495E+04</pdfrwt>
<totfact> 0.31571349E+00</totfact>
</mgrwt>
</event>
<event>
12    1  0.1442183E-007  0.1570844E+04  0.7818608E-02  0.8838662E-01
         -1   -1    0    0    0  501 -0.00000000000E+00  0.00000000000E+00  0.63827335630E+03  0.63827335630E+03  0.00000000000E+00 0.  1.
          1   -1    0    0  501    0  0.00000000000E+00 -0.00000000000E+00 -0.96649483794E+03  0.96649483794E+03  0.00000000000E+00 0. -1.
         23    2    1    2    0    0  0.42109689746E+03  0.45718807820E+02 -0.38520685425E+03  0.57959459922E+03  0.90181885349E+02 0.  0.
        254    2    1    2    0    0 -0.42109689746E+03 -0.45718807820E+02  0.56985372603E+02  0.10251735950E+04  0.93183730383E+03 0.  0.
        -24    2    4    4    0    0 -0.18711967697E+03  0.31799847382E+03 -0.28009911469E+03  0.47025129263E+03  0.80894754575E+02 0.  0.
         24    2    4    4    0    0 -0.23397722049E+03 -0.36371728164E+03  0.33708448729E+03  0.55492230239E+03  0.85306561590E+02 0.  0.
         11    1    3    3    0    0  0.34212814356E+03  0.33676082839E+02 -0.35504249641E+03  0.49420736481E+03  0.00000000000E+00 0. -1.
        -11    1    3    3    0    0  0.78968753892E+02  0.12042724981E+02 -0.30164357842E+02  0.85387234411E+02  0.00000000000E+00 0.  1.
          2    1    6    6  502    0 -0.21511125560E+03 -0.34823538704E+03  0.28919621148E+03  0.50117380798E+03  0.00000000000E+00 0. -1.
          1    1    5    5  503    0 -0.15804796152E+03  0.20267761042E+03 -0.21226213087E+03  0.33333554282E+03  0.00000000000E+00 0. -1.
         -2    1    5    5    0  503 -0.29071715442E+02  0.11532086339E+03 -0.67836983817E+02  0.13691574981E+03  0.00000000000E+00 0.  1.
         -1    1    6    6    0  502 -0.18865964890E+02 -0.15481894599E+02  0.47888275805E+02  0.53748494408E+02  0.00000000000E+00 0.  1.
<mgrwt>
<rscale>  0 0.15708442E+04</rscale>
<asrwt>0</asrwt>
<pdfrwt beam="1">  1        1 0.14869151E+00 0.15708442E+04</pdfrwt>
<pdfrwt beam="2">  1       -1 0.98195902E-01 0.15708442E+04</pdfrwt>
<totfact> 0.15370503E+01</totfact>
</mgrwt>
</event>
<event>
12    1  0.1442183E-007  0.3955548E+04  0.7818608E-02  0.8013574E-01
         -1   -1    0    0    0  501 -0.00000000000E+00  0.00000000000E+00  0.21718238883E+04  0.21718238883E+04  0.00000000000E+00 0.  1.
          1   -1    0    0  501    0  0.00000000000E+00 -0.00000000000E+00 -0.18010623527E+04  0.18010623527E+04  0.00000000000E+00 0. -1.
         23    2    1    2    0    0 -0.55389634882E+03 -0.15405108595E+04  0.10936381522E+04  0.19709035693E+04  0.91878169990E+02 0.  0.
        254    2    1    2    0    0  0.55389634882E+03  0.15405108595E+04 -0.72287661660E+03  0.20019826718E+04  0.89744589906E+03 0.  0.
        -24    2    4    4    0    0  0.17749424069E+03  0.14411283499E+04 -0.45975459847E+03  0.15252491852E+04  0.81582228189E+02 0.  0.
         24    2    4    4    0    0  0.37640210813E+03  0.99382509613E+02 -0.26312201814E+03  0.47673348652E+03  0.80536889177E+02 0.  0.
         13    1    3    3    0    0 -0.48709839129E+03 -0.13539950533E+04  0.99608063448E+03  0.17500697351E+04  0.00000000000E+00 0. -1.
        -13    1    3    3    0    0 -0.66797957530E+02 -0.18651580615E+03  0.97557517702E+02  0.22083383422E+03  0.00000000000E+00 0.  1.
          2    1    6    6  502    0  0.29714254114E+02  0.32276055856E+02 -0.37240416420E+02  0.57545888596E+02  0.00000000000E+00 0. -1.
          1    1    5    5  503    0  0.60249290299E+02  0.81177940581E+03 -0.24768267721E+03  0.85085985290E+03  0.00000000000E+00 0. -1.
         -2    1    5    5    0  503  0.11724495039E+03  0.62934894407E+03 -0.21207192126E+03  0.67438933234E+03  0.00000000000E+00 0.  1.
         -1    1    6    6    0  502  0.34668785401E+03  0.67106453757E+02 -0.22588160172E+03  0.41918759792E+03  0.00000000000E+00 0.  1.
<mgrwt>
<rscale>  0 0.39555481E+04</rscale>
<asrwt>0</asrwt>
<pdfrwt beam="1">  1        1 0.27708652E+00 0.39555481E+04</pdfrwt>
<pdfrwt beam="2">  1       -1 0.33412675E+00 0.39555481E+04</pdfrwt>
<totfact> 0.63171763E-02</totfact>
</mgrwt>
</event>
<event>
12    1  0.1442183E-007  0.4035837E+04  0.7818608E-02  0.7997356E-01
          2   -1    0    0  501    0  0.00000000000E+00  0.00000000000E+00  0.29889670551E+04  0.29889670551E+04  0.00000000000E+00 0. -1.
         -2   -1    0    0    0  501 -0.00000000000E+00 -0.00000000000E+00 -0.13623422180E+04  0.13623422180E+04  0.00000000000E+00 0.  1.
         23    2    1    2    0    0 -0.15189994902E+04  0.85465741486E+03 -0.87968947815E+02  0.17475620391E+04  0.91846593652E+02 0.  0.
        254    2    1    2    0    0  0.15189994902E+04 -0.85465741486E+03  0.17145937849E+04  0.26037472339E+04  0.89547141932E+03 0.  0.
        -24    2    4    4    0    0  0.43417851214E+03 -0.71429634848E+03  0.94434684908E+03  0.12635634914E+04  0.77919647792E+02 0.  0.
         24    2    4    4    0    0  0.10848209781E+04 -0.14036106638E+03  0.77024693584E+03  0.13401837426E+04  0.79210720009E+02 0.  0.
         11    1    3    3    0    0 -0.15130800968E+03  0.94213245884E+02  0.17686553223E+02  0.17911745771E+03  0.00000000000E+00 0. -1.
        -11    1    3    3    0    0 -0.13676914806E+04  0.76044416898E+03 -0.10565550104E+03  0.15684445814E+04  0.00000000000E+00 0.  1.
          4    1    6    6  502    0  0.96090235257E+03 -0.12272381246E+03  0.64969992761E+03  0.11664066449E+04  0.00000000000E+00 0. -1.
          3    1    5    5  503    0  0.41061944039E+03 -0.68661644919E+03  0.92277406758E+03  0.12212953995E+04  0.00000000000E+00 0. -1.
         -2    1    5    5    0  503  0.23559071743E+02 -0.27679899294E+02  0.21572781505E+02  0.42268091844E+02  0.00000000000E+00 0.  1.
         -3    1    6    6    0  502  0.12391862553E+03 -0.17637253915E+02  0.12054700823E+03  0.17377709766E+03  0.00000000000E+00 0.  1.
<mgrwt>
<rscale>  0 0.40358375E+04</rscale>
<asrwt>0</asrwt>
<pdfrwt beam="1">  1        2 0.45984108E+00 0.40358375E+04</pdfrwt>
<pdfrwt beam="2">  1       -2 0.20959111E+00 0.40358375E+04</pdfrwt>
<totfact> 0.16022646E-01</totfact>
</mgrwt>
</event>
<event>
12    1  0.1442183E-007  0.1435899E+04  0.7818608E-02  0.8928235E-01
         -2   -1    0    0    0  501 -0.00000000000E+00  0.00000000000E+00  0.89142162724E+03  0.89142162724E+03  0.00000000000E+00 0.  1.
          2   -1    0    0  501    0  0.00000000000E+00 -0.00000000000E+00 -0.57823531507E+03  0.57823531507E+03  0.00000000000E+00 0. -1.
         23    2    1    2    0    0  0.34987554456E+03  0.10863231914E+03 -0.13235690189E+03  0.40014965386E+03  0.91583396769E+02 0.  0.
        254    2    1    2    0    0 -0.34987554456E+03 -0.10863231914E+03  0.44554321406E+03  0.10695072884E+04  0.90062378772E+03 0.  0.
        -24    2    4    4    0    0 -0.59363268469E+03 -0.26904711900E+03  0.22495923834E+03  0.69403686003E+03  0.79337176635E+02 0.  0.
         24    2    4    4    0    0  0.24375714013E+03  0.16041479987E+03  0.22058397572E+03  0.37547042842E+03  0.84677629217E+02 0.  0.
         13    1    3    3    0    0  0.30927969563E+03  0.12483033088E+03 -0.11103842323E+03  0.35151966242E+03  0.00000000000E+00 0.  1.
        -13    1    3    3    0    0  0.40595848929E+02 -0.16198011743E+02 -0.21318478657E+02  0.48629991435E+02  0.00000000000E+00 0. -1.
          2    1    6    6  502    0  0.13303840722E+03  0.85064376187E+02  0.66560079666E+02  0.17136338610E+03  0.00000000000E+00 0. -1.
          1    1    5    5  503    0 -0.20567827467E+03 -0.94113335895E+02  0.11851543001E+03  0.25535618226E+03  0.00000000000E+00 0. -1.
         -2    1    5    5    0  503 -0.38795441001E+03 -0.17493378311E+03  0.10644380832E+03  0.43868067777E+03  0.00000000000E+00 0.  1.
         -3    1    6    6    0  502  0.11071873291E+03  0.75350423681E+02  0.15402389605E+03  0.20410704231E+03  0.00000000000E+00 0.  1.
<mgrwt>
<rscale>  0 0.14358990E+04</rscale>
<asrwt>0</asrwt>
<pdfrwt beam="1">  1        2 0.88959279E-01 0.14358990E+04</pdfrwt>
<pdfrwt beam="2">  1       -2 0.13714179E+00 0.14358990E+04</pdfrwt>
<totfact> 0.19063372E+01</totfact>
</mgrwt>
</event>
<event>
12    1  0.1442183E-007  0.2834391E+04  0.7818608E-02  0.8292670E-01
         -1   -1    0    0    0  501 -0.00000000000E+00  0.00000000000E+00  0.46978454447E+03  0.46978454447E+03  0.00000000000E+00 0.  1.
          1   -1    0    0  501    0  0.00000000000E+00 -0.00000000000E+00 -0.42752441191E+04  0.42752441191E+04  0.00000000000E+00 0. -1.
         23    2    1    2    0    0  0.45303821993E+03 -0.11440830880E+04 -0.11822271498E+04  0.17090161726E+04  0.94368975876E+02 0.  0.
        254    2    1    2    0    0 -0.45303821993E+03  0.11440830880E+04 -0.26232324248E+04  0.30360124909E+04  0.90656149775E+03 0.  0.
        -24    2    4    4    0    0 -0.23499244169E+03  0.12481568795E+04 -0.21346754997E+04  0.24852233491E+04  0.79865901648E+02 0.  0.
         24    2    4    4    0    0 -0.21804577824E+03 -0.10407379142E+03 -0.48855692514E+03  0.55078914186E+03  0.79407142163E+02 0.  0.
         11    1    3    3    0    0  0.39778824276E+03 -0.10193776991E+04 -0.10890944809E+04  0.15438565892E+04  0.00000000000E+00 0.  1.
        -11    1    3    3    0    0  0.55249977170E+02 -0.12470538892E+03 -0.93132668841E+02  0.16515958346E+03  0.00000000000E+00 0. -1.
          2    1    6    6  502    0 -0.61102236331E+02  0.77548281724E+01 -0.12148626849E+03  0.13620768729E+03  0.00000000000E+00 0. -1.
          1    1    5    5  503    0 -0.15029642989E+02  0.22206562528E+03 -0.40362122644E+03  0.46092203954E+03  0.00000000000E+00 0. -1.
         -2    1    5    5    0  503 -0.21996279870E+03  0.10260912542E+04 -0.17310542733E+04  0.20243013095E+04  0.00000000000E+00 0.  1.
         -1    1    6    6    0  502 -0.15694354191E+03 -0.11182861959E+03 -0.36707065664E+03  0.41458145457E+03  0.00000000000E+00 0.  1.
<mgrwt>
<rscale>  0 0.28343914E+04</rscale>
<asrwt>0</asrwt>
<pdfrwt beam="1">  1        1 0.65772985E+00 0.28343914E+04</pdfrwt>
<pdfrwt beam="2">  1       -1 0.72274547E-01 0.28343914E+04</pdfrwt>
<totfact> 0.89628016E-02</totfact>
</mgrwt>
</event>
<event>
12    1  0.1442183E-007  0.2014053E+04  0.7818608E-02  0.8600079E-01
         -2   -1    0    0    0  501 -0.00000000000E+00  0.00000000000E+00  0.28068535456E+03  0.28068535456E+03  0.00000000000E+00 0. -1.
          2   -1    0    0  501    0  0.00000000000E+00 -0.00000000000E+00 -0.36129505462E+04  0.36129505462E+04  0.00000000000E+00 0.  1.
         23    2    1    2    0    0 -0.29941652369E+03 -0.27200472417E+03  0.57748238938E+01  0.41481778310E+03  0.91671260258E+02 0.  0.
        254    2    1    2    0    0  0.29941652369E+03  0.27200472417E+03 -0.33380400155E+04  0.34788181176E+04  0.89220374682E+03 0.  0.
        -24    2    4    4    0    0 -0.20506761491E+03 -0.18344869844E+03 -0.78400114624E+03  0.83470245416E+03  0.79776174582E+02 0.  0.
         24    2    4    4    0    0  0.50448413860E+03  0.45545342261E+03 -0.25540388692E+04  0.26441156635E+04  0.79316012559E+02 0.  0.
         11    1    3    3    0    0 -0.42770040414E+01  0.60809813535E+01 -0.53419563884E+01  0.91546488653E+01  0.00000000000E+00 0.  1.
        -11    1    3    3    0    0 -0.29513951965E+03 -0.27808570553E+03  0.11116780282E+02  0.40566313424E+03  0.00000000000E+00 0. -1.
          2    1    6    6  502    0  0.18763919918E+03  0.12043081042E+03 -0.86223446795E+03  0.89059549005E+03  0.00000000000E+00 0. -1.
          1    1    5    5  503    0 -0.13963419739E+02 -0.25493778316E+02 -0.17112841749E+03  0.17357950656E+03  0.00000000000E+00 0. -1.
         -2    1    5    5    0  503 -0.19110419517E+03 -0.15795492012E+03 -0.61287272875E+03  0.66112294761E+03  0.00000000000E+00 0.  1.
         -1    1    6    6    0  502  0.31684493942E+03  0.33502261220E+03 -0.16918044013E+04  0.17535201734E+04  0.00000000000E+00 0.  1.
<mgrwt>
<rscale>  0 0.20140529E+04</rscale>
<asrwt>0</asrwt>
<pdfrwt beam="1">  1        2 0.55583848E+00 0.20140529E+04</pdfrwt>
<pdfrwt beam="2">  1       -2 0.43182367E-01 0.20140529E+04</pdfrwt>
<totfact> 0.32090464E+00</totfact>
</mgrwt>
</event>
<event>
12    1  0.1442183E-007  0.1773411E+04  0.7818608E-02  0.8720568E-01
         -1   -1    0    0    0  501 -0.00000000000E+00  0.00000000000E+00  0.14986625908E+04  0.14986625908E+04  0.00000000000E+00 0.  1.
          1   -1    0    0  501    0  0.00000000000E+00 -0.00000000000E+00 -0.52463228589E+03  0.52463228589E+03  0.00000000000E+00 0. -1.
         23    2    1    2    0    0 -0.36213340866E+03  0.50322063613E+03  0.14366323510E+03  0.64357046417E+03  0.95771618652E+02 0.  0.
        254    2    1    2    0    0  0.36213340866E+03 -0.50322063613E+03  0.83036706984E+03  0.13797244125E+04  0.91091073636E+03 0.  0.
        -24    2    4    4    0    0  0.25381222380E+03  0.13727952877E+03  0.62594209036E+03  0.69397748464E+03  0.80838943175E+02 0.  0.
         24    2    4    4    0    0  0.10832118485E+03 -0.64050016490E+03  0.20442497948E+03  0.68574692791E+03  0.80531587438E+02 0.  0.
         11    1    3    3    0    0 -0.34586739031E+03  0.46784295584E+03  0.15664216019E+03  0.60252638893E+03  0.00000000000E+00 0. -1.
        -11    1    3    3    0    0 -0.16266018345E+02  0.35377680292E+02 -0.12978925092E+02  0.41044075239E+02  0.00000000000E+00 0.  1.
          2    1    6    6  502    0  0.10475164341E+03 -0.64072501304E+03  0.19862968558E+03  0.67893681674E+03  0.00000000000E+00 0. -1.
          3    1    5    5  503    0  0.15012111771E+03  0.11524004507E+03  0.34166829518E+03  0.39058141521E+03  0.00000000000E+00 0. -1.
         -4    1    5    5    0  503  0.10369110609E+03  0.22039483695E+02  0.28427379517E+03  0.30339606943E+03  0.00000000000E+00 0.  1.
         -1    1    6    6    0  502  0.35695414406E+01  0.22484813617E+00  0.57952938989E+01  0.68101111706E+01  0.00000000000E+00 0.  1.
<mgrwt>
<rscale>  0 0.17734112E+04</rscale>
<asrwt>0</asrwt>
<pdfrwt beam="1">  1        1 0.80712660E-01 0.17734112E+04</pdfrwt>
<pdfrwt beam="2">  1       -1 0.23056347E+00 0.17734112E+04</pdfrwt>
<totfact> 0.36686915E+00</totfact>
</mgrwt>
</event>
<event>
12    1  0.1442183E-007  0.1644192E+04  0.7818608E-02  0.8793850E-01
         -2   -1    0    0    0  501 -0.00000000000E+00  0.00000000000E+00  0.11255704512E+04  0.11255704512E+04  0.00000000000E+00 0.  1.
          2   -1    0    0  501    0  0.00000000000E+00 -0.00000000000E+00 -0.60044350302E+03  0.60044350302E+03  0.00000000000E+00 0. -1.
         23    2    1    2    0    0 -0.36739829226E+03 -0.42926047898E+03  0.27200554829E+03  0.63367216087E+03  0.91144529120E+02 0.  0.
        254    2    1    2    0    0  0.36739829226E+03  0.42926047898E+03  0.25312139987E+03  0.10923417933E+04  0.89994115721E+03 0.  0.
        -24    2    4    4    0    0  0.42235255140E+03  0.41672994976E+03  0.52919426673E+03  0.79933803488E+03  0.82759853524E+02 0.  0.
         24    2    4    4    0    0 -0.54954259146E+02  0.12530529222E+02 -0.27607286686E+03  0.29300375846E+03  0.80361619541E+02 0.  0.
         11    1    3    3    0    0  0.87991330127E+00 -0.25113112014E+02  0.17115545735E+02  0.30403693003E+02  0.00000000000E+00 0. -1.
        -11    1    3    3    0    0 -0.36827820556E+03 -0.40414736697E+03  0.25489000256E+03  0.60326846787E+03  0.00000000000E+00 0.  1.
          4    1    6    6  502    0  0.74636412087E+00 -0.26114375168E+02 -0.12053059671E+03  0.12332940604E+03  0.00000000000E+00 0. -1.
          3    1    5    5  503    0  0.38791184696E+03  0.37723398536E+03  0.50991347817E+03  0.74350039404E+03  0.00000000000E+00 0. -1.
         -4    1    5    5    0  503  0.34440704441E+02  0.39495964406E+02  0.19280788567E+02  0.55837640840E+02  0.00000000000E+00 0.  1.
         -3    1    6    6    0  502 -0.55700623267E+02  0.38644904390E+02 -0.15554227015E+03  0.16967435242E+03  0.00000000000E+00 0.  1.
<mgrwt>
<rscale>  0 0.16441916E+04</rscale>
<asrwt>0</asrwt>
<pdfrwt beam="1">  1        2 0.92375924E-01 0.16441916E+04</pdfrwt>
<pdfrwt beam="2">  1       -2 0.17316468E+00 0.16441916E+04</pdfrwt>
<totfact> 0.95768441E+00</totfact>
</mgrwt>
</event>
<event>
12    1  0.1442183E-007  0.1515959E+04  0.7818608E-02  0.8873909E-01
         -2   -1    0    0    0  501 -0.00000000000E+00  0.00000000000E+00  0.33281328691E+03  0.33281328691E+03  0.00000000000E+00 0.  1.
          2   -1    0    0  501    0  0.00000000000E+00 -0.00000000000E+00 -0.17262923511E+04  0.17262923511E+04  0.00000000000E+00 0. -1.
         23    2    1    2    0    0  0.36681770278E+03  0.15562424408E+03 -0.92994136238E+02  0.41919870633E+03  0.91134590574E+02 0.  0.
        254    2    1    2    0    0 -0.36681770278E+03 -0.15562424408E+03 -0.13004849280E+04  0.16399069317E+04  0.91611110917E+03 0.  0.
        -24    2    4    4    0    0 -0.20711206629E+03 -0.26099864692E+03 -0.13776905801E+04  0.14193631953E+04  0.74463707984E+02 0.  0.
         24    2    4    4    0    0 -0.15970563648E+03  0.10537440284E+03  0.77205652173E+02  0.22054373642E+03  0.77904889760E+02 0.  0.
         11    1    3    3    0    0  0.36918235992E+03  0.14798836314E+03 -0.82837277520E+02  0.40627353476E+03  0.00000000000E+00 0.  1.
        -11    1    3    3    0    0 -0.23646571397E+01  0.76358809479E+01 -0.10156858718E+02  0.12925171575E+02  0.00000000000E+00 0. -1.
          2    1    6    6  502    0 -0.20058233006E+02 -0.11965285240E+02  0.15313166992E+02  0.27928369904E+02  0.00000000000E+00 0. -1.
          3    1    5    5  503    0 -0.84480146099E+02 -0.14271316534E+03 -0.80302316992E+03  0.81996960558E+03  0.00000000000E+00 0. -1.
         -4    1    5    5    0  503 -0.12263192019E+03 -0.11828548158E+03 -0.57466741022E+03  0.59939358970E+03  0.00000000000E+00 0.  1.
         -1    1    6    6    0  502 -0.13964740348E+03  0.11733968807E+03  0.61892485182E+02  0.19261536652E+03  0.00000000000E+00 0.  1.
<mgrwt>
<rscale>  0 0.15159591E+04</rscale>
<asrwt>0</asrwt>
<pdfrwt beam="1">  1        2 0.26558344E+00 0.15159591E+04</pdfrwt>
<pdfrwt beam="2">  1       -2 0.51202045E-01 0.15159591E+04</pdfrwt>
<totfact> 0.32979982E+01</totfact>
</mgrwt>
</event>
<event>
12    1  0.1442183E-007  0.1338034E+04  0.7818608E-02  0.8999936E-01
          1   -1    0    0  501    0  0.00000000000E+00  0.00000000000E+00  0.14960141599E+04  0.14960141599E+04  0.00000000000E+00 0. -1.
         -1   -1    0    0    0  501 -0.00000000000E+00 -0.00000000000E+00 -0.29918394846E+03  0.29918394846E+03  0.00000000000E+00 0.  1.
         23    2    1    2    0    0  0.15660117469E+03 -0.99237546942E+02 -0.70062383948E+02  0.21755512683E+03  0.89718877223E+02 0.  0.
        254    2    1    2    0    0 -0.15660117469E+03  0.99237546942E+02  0.12668925954E+04  0.15776429815E+04  0.92172040787E+03 0.  0.
        -24    2    4    4    0    0 -0.36864482688E+03 -0.11058197826E+03  0.15296961546E+03  0.42177199138E+03  0.79777986648E+02 0.  0.
         24    2    4    4    0    0  0.21204365220E+03  0.20981952520E+03  0.11139229799E+04  0.11558709901E+04  0.78908789652E+02 0.  0.
         11    1    3    3    0    0  0.10639206992E+03 -0.41126844149E+02 -0.69319539846E+00  0.11406651731E+03  0.00000000000E+00 0.  1.
        -11    1    3    3    0    0  0.50209104765E+02 -0.58110702793E+02 -0.69369188550E+02  0.10348860952E+03  0.00000000000E+00 0. -1.
          2    1    6    6  502    0  0.20539216680E+03  0.16568298258E+03  0.95950933375E+03  0.99513564626E+03  0.00000000000E+00 0. -1.
          3    1    5    5  503    0 -0.34828000515E+03 -0.81946360981E+02  0.13620955664E+03  0.38284097402E+03  0.00000000000E+00 0. -1.
         -4    1    5    5    0  503 -0.20364821730E+02 -0.28635617277E+02  0.16760058828E+02  0.38931017362E+02  0.00000000000E+00 0.  1.
         -1    1    6    6    0  502  0.66514853943E+01  0.44136542622E+02  0.15441364616E+03  0.16073534388E+03  0.00000000000E+00 0.  1.
<mgrwt>
<rscale>  0 0.13380335E+04</rscale>
<asrwt>0</asrwt>
<pdfrwt beam="1">  1        1 0.23015602E+00 0.13380335E+04</pdfrwt>
<pdfrwt beam="2">  1       -1 0.46028301E-01 0.13380335E+04</pdfrwt>
<totfact> 0.30274982E+01</totfact>
</mgrwt>
</event>
<event>
12    1  0.1442183E-007  0.1451458E+04  0.7818608E-02  0.8917390E-01
         -2   -1    0    0    0  501 -0.00000000000E+00  0.00000000000E+00  0.91602346046E+03  0.91602346046E+03  0.00000000000E+00 0.  1.
          2   -1    0    0  501    0  0.00000000000E+00 -0.00000000000E+00 -0.57496623672E+03  0.57496623672E+03  0.00000000000E+00 0. -1.
         23    2    1    2    0    0 -0.61691439974E+02  0.20556406977E+03 -0.29097054679E+03  0.37289245704E+03  0.91227763703E+02 0.  0.
        254    2    1    2    0    0  0.61691439974E+02 -0.20556406977E+03  0.63202777053E+03  0.11180972401E+04  0.89700608423E+03 0.  0.
        -24    2    4    4    0    0 -0.37728889238E+03 -0.27078924604E+03  0.34011745190E+03  0.58104556556E+03  0.79122336177E+02 0.  0.
         24    2    4    4    0    0  0.43898033236E+03  0.65225176270E+02  0.29191031863E+03  0.53705167458E+03  0.79087364565E+02 0.  0.
         13    1    3    3    0    0 -0.68353595980E+02  0.88219401837E+02 -0.10717621100E+03  0.15473078927E+03  0.00000000000E+00 0.  1.
        -13    1    3    3    0    0  0.66621560063E+01  0.11734466793E+03 -0.18379433578E+03  0.21816166776E+03  0.00000000000E+00 0. -1.
          2    1    6    6  502    0  0.22408540673E+03  0.73228910842E+02  0.15294333256E+03  0.28101317739E+03  0.00000000000E+00 0. -1.
          3    1    5    5  503    0 -0.55910822878E+02 -0.76546683902E+02  0.55393532313E+02  0.10979006491E+03  0.00000000000E+00 0. -1.
         -4    1    5    5    0  503 -0.32137806950E+03 -0.19424256214E+03  0.28472391959E+03  0.47125550065E+03  0.00000000000E+00 0.  1.
         -1    1    6    6    0  502  0.21489492562E+03 -0.80037345714E+01  0.13896698607E+03  0.25603849719E+03  0.00000000000E+00 0.  1.
<mgrwt>
<rscale>  0 0.14514580E+04</rscale>
<asrwt>0</asrwt>
<pdfrwt beam="1">  1        2 0.88456344E-01 0.14514580E+04</pdfrwt>
<pdfrwt beam="2">  1       -2 0.14092669E+00 0.14514580E+04</pdfrwt>
<totfact> 0.17862481E+01</totfact>
</mgrwt>
</event>
<event>
12    1  0.1442183E-007  0.1471392E+04  0.7818608E-02  0.8903703E-01
         -2   -1    0    0    0  501 -0.00000000000E+00  0.00000000000E+00  0.66602568038E+03  0.66602568038E+03  0.00000000000E+00 0.  1.
          2   -1    0    0  501    0  0.00000000000E+00 -0.00000000000E+00 -0.81265450698E+03  0.81265450698E+03  0.00000000000E+00 0. -1.
         23    2    1    2    0    0 -0.24703394707E+03  0.20588812651E+03 -0.37280185329E+03  0.50053020900E+03  0.90186344101E+02 0.  0.
        254    2    1    2    0    0  0.24703394707E+03 -0.20588812651E+03  0.22617302669E+03  0.97814997835E+03  0.89566034327E+03 0.  0.
        -24    2    4    4    0    0 -0.28312160294E+03 -0.67415192892E+02  0.29277961335E+03  0.42048543059E+03  0.79908979856E+02 0.  0.
         24    2    4    4    0    0  0.53015555000E+03 -0.13847293362E+03 -0.66606586660E+02  0.55766454777E+03  0.79458479124E+02 0.  0.
         11    1    3    3    0    0 -0.77964927992E+02  0.56470995499E+02 -0.55298269975E+02  0.11101982702E+03  0.00000000000E+00 0. -1.
        -11    1    3    3    0    0 -0.16906901908E+03  0.14941713101E+03 -0.31750358332E+03  0.38951038198E+03  0.00000000000E+00 0.  1.
          4    1    6    6  502    0  0.69747749164E+02  0.23656454880E+01 -0.26052897698E+02  0.74492269870E+02  0.00000000000E+00 0. -1.
          1    1    5    5  503    0 -0.12201383084E+03 -0.69805610754E+02  0.14212646870E+03  0.19990030344E+03  0.00000000000E+00 0. -1.
         -2    1    5    5    0  503 -0.16110777210E+03  0.23904178624E+01  0.15065314465E+03  0.22058512715E+03  0.00000000000E+00 0.  1.
         -3    1    6    6    0  502  0.46040780084E+03 -0.14083857911E+03 -0.40553688962E+02  0.48317227790E+03  0.00000000000E+00 0.  1.
<mgrwt>
<rscale>  0 0.14713922E+04</rscale>
<asrwt>0</asrwt>
<pdfrwt beam="1">  1        2 0.12502377E+00 0.14713922E+04</pdfrwt>
<pdfrwt beam="2">  1       -2 0.10246549E+00 0.14713922E+04</pdfrwt>
<totfact> 0.25460384E+01</totfact>
</mgrwt>
</event>
<event>
12    1  0.1442183E-007  0.1334104E+04  0.7818608E-02  0.9002949E-01
         -2   -1    0    0    0  501 -0.00000000000E+00  0.00000000000E+00  0.40733603081E+03  0.40733603081E+03  0.00000000000E+00 0.  1.
          2   -1    0    0  501    0  0.00000000000E+00 -0.00000000000E+00 -0.10923622687E+04  0.10923622687E+04  0.00000000000E+00 0. -1.
         23    2    1    2    0    0  0.24672687185E+03 -0.90016356410E+02 -0.46859622065E+03  0.54486731665E+03  0.91218863356E+02 0.  0.
        254    2    1    2    0    0 -0.24672687185E+03  0.90016356410E+02 -0.21643001729E+03  0.95483098290E+03  0.89212283897E+03 0.  0.
        -24    2    4    4    0    0  0.51180853790E+02  0.61645802716E+02  0.31767771953E+03  0.33745697988E+03  0.80860342537E+02 0.  0.
         24    2    4    4    0    0 -0.29790772564E+03  0.28370553694E+02 -0.53410773682E+03  0.61737400302E+03  0.79534167248E+02 0.  0.
         11    1    3    3    0    0  0.20041096030E+03 -0.86287334423E+02 -0.43768634483E+03  0.48905970345E+03  0.00000000000E+00 0. -1.
        -11    1    3    3    0    0  0.46315911549E+02 -0.37290219870E+01 -0.30909875821E+02  0.55807613198E+02  0.00000000000E+00 0.  1.
          2    1    6    6  502    0 -0.14444470583E+03 -0.19480485747E+02 -0.21044052563E+03  0.25598628321E+03  0.00000000000E+00 0. -1.
          3    1    5    5  503    0  0.64910065452E+02  0.71693465048E+02  0.27519192859E+03  0.29169139015E+03  0.00000000000E+00 0. -1.
         -4    1    5    5    0  503 -0.13729211662E+02 -0.10047662331E+02  0.42485790945E+02  0.45765589730E+02  0.00000000000E+00 0.  1.
         -1    1    6    6    0  502 -0.15346301981E+03  0.47851039441E+02 -0.32366721120E+03  0.36138771981E+03  0.00000000000E+00 0.  1.
<mgrwt>
<rscale>  0 0.13341042E+04</rscale>
<asrwt>0</asrwt>
<pdfrwt beam="1">  1        2 0.16805573E+00 0.13341042E+04</pdfrwt>
<pdfrwt beam="2">  1       -2 0.62667083E-01 0.13341042E+04</pdfrwt>
<totfact> 0.50856748E+01</totfact>
</mgrwt>
</event>
<event>
12    1  0.1442183E-007  0.2588181E+04  0.7818608E-02  0.8372227E-01
         -1   -1    0    0    0  501 -0.00000000000E+00  0.00000000000E+00  0.12126802721E+04  0.12126802721E+04  0.00000000000E+00 0.  1.
          1   -1    0    0  501    0  0.00000000000E+00 -0.00000000000E+00 -0.13809665306E+04  0.13809665306E+04  0.00000000000E+00 0. -1.
         23    2    1    2    0    0 -0.86022991037E+02  0.94209249314E+03 -0.70753947490E+03  0.11850637080E+04  0.93944998794E+02 0.  0.
        254    2    1    2    0    0  0.86022991037E+02 -0.94209249314E+03  0.53925321635E+03  0.14085830947E+04  0.89351781335E+03 0.  0.
        -24    2    4    4    0    0 -0.38255396654E+03 -0.26796761398E+03  0.15266380156E+03  0.49752830549E+03  0.77935864646E+02 0.  0.
         24    2    4    4    0    0  0.46857695758E+03 -0.67412487916E+03  0.38658941479E+03  0.91105478923E+03  0.80998367114E+02 0.  0.
         13    1    3    3    0    0 -0.15289758158E+02  0.42710401222E+03 -0.36979050164E+03  0.56515186372E+03  0.00000000000E+00 0.  1.
        -13    1    3    3    0    0 -0.70733232879E+02  0.51498848092E+03 -0.33774897327E+03  0.61991184426E+03  0.00000000000E+00 0. -1.
          4    1    6    6  502    0  0.38516501731E+01 -0.27997122573E+02  0.20998492114E+02  0.35208106346E+02  0.00000000000E+00 0. -1.
          1    1    5    5  503    0  0.11041938362E+01 -0.68053655153E+01 -0.36494538034E+01  0.78006895136E+01  0.00000000000E+00 0. -1.
         -2    1    5    5    0  503 -0.38365816038E+03 -0.26116224846E+03  0.15631325536E+03  0.48972761598E+03  0.00000000000E+00 0.  1.
         -3    1    6    6    0  502  0.46472530741E+03 -0.64612775659E+03  0.36559092267E+03  0.87584668288E+03  0.00000000000E+00 0.  1.
<mgrwt>
<rscale>  0 0.25881815E+04</rscale>
<asrwt>0</asrwt>
<pdfrwt beam="1">  1        1 0.21245639E+00 0.25881815E+04</pdfrwt>
<pdfrwt beam="2">  1       -1 0.18656620E+00 0.25881815E+04</pdfrwt>
<totfact> 0.13052552E+00</totfact>
</mgrwt>
</event>
<event>
12    1  0.1442183E-007  0.1239873E+04  0.7818608E-02  0.9078654E-01
          1   -1    0    0  501    0  0.00000000000E+00  0.00000000000E+00  0.10984510106E+04  0.10984510106E+04  0.00000000000E+00 0. -1.
         -1   -1    0    0    0  501 -0.00000000000E+00 -0.00000000000E+00 -0.34987554118E+03  0.34987554118E+03  0.00000000000E+00 0.  1.
         23    2    1    2    0    0  0.30469453439E+03  0.53729150636E+02  0.24938333459E+03  0.40649837281E+03  0.85576273643E+02 0.  0.
        254    2    1    2    0    0 -0.30469453439E+03 -0.53729150636E+02  0.49919213485E+03  0.10418281790E+04  0.86051588372E+03 0.  0.
        -24    2    4    4    0    0 -0.20586484105E+03  0.11865162265E+02 -0.21805548257E+03  0.31044967518E+03  0.79433572788E+02 0.  0.
         24    2    4    4    0    0 -0.98829693340E+02 -0.65594312901E+02  0.71724761742E+03  0.73137850381E+03  0.80002805998E+02 0.  0.
         13    1    3    3    0    0  0.10239871795E+03  0.46415161569E+02  0.52375012608E+02  0.12402824923E+03  0.00000000000E+00 0.  1.
        -13    1    3    3    0    0  0.20229581645E+03  0.73139890665E+01  0.19700832199E+03  0.28247012359E+03  0.00000000000E+00 0. -1.
          4    1    6    6  502    0 -0.57841576314E+02 -0.67030439474E+02  0.61287347040E+03  0.61923551132E+03  0.00000000000E+00 0. -1.
          3    1    5    5  503    0 -0.17919348123E+03  0.36633215775E+02 -0.19505976812E+03  0.26739597857E+03  0.00000000000E+00 0. -1.
         -2    1    5    5    0  503 -0.26671359823E+02 -0.24768053510E+02 -0.22995714446E+02  0.43053696617E+02  0.00000000000E+00 0.  1.
         -3    1    6    6    0  502 -0.40988117026E+02  0.14361265735E+01  0.10437414702E+03  0.11214299249E+03  0.00000000000E+00 0.  1.
<mgrwt>
<rscale>  0 0.12398728E+04</rscale>
<asrwt>0</asrwt>
<pdfrwt beam="1">  1        1 0.16899246E+00 0.12398728E+04</pdfrwt>
<pdfrwt beam="2">  1       -1 0.53827007E-01 0.12398728E+04</pdfrwt>
<totfact> 0.43700034E+01</totfact>
</mgrwt>
</event>
<event>
12    1  0.1442183E-007  0.2550634E+04  0.7818608E-02  0.8385166E-01
          2   -1    0    0  501    0  0.00000000000E+00  0.00000000000E+00  0.11099682611E+04  0.11099682611E+04  0.00000000000E+00 0. -1.
         -2   -1    0    0    0  501 -0.00000000000E+00 -0.00000000000E+00 -0.14652974706E+04  0.14652974706E+04  0.00000000000E+00 0.  1.
         23    2    1    2    0    0 -0.47223113632E+03 -0.10484308276E+03  0.82702600528E+03  0.96280547338E+03  0.95016041044E+02 0.  0.
        254    2    1    2    0    0  0.47223113632E+03  0.10484308276E+03 -0.11823552147E+04  0.16124602583E+04  0.98390543886E+03 0.  0.
        -24    2    4    4    0    0  0.63606023057E+03 -0.39505295228E+02 -0.12175822027E+04  0.13766960726E+04  0.81562066546E+02 0.  0.
         24    2    4    4    0    0 -0.16382909425E+03  0.14434837799E+03  0.35226987978E+02  0.23576418567E+03  0.81654052031E+02 0.  0.
         13    1    3    3    0    0 -0.34610309639E+03 -0.11586753093E+03  0.64442344173E+03  0.74060394970E+03  0.00000000000E+00 0. -1.
        -13    1    3    3    0    0 -0.12612803993E+03  0.11024448168E+02  0.18260256354E+03  0.22220152368E+03  0.00000000000E+00 0.  1.
          2    1    6    6  502    0 -0.49175350028E+02  0.54576805612E+02 -0.25819437729E+02  0.77868389773E+02  0.00000000000E+00 0. -1.
          3    1    5    5  503    0  0.71755286662E+02  0.18739362591E+02 -0.11740930526E+03  0.13887019059E+03  0.00000000000E+00 0. -1.
         -4    1    5    5    0  503  0.56430494391E+03 -0.58244657819E+02 -0.11001728975E+04  0.12378258820E+04  0.00000000000E+00 0.  1.
         -1    1    6    6    0  502 -0.11465374422E+03  0.89771572375E+02  0.61046425707E+02  0.15789579590E+03  0.00000000000E+00 0.  1.
<mgrwt>
<rscale>  0 0.25506342E+04</rscale>
<asrwt>0</asrwt>
<pdfrwt beam="1">  1        2 0.17076435E+00 0.25506342E+04</pdfrwt>
<pdfrwt beam="2">  1       -2 0.22543038E+00 0.25506342E+04</pdfrwt>
<totfact> 0.17422610E+00</totfact>
</mgrwt>
</event>
<event>
12    1  0.1442183E-007  0.1507828E+04  0.7818608E-02  0.8879264E-01
         -2   -1    0    0    0  501 -0.00000000000E+00  0.00000000000E+00  0.23630500995E+03  0.23630500995E+03  0.00000000000E+00 0. -1.
          2   -1    0    0  501    0  0.00000000000E+00 -0.00000000000E+00 -0.24053076795E+04  0.24053076795E+04  0.00000000000E+00 0.  1.
         23    2    1    2    0    0  0.11009274079E+03  0.16385935357E+03 -0.14581770619E+04  0.14742666167E+04  0.90616852485E+02 0.  0.
        254    2    1    2    0    0 -0.11009274079E+03 -0.16385935357E+03 -0.71082560772E+03  0.11673460728E+04  0.90468420447E+03 0.  0.
        -24    2    4    4    0    0  0.36129440620E+03 -0.67832021629E+02 -0.10649720201E+03  0.39074211289E+03  0.78758578194E+02 0.  0.
         24    2    4    4    0    0 -0.47138714699E+03 -0.96027331936E+02 -0.60432840572E+03  0.77660395994E+03  0.80459914270E+02 0.  0.
         11    1    3    3    0    0  0.11274835144E+03  0.16120207049E+03 -0.11965789383E+04  0.12126415191E+04  0.00000000000E+00 0.  1.
        -11    1    3    3    0    0 -0.26556106523E+01  0.26572830737E+01 -0.26159812357E+03  0.26162509757E+03  0.00000000000E+00 0. -1.
          2    1    6    6  502    0 -0.66624830894E+02 -0.42278231341E+02 -0.11164104764E+03  0.13671152276E+03  0.00000000000E+00 0. -1.
          3    1    5    5  503    0  0.10973953612E+03  0.12527610059E+02 -0.16097549172E+02  0.11161916453E+03  0.00000000000E+00 0. -1.
         -4    1    5    5    0  503  0.25155487008E+03 -0.80359631688E+02 -0.90399652835E+02  0.27912294836E+03  0.00000000000E+00 0.  1.
         -3    1    6    6    0  502 -0.40476231610E+03 -0.53749100595E+02 -0.49268735808E+03  0.63989243718E+03  0.00000000000E+00 0.  1.
<mgrwt>
<rscale>  0 0.15078279E+04</rscale>
<asrwt>0</asrwt>
<pdfrwt beam="1">  1        2 0.37004735E+00 0.15078279E+04</pdfrwt>
<pdfrwt beam="2">  1       -2 0.36354615E-01 0.15078279E+04</pdfrwt>
<totfact> 0.27205564E+01</totfact>
</mgrwt>
</event>
<event>
12    1  0.1442183E-007  0.1750703E+04  0.7818608E-02  0.8732963E-01
          2   -1    0    0  501    0  0.00000000000E+00  0.00000000000E+00  0.85884350023E+03  0.85884350023E+03  0.00000000000E+00 0. -1.
         -2   -1    0    0    0  501 -0.00000000000E+00 -0.00000000000E+00 -0.89217715564E+03  0.89217715564E+03  0.00000000000E+00 0.  1.
         23    2    1    2    0    0  0.14189562015E+02 -0.54916716788E+03  0.31950663907E+03  0.64193303230E+03  0.90595825474E+02 0.  0.
        254    2    1    2    0    0 -0.14189562015E+02  0.54916716788E+03 -0.35284029448E+03  0.11090876236E+04  0.89654512514E+03 0.  0.
        -24    2    4    4    0    0 -0.43147050422E+03  0.26660330125E+03 -0.30401389297E+03  0.59680359767E+03  0.80659598503E+02 0.  0.
         24    2    4    4    0    0  0.41728094220E+03  0.28256386663E+03 -0.48826401517E+02  0.51228402591E+03  0.78007578234E+02 0.  0.
         11    1    3    3    0    0  0.41356445951E+02 -0.48074691083E+03  0.26657263082E+03  0.55126120433E+03  0.00000000000E+00 0. -1.
        -11    1    3    3    0    0 -0.27166883936E+02 -0.68420257057E+02  0.52934008249E+02  0.90671827973E+02  0.00000000000E+00 0.  1.
          2    1    6    6  502    0  0.37740158659E+02  0.11591437825E+02  0.13649621198E+02  0.41773115341E+02  0.00000000000E+00 0. -1.
          1    1    5    5  503    0 -0.69953674323E+02  0.53317805069E+02 -0.89251254110E+02  0.12530798558E+03  0.00000000000E+00 0. -1.
         -2    1    5    5    0  503 -0.36151682989E+03  0.21328549618E+03 -0.21476263886E+03  0.47149561210E+03  0.00000000000E+00 0.  1.
         -1    1    6    6    0  502  0.37954078354E+03  0.27097242881E+03 -0.62476022715E+02  0.47051091056E+03  0.00000000000E+00 0.  1.
<mgrwt>
<rscale>  0 0.17507033E+04</rscale>
<asrwt>0</asrwt>
<pdfrwt beam="1">  1        2 0.13212977E+00 0.17507033E+04</pdfrwt>
<pdfrwt beam="2">  1       -2 0.13725802E+00 0.17507033E+04</pdfrwt>
<totfact> 0.11210091E+01</totfact>
</mgrwt>
</event>
<event>
12    1  0.1442183E-007  0.2430303E+04  0.7818608E-02  0.8428245E-01
          1   -1    0    0  501    0  0.00000000000E+00  0.00000000000E+00  0.16919844078E+04  0.16919844078E+04  0.00000000000E+00 0. -1.
         -1   -1    0    0    0  501 -0.00000000000E+00 -0.00000000000E+00 -0.87269871277E+03  0.87269871277E+03  0.00000000000E+00 0.  1.
         23    2    1    2    0    0 -0.10478274183E+03 -0.71611846863E+03  0.11519111899E+04  0.13634756045E+04  0.91439874508E+02 0.  0.
        254    2    1    2    0    0  0.10478274183E+03  0.71611846863E+03 -0.33262549491E+03  0.12012075160E+04  0.89914108601E+03 0.  0.
        -24    2    4    4    0    0 -0.29098382370E+03  0.30923783700E+03 -0.44128362627E+03  0.61784649091E+03  0.81874428406E+02 0.  0.
         24    2    4    4    0    0  0.39576656554E+03  0.40688063163E+03  0.10865813136E+03  0.58336102509E+03  0.79501404360E+02 0.  0.
         13    1    3    3    0    0 -0.46295306253E+02 -0.56613958536E+03  0.91781365681E+03  0.10793698134E+04  0.00000000000E+00 0. -1.
        -13    1    3    3    0    0 -0.58487435581E+02 -0.14997888327E+03  0.23409753309E+03  0.28410579111E+03  0.00000000000E+00 0.  1.
          2    1    6    6  502    0  0.27698944028E+03  0.32129551166E+03  0.10455185862E+03  0.43690393336E+03  0.00000000000E+00 0. -1.
          3    1    5    5  503    0 -0.27675418636E+03  0.25931864273E+03 -0.40263268080E+03  0.55312938250E+03  0.00000000000E+00 0. -1.
         -4    1    5    5    0  503 -0.14229637341E+02  0.49919194267E+02 -0.38650945472E+02  0.64717108410E+02  0.00000000000E+00 0.  1.
         -1    1    6    6    0  502  0.11877712526E+03  0.85585119964E+02  0.41062727396E+01  0.14645709174E+03  0.00000000000E+00 0.  1.
<mgrwt>
<rscale>  0 0.24303025E+04</rscale>
<asrwt>0</asrwt>
<pdfrwt beam="1">  1        1 0.26030529E+00 0.24303025E+04</pdfrwt>
<pdfrwt beam="2">  1       -1 0.13426134E+00 0.24303025E+04</pdfrwt>
<totfact> 0.20151872E+00</totfact>
</mgrwt>
</event>
<event>
12    1  0.1442183E-007  0.2426588E+04  0.7818608E-02  0.8429616E-01
         -1   -1    0    0    0  501 -0.00000000000E+00  0.00000000000E+00  0.49569449555E+03  0.49569449555E+03  0.00000000000E+00 0.  1.
          1   -1    0    0  501    0  0.00000000000E+00 -0.00000000000E+00 -0.29697378220E+04  0.29697378220E+04  0.00000000000E+00 0. -1.
         23    2    1    2    0    0  0.39199789986E+03  0.11372022701E+03  0.30304234655E+03  0.51721196693E+03  0.95283321756E+02 0.  0.
        254    2    1    2    0    0 -0.39199789986E+03 -0.11372022701E+03 -0.27770856730E+04  0.29482203506E+04  0.90177810854E+03 0.  0.
        -24    2    4    4    0    0  0.21052186320E+03 -0.25988714872E+03 -0.12922289335E+04  0.13371363512E+04  0.78849351722E+02 0.  0.
         24    2    4    4    0    0 -0.60251976306E+03  0.14616692171E+03 -0.14848567395E+04  0.16110839994E+04  0.79983012734E+02 0.  0.
         11    1    3    3    0    0  0.13507536654E+02  0.23155510760E+02  0.55983852579E+01  0.27385637522E+02  0.00000000000E+00 0. -1.
        -11    1    3    3    0    0  0.37849036321E+03  0.90564716245E+02  0.29744396129E+03  0.48982632941E+03  0.00000000000E+00 0.  1.
          2    1    6    6  502    0 -0.48716445239E+03  0.10107521531E+03 -0.11130471603E+04  0.12191880019E+04  0.00000000000E+00 0. -1.
          3    1    5    5  503    0  0.88398703377E+02 -0.15290003392E+03 -0.78209588325E+03  0.80178969919E+03  0.00000000000E+00 0. -1.
         -2    1    5    5    0  503  0.12212315982E+03 -0.10698711480E+03 -0.51013305021E+03  0.53534665201E+03  0.00000000000E+00 0.  1.
         -1    1    6    6    0  502 -0.11535531067E+03  0.45091706406E+02 -0.37180957920E+03  0.39189599752E+03  0.00000000000E+00 0.  1.
<mgrwt>
<rscale>  0 0.24265883E+04</rscale>
<asrwt>0</asrwt>
<pdfrwt beam="1">  1        1 0.45688273E+00 0.24265883E+04</pdfrwt>
<pdfrwt beam="2">  1       -1 0.76260694E-01 0.24265883E+04</pdfrwt>
<totfact> 0.97083012E-01</totfact>
</mgrwt>
</event>
<event>
12    1  0.1442183E-007  0.1343639E+04  0.7818608E-02  0.8995657E-01
         -2   -1    0    0    0  501 -0.00000000000E+00  0.00000000000E+00  0.38323042282E+03  0.38323042282E+03  0.00000000000E+00 0.  1.
          2   -1    0    0  501    0  0.00000000000E+00 -0.00000000000E+00 -0.11777284830E+04  0.11777284830E+04  0.00000000000E+00 0. -1.
         23    2    1    2    0    0  0.42509538459E+02 -0.21737860373E+02 -0.66183595917E+03  0.66997038077E+03  0.92487182005E+02 0.  0.
        254    2    1    2    0    0 -0.42509538459E+02  0.21737860373E+02 -0.13266210105E+03  0.89098852508E+03  0.87976231070E+03 0.  0.
        -24    2    4    4    0    0 -0.25761564317E+03 -0.26864113835E+03  0.16515640997E+03  0.41501166701E+03  0.80150877571E+02 0.  0.
         24    2    4    4    0    0  0.21510610471E+03  0.29037899872E+03 -0.29781851102E+03  0.47597685807E+03  0.85249661164E+02 0.  0.
         11    1    3    3    0    0  0.71444945257E+02 -0.96154834971E+01 -0.49327026188E+03  0.49851016939E+03  0.00000000000E+00 0. -1.
        -11    1    3    3    0    0 -0.28935406798E+02 -0.12122376876E+02 -0.16856569728E+03  0.17146021139E+03  0.00000000000E+00 0.  1.
          2    1    6    6  502    0  0.11649576384E+03  0.10036375393E+03 -0.93021173489E+02  0.17971389711E+03  0.00000000000E+00 0. -1.
          3    1    5    5  503    0 -0.11333665008E+03 -0.73360821426E+02  0.34743825177E+02  0.13940638350E+03  0.00000000000E+00 0. -1.
         -4    1    5    5    0  503 -0.14427899309E+03 -0.19528031692E+03  0.13041258479E+03  0.27560528351E+03  0.00000000000E+00 0.  1.
         -1    1    6    6    0  502  0.98610340877E+02  0.19001524479E+03 -0.20479733753E+03  0.29626296097E+03  0.00000000000E+00 0.  1.
<mgrwt>
<rscale>  0 0.13436389E+04</rscale>
<asrwt>0</asrwt>
<pdfrwt beam="1">  1        2 0.18118900E+00 0.13436389E+04</pdfrwt>
<pdfrwt beam="2">  1       -2 0.58958527E-01 0.13436389E+04</pdfrwt>
<totfact> 0.51299738E+01</totfact>
</mgrwt>
</event>
<event>
12    1  0.1442183E-007  0.1764711E+04  0.7818608E-02  0.8725294E-01
         -2   -1    0    0    0  501 -0.00000000000E+00  0.00000000000E+00  0.90542984329E+03  0.90542984329E+03  0.00000000000E+00 0.  1.
          2   -1    0    0  501    0  0.00000000000E+00 -0.00000000000E+00 -0.85986955218E+03  0.85986955218E+03  0.00000000000E+00 0. -1.
         23    2    1    2    0    0 -0.38052622365E+03  0.52050577907E+03  0.95975010430E+02  0.65830639471E+03  0.91813036959E+02 0.  0.
        254    2    1    2    0    0  0.38052622365E+03 -0.52050577907E+03 -0.50414719319E+02  0.11069930008E+04  0.89842383477E+03 0.  0.
        -24    2    4    4    0    0 -0.21987262186E+03 -0.16021998692E+03  0.21309180428E+03  0.35447532783E+03  0.78931786597E+02 0.  0.
         24    2    4    4    0    0  0.60039884552E+03 -0.36028579215E+03 -0.26350652360E+03  0.75251767293E+03  0.81009470887E+02 0.  0.
         11    1    3    3    0    0 -0.96915084071E+02  0.83781697670E+02  0.41832369697E+02  0.13476592128E+03  0.00000000000E+00 0. -1.
        -11    1    3    3    0    0 -0.28361113958E+03  0.43672408140E+03  0.54142640733E+02  0.52354047342E+03  0.00000000000E+00 0.  1.
          4    1    6    6  502    0  0.17091013903E+03 -0.13633839932E+03 -0.10762742830E+03  0.24368442313E+03  0.00000000000E+00 0. -1.
          1    1    5    5  503    0 -0.16084023652E+03 -0.69899802722E+02  0.13135948263E+03  0.21911384662E+03  0.00000000000E+00 0. -1.
         -2    1    5    5    0  503 -0.59032385344E+02 -0.90320184197E+02  0.81732321648E+02  0.13536148121E+03  0.00000000000E+00 0.  1.
         -3    1    6    6    0  502  0.42948870649E+03 -0.22394739283E+03 -0.15587909529E+03  0.50883324980E+03  0.00000000000E+00 0.  1.
<mgrwt>
<rscale>  0 0.17647114E+04</rscale>
<asrwt>0</asrwt>
<pdfrwt beam="1">  1        2 0.13228762E+00 0.17647114E+04</pdfrwt>
<pdfrwt beam="2">  1       -2 0.13929690E+00 0.17647114E+04</pdfrwt>
<totfact> 0.10760012E+01</totfact>
</mgrwt>
</event>
<event>
12    1  0.1442183E-007  0.1887222E+04  0.7818608E-02  0.8661243E-01
         -2   -1    0    0    0  501 -0.00000000000E+00  0.00000000000E+00  0.71243847474E+03  0.71243847474E+03  0.00000000000E+00 0.  1.
          2   -1    0    0  501    0  0.00000000000E+00 -0.00000000000E+00 -0.12497947440E+04  0.12497947440E+04  0.00000000000E+00 0. -1.
         23    2    1    2    0    0 -0.54373690852E+03  0.28514397718E+03 -0.61387158987E+03  0.87273243125E+03  0.88694161575E+02 0.  0.
        254    2    1    2    0    0  0.54373690852E+03 -0.28514397718E+03  0.76515320608E+02  0.10895007875E+04  0.89677224436E+03 0.  0.
        -24    2    4    4    0    0  0.76668962778E+03 -0.83897150588E+02  0.71485802047E+02  0.77873322586E+03  0.80395895034E+02 0.  0.
         24    2    4    4    0    0 -0.22295271926E+03 -0.20124682660E+03  0.50295185609E+01  0.31076756164E+03  0.79642834387E+02 0.  0.
         11    1    3    3    0    0 -0.45392324993E+03  0.25385051517E+03 -0.55633399835E+03  0.76157331794E+03  0.00000000000E+00 0. -1.
        -11    1    3    3    0    0 -0.89813658595E+02  0.31293462015E+02 -0.57537591525E+02  0.11115911332E+03  0.00000000000E+00 0.  1.
          4    1    6    6  502    0 -0.14351852087E+03 -0.17563319474E+03 -0.37533845525E+01  0.22684504143E+03  0.00000000000E+00 0. -1.
          1    1    5    5  503    0  0.40735219484E+03 -0.12926075709E+02  0.12607550915E+02  0.40775218506E+03  0.00000000000E+00 0. -1.
         -2    1    5    5    0  503  0.35933743294E+03 -0.70971074879E+02  0.58878251131E+02  0.37098104080E+03  0.00000000000E+00 0.  1.
         -3    1    6    6    0  502 -0.79434198386E+02 -0.25613631858E+02  0.87829031135E+01  0.83922520203E+02  0.00000000000E+00 0.  1.
<mgrwt>
<rscale>  0 0.18872222E+04</rscale>
<asrwt>0</asrwt>
<pdfrwt beam="1">  1        2 0.19227611E+00 0.18872222E+04</pdfrwt>
<pdfrwt beam="2">  1       -2 0.10960592E+00 0.18872222E+04</pdfrwt>
<totfact> 0.10995256E+01</totfact>
</mgrwt>
</event>
<event>
12    1  0.1442183E-007  0.2338793E+04  0.7818608E-02  0.8462781E-01
         -2   -1    0    0    0  501 -0.00000000000E+00  0.00000000000E+00  0.64116608116E+03  0.64116608116E+03  0.00000000000E+00 0. -1.
          2   -1    0    0  501    0  0.00000000000E+00 -0.00000000000E+00 -0.21328140141E+04  0.21328140141E+04  0.00000000000E+00 0.  1.
         23    2    1    2    0    0 -0.83694892379E+03 -0.46334519145E+03 -0.91997605898E+03  0.13309895576E+04  0.10002492660E+03 0.  0.
        254    2    1    2    0    0  0.83694892379E+03  0.46334519145E+03 -0.57167187396E+03  0.14429905376E+04  0.91664643823E+03 0.  0.
        -24    2    4    4    0    0  0.76351443647E+03  0.14420806422E+02 -0.85666643263E+02  0.77241034647E+03  0.78209431711E+02 0.  0.
         24    2    4    4    0    0  0.73434487318E+02  0.44892438503E+03 -0.48600523069E+03  0.67058019115E+03  0.80938131288E+02 0.  0.
         11    1    3    3    0    0 -0.73157499804E+03 -0.41577896022E+03 -0.84885675015E+03  0.11952539077E+04  0.00000000000E+00 0. -1.
        -11    1    3    3    0    0 -0.10537392575E+03 -0.47566231229E+02 -0.71119308834E+02  0.13573564996E+03  0.00000000000E+00 0.  1.
          4    1    6    6  502    0  0.31327815472E+02  0.35987848389E+03 -0.40796503584E+03  0.54491231006E+03  0.00000000000E+00 0. -1.
          1    1    5    5  503    0  0.43604775352E+03 -0.21725089920E+02 -0.24113325302E+02  0.43725401695E+03  0.00000000000E+00 0. -1.
         -2    1    5    5    0  503  0.32746668296E+03  0.36145896342E+02 -0.61553317961E+02  0.33515632953E+03  0.00000000000E+00 0.  1.
         -3    1    6    6    0  502  0.42106671846E+02  0.89045901141E+02 -0.78040194851E+02  0.12566788108E+03  0.00000000000E+00 0.  1.
<mgrwt>
<rscale>  0 0.23387929E+04</rscale>
<asrwt>0</asrwt>
<pdfrwt beam="1">  1        2 0.32812523E+00 0.23387929E+04</pdfrwt>
<pdfrwt beam="2">  1       -2 0.98640935E-01 0.23387929E+04</pdfrwt>
<totfact> 0.43425319E+00</totfact>
</mgrwt>
</event>
<event>
12    1  0.1442183E-007  0.2199302E+04  0.7818608E-02  0.8518719E-01
          1   -1    0    0  501    0  0.00000000000E+00  0.00000000000E+00  0.15375476674E+04  0.15375476674E+04  0.00000000000E+00 0. -1.
         -1   -1    0    0    0  501 -0.00000000000E+00 -0.00000000000E+00 -0.78646837256E+03  0.78646837256E+03  0.00000000000E+00 0.  1.
         23    2    1    2    0    0 -0.73755308267E+03 -0.52449349676E+03  0.19541167948E+03  0.93079347257E+03  0.95460914543E+02 0.  0.
        254    2    1    2    0    0  0.73755308267E+03  0.52449349676E+03  0.55566761535E+03  0.13932225674E+04  0.90178969034E+03 0.  0.
        -24    2    4    4    0    0  0.19409175176E+03  0.41261068057E+01  0.59942002766E+03  0.63537518447E+03  0.81906181849E+02 0.  0.
         24    2    4    4    0    0  0.54346133090E+03  0.52036738996E+03 -0.43752412310E+02  0.75784738290E+03  0.79283942096E+02 0.  0.
         13    1    3    3    0    0 -0.38814659934E+03 -0.23496563325E+03  0.13251673586E+03  0.47268098827E+03  0.00000000000E+00 0. -1.
        -13    1    3    3    0    0 -0.34940648332E+03 -0.28952786351E+03  0.62894943626E+02  0.45811248430E+03  0.00000000000E+00 0.  1.
          4    1    6    6  502    0  0.36063292371E+03  0.37869707797E+03 -0.27553002314E+01  0.52294853877E+03  0.00000000000E+00 0. -1.
          3    1    5    5  503    0  0.10130291286E+02 -0.17104499971E+02  0.11617450435E+03  0.11786306539E+03  0.00000000000E+00 0. -1.
         -4    1    5    5    0  503  0.18396146048E+03  0.21230606777E+02  0.48324552331E+03  0.51751211909E+03  0.00000000000E+00 0.  1.
         -3    1    6    6    0  502  0.18282840719E+03  0.14167031199E+03 -0.40997112079E+02  0.23489884413E+03  0.00000000000E+00 0.  1.
<mgrwt>
<rscale>  0 0.21993023E+04</rscale>
<asrwt>0</asrwt>
<pdfrwt beam="1">  1        1 0.23654579E+00 0.21993023E+04</pdfrwt>
<pdfrwt beam="2">  1       -1 0.12099513E+00 0.21993023E+04</pdfrwt>
<totfact> 0.34080007E+00</totfact>
</mgrwt>
</event>
<event>
12    1  0.1442183E-007  0.1502258E+04  0.7818608E-02  0.8882953E-01
          2   -1    0    0  501    0  0.00000000000E+00  0.00000000000E+00  0.13324842857E+04  0.13324842857E+04  0.00000000000E+00 0. -1.
         -2   -1    0    0    0  501 -0.00000000000E+00 -0.00000000000E+00 -0.42341584911E+03  0.42341584911E+03  0.00000000000E+00 0.  1.
         23    2    1    2    0    0 -0.11107870147E+03 -0.36446012156E+03 -0.40410402735E+02  0.39388743617E+03  0.91349075480E+02 0.  0.
        254    2    1    2    0    0  0.11107870147E+03  0.36446012156E+03  0.94947883936E+03  0.13620126987E+04  0.89911004156E+03 0.  0.
        -24    2    4    4    0    0  0.40726709807E+02 -0.25262811709E+03  0.57071420620E+03  0.63022728232E+03  0.77408602867E+02 0.  0.
         24    2    4    4    0    0  0.70351991664E+02  0.61708823865E+03  0.37876463317E+03  0.73178541635E+03  0.79372232156E+02 0.  0.
         13    1    3    3    0    0 -0.12141660512E+03 -0.29401192423E+03 -0.15572174336E+02  0.31847683777E+03  0.00000000000E+00 0.  1.
        -13    1    3    3    0    0  0.10337903648E+02 -0.70448197338E+02 -0.24838228399E+02  0.75410598393E+02  0.00000000000E+00 0. -1.
          4    1    6    6  502    0  0.83449138631E+01  0.34123585148E+01  0.84582333053E+01  0.12362179770E+02  0.00000000000E+00 0. -1.
          1    1    5    5  503    0  0.13682366214E+02 -0.72491993398E+02  0.91335565652E+02  0.11740733284E+03  0.00000000000E+00 0. -1.
         -4    1    5    5    0  503  0.27044343594E+02 -0.18013612369E+03  0.47937864054E+03  0.51281994948E+03  0.00000000000E+00 0.  1.
         -3    1    6    6    0  502  0.62007077801E+02  0.61367588014E+03  0.37030639986E+03  0.71942323659E+03  0.00000000000E+00 0.  1.
<mgrwt>
<rscale>  0 0.15022583E+04</rscale>
<asrwt>0</asrwt>
<pdfrwt beam="1">  1        2 0.20499758E+00 0.15022583E+04</pdfrwt>
<pdfrwt beam="2">  1       -2 0.65140901E-01 0.15022583E+04</pdfrwt>
<totfact> 0.33223219E+01</totfact>
</mgrwt>
</event>
<event>
12    1  0.1442183E-007  0.1441707E+04  0.7818608E-02  0.8924170E-01
         -2   -1    0    0    0  501 -0.00000000000E+00  0.00000000000E+00  0.37109996464E+03  0.37109996464E+03  0.00000000000E+00 0.  1.
          2   -1    0    0  501    0  0.00000000000E+00 -0.00000000000E+00 -0.14002411001E+04  0.14002411001E+04  0.00000000000E+00 0. -1.
         23    2    1    2    0    0  0.27865915923E+03  0.14304966657E+03  0.50158570813E+02  0.33041197982E+03  0.92423265761E+02 0.  0.
        254    2    1    2    0    0 -0.27865915923E+03 -0.14304966657E+03 -0.10792997063E+04  0.14409290850E+04  0.90181740818E+03 0.  0.
        -24    2    4    4    0    0 -0.46644936213E+03  0.23127804645E+03 -0.63384136898E+03  0.82409271347E+03  0.79431587944E+02 0.  0.
         24    2    4    4    0    0  0.18779020290E+03 -0.37432771302E+03 -0.44545833733E+03  0.61683637149E+03  0.81655262250E+02 0.  0.
         13    1    3    3    0    0  0.18839225506E+03  0.11792590940E+03 -0.37967369321E+01  0.22228939940E+03  0.00000000000E+00 0.  1.
        -13    1    3    3    0    0  0.90266904169E+02  0.25123757172E+02  0.53955307745E+02  0.10812258042E+03  0.00000000000E+00 0. -1.
          2    1    6    6  502    0  0.19093724285E+02 -0.60776151943E+01 -0.11036715358E+02  0.22876118539E+02  0.00000000000E+00 0. -1.
          1    1    5    5  503    0 -0.85885134255E+02  0.73380776600E+02 -0.16459152955E+03  0.19962806982E+03  0.00000000000E+00 0. -1.
         -2    1    5    5    0  503 -0.38056422787E+03  0.15789726985E+03 -0.46924983942E+03  0.62446464364E+03  0.00000000000E+00 0.  1.
         -1    1    6    6    0  502  0.16869647861E+03 -0.36825009783E+03 -0.43442162197E+03  0.59396025295E+03  0.00000000000E+00 0.  1.
<mgrwt>
<rscale>  0 0.14417065E+04</rscale>
<asrwt>0</asrwt>
<pdfrwt beam="1">  1        2 0.21542170E+00 0.14417065E+04</pdfrwt>
<pdfrwt beam="2">  1       -2 0.57092303E-01 0.14417065E+04</pdfrwt>
<totfact> 0.40361162E+01</totfact>
</mgrwt>
</event>
<event>
12    1  0.1442183E-007  0.1975740E+04  0.7818608E-02  0.8618048E-01
          1   -1    0    0  501    0  0.00000000000E+00  0.00000000000E+00  0.15625708214E+04  0.15625708214E+04  0.00000000000E+00 0. -1.
         -1   -1    0    0    0  501 -0.00000000000E+00 -0.00000000000E+00 -0.62453943478E+03  0.62453943478E+03  0.00000000000E+00 0.  1.
         23    2    1    2    0    0  0.51997017554E+03 -0.10575367559E+03  0.10056255518E+04  0.11411505617E+04  0.96897010185E+02 0.  0.
        254    2    1    2    0    0 -0.51997017554E+03  0.10575367559E+03 -0.67594165239E+02  0.10459596945E+04  0.89883807658E+03 0.  0.
        -24    2    4    4    0    0 -0.10850531419E+02 -0.28503956130E+03  0.18815134985E+03  0.35051912395E+03  0.78086108016E+02 0.  0.
         24    2    4    4    0    0 -0.50911964412E+03  0.39079323689E+03 -0.25574551509E+03  0.69544057052E+03  0.79433321755E+02 0.  0.
         11    1    3    3    0    0  0.29418923855E+03 -0.28762195560E+02  0.63444950776E+03  0.69992910346E+03  0.00000000000E+00 0.  1.
        -11    1    3    3    0    0  0.22578093699E+03 -0.76991480026E+02  0.37117604406E+03  0.44122145822E+03  0.00000000000E+00 0. -1.
          2    1    6    6  502    0 -0.33741979304E+03  0.29453917282E+03 -0.15230903917E+03  0.47307872968E+03  0.00000000000E+00 0. -1.
          1    1    5    5  503    0 -0.33273118400E+02 -0.11369608379E+03  0.47206116938E+02  0.12752379132E+03  0.00000000000E+00 0. -1.
         -2    1    5    5    0  503  0.22422586981E+02 -0.17134347752E+03  0.14094523291E+03  0.22299533263E+03  0.00000000000E+00 0.  1.
         -1    1    6    6    0  502 -0.17169985108E+03  0.96254064066E+02 -0.10343647591E+03  0.22236184083E+03  0.00000000000E+00 0.  1.
<mgrwt>
<rscale>  0 0.19757400E+04</rscale>
<asrwt>0</asrwt>
<pdfrwt beam="1">  1        1 0.24039551E+00 0.19757400E+04</pdfrwt>
<pdfrwt beam="2">  1       -1 0.96082990E-01 0.19757400E+04</pdfrwt>
<totfact> 0.57447336E+00</totfact>
</mgrwt>
</event>
<event>
12    1  0.1442183E-007  0.3856201E+04  0.7818608E-02  0.8034201E-01
         -2   -1    0    0    0  501 -0.00000000000E+00  0.00000000000E+00  0.11352046212E+04  0.11352046212E+04  0.00000000000E+00 0.  1.
          2   -1    0    0  501    0  0.00000000000E+00 -0.00000000000E+00 -0.32748038440E+04  0.32748038440E+04  0.00000000000E+00 0. -1.
         23    2    1    2    0    0  0.66900451516E+03  0.16479874228E+04 -0.59352276744E+03  0.18771759048E+04  0.89947289623E+02 0.  0.
        254    2    1    2    0    0 -0.66900451516E+03 -0.16479874228E+04 -0.15460764554E+04  0.25328325604E+04  0.92814804103E+03 0.  0.
        -24    2    4    4    0    0 -0.80074461309E+03 -0.13308956950E+04 -0.90041047414E+03  0.17971571548E+04  0.80990929658E+02 0.  0.
         24    2    4    4    0    0  0.13174009793E+03 -0.31709172781E+03 -0.64566598123E+03  0.73567540560E+03  0.80194300570E+02 0.  0.
         11    1    3    3    0    0  0.60065757341E+03  0.14098601492E+04 -0.49314782770E+03  0.16098726474E+04  0.00000000000E+00 0.  1.
        -11    1    3    3    0    0  0.68346941754E+02  0.23812727362E+03 -0.10037493974E+03  0.26730325740E+03  0.00000000000E+00 0. -1.
          4    1    6    6  502    0  0.48354799363E+02 -0.16513205035E+03 -0.39569575692E+03  0.43148802152E+03  0.00000000000E+00 0. -1.
          3    1    5    5  503    0 -0.54585678903E+03 -0.87138018946E+03 -0.55680284428E+03  0.11693128222E+04  0.00000000000E+00 0. -1.
         -4    1    5    5    0  503 -0.25488782406E+03 -0.45951550555E+03 -0.34360762986E+03  0.62784433262E+03  0.00000000000E+00 0.  1.
         -3    1    6    6    0  502  0.83385298569E+02 -0.15195967746E+03 -0.24997022431E+03  0.30418738408E+03  0.00000000000E+00 0.  1.
<mgrwt>
<rscale>  0 0.38562015E+04</rscale>
<asrwt>0</asrwt>
<pdfrwt beam="1">  1        2 0.50381597E+00 0.38562015E+04</pdfrwt>
<pdfrwt beam="2">  1       -2 0.17464687E+00 0.38562015E+04</pdfrwt>
<totfact> 0.18237019E-01</totfact>
</mgrwt>
</event>
<event>
12    1  0.1442183E-007  0.1274244E+04  0.7818608E-02  0.9050243E-01
          2   -1    0    0  501    0  0.00000000000E+00  0.00000000000E+00  0.11808997744E+04  0.11808997744E+04  0.00000000000E+00 0. -1.
         -2   -1    0    0    0  501 -0.00000000000E+00 -0.00000000000E+00 -0.34374169784E+03  0.34374169784E+03  0.00000000000E+00 0.  1.
         23    2    1    2    0    0 -0.28917881260E+03 -0.19880512527E+02  0.83719807455E+02  0.31635996139E+03  0.95157756255E+02 0.  0.
        254    2    1    2    0    0  0.28917881260E+03  0.19880512527E+02  0.75343826908E+03  0.12082815108E+04  0.89903023512E+03 0.  0.
        -24    2    4    4    0    0  0.40541877045E+03 -0.11350215988E+03  0.87848072170E+03  0.97732228595E+03  0.78634295973E+02 0.  0.
         24    2    4    4    0    0 -0.11623995785E+03  0.13338267240E+03 -0.12504245262E+03  0.23095922487E+03  0.80024268179E+02 0.  0.
         11    1    3    3    0    0 -0.17627492003E+02  0.12514135079E+02  0.31086656717E+02  0.37864393260E+02  0.00000000000E+00 0. -1.
        -11    1    3    3    0    0 -0.27155132060E+03 -0.32394647607E+02  0.52633150738E+02  0.27849556813E+03  0.00000000000E+00 0.  1.
          4    1    6    6  502    0 -0.80793067046E+02  0.42682254681E+02 -0.33545316829E+02  0.97337468780E+02  0.00000000000E+00 0. -1.
          3    1    5    5  503    0  0.30222986686E+03 -0.99849732043E+02  0.72591116123E+03  0.79262845988E+03  0.00000000000E+00 0. -1.
         -4    1    5    5    0  503  0.10318890359E+03 -0.13652427833E+02  0.15256956046E+03  0.18469382607E+03  0.00000000000E+00 0.  1.
         -3    1    6    6    0  502 -0.35446890800E+02  0.90700417722E+02 -0.91497135791E+02  0.13362175609E+03  0.00000000000E+00 0.  1.
<mgrwt>
<rscale>  0 0.12742441E+04</rscale>
<asrwt>0</asrwt>
<pdfrwt beam="1">  1        2 0.18167689E+00 0.12742441E+04</pdfrwt>
<pdfrwt beam="2">  1       -2 0.52883339E-01 0.12742441E+04</pdfrwt>
<totfact> 0.64389745E+01</totfact>
</mgrwt>
</event>
<event>
12    1  0.1442183E-007  0.1261551E+04  0.7818608E-02  0.9060624E-01
          1   -1    0    0  501    0  0.00000000000E+00  0.00000000000E+00  0.15060554308E+04  0.15060554308E+04  0.00000000000E+00 0. -1.
         -1   -1    0    0    0  501 -0.00000000000E+00 -0.00000000000E+00 -0.26418534599E+03  0.26418534599E+03  0.00000000000E+00 0.  1.
         23    2    1    2    0    0  0.14755647120E+03  0.42661241387E+02 -0.53790699420E+02  0.18483348528E+03  0.87618971837E+02 0.  0.
        254    2    1    2    0    0 -0.14755647120E+03 -0.42661241387E+02  0.12956607842E+04  0.15854072915E+04  0.90065893573E+03 0.  0.
        -24    2    4    4    0    0 -0.29744764434E+03  0.35739206626E+03  0.76623352794E+03  0.90033435396E+03  0.85345998286E+02 0.  0.
         24    2    4    4    0    0  0.14989117314E+03 -0.40005330765E+03  0.52942725630E+03  0.68507293757E+03  0.80757026581E+02 0.  0.
         11    1    3    3    0    0  0.31110803043E+01  0.16839059777E+02  0.15008161663E+02  0.22770104772E+02  0.00000000000E+00 0. -1.
        -11    1    3    3    0    0  0.14444539090E+03  0.25822181610E+02 -0.68798861083E+02  0.16206338051E+03  0.00000000000E+00 0.  1.
          4    1    6    6  502    0  0.13894093168E+03 -0.36597565955E+03  0.44102826093E+03  0.58970220689E+03  0.00000000000E+00 0. -1.
          1    1    5    5  503    0 -0.28053462217E+03  0.35844350014E+03  0.72908788390E+03  0.85950599735E+03  0.00000000000E+00 0. -1.
         -2    1    5    5    0  503 -0.16913022172E+02 -0.10514338769E+01  0.37145644041E+02  0.40828356609E+02  0.00000000000E+00 0.  1.
         -3    1    6    6    0  502  0.10950241460E+02 -0.34077648092E+02  0.88398995371E+02  0.95370730678E+02  0.00000000000E+00 0.  1.
<mgrwt>
<rscale>  0 0.12615511E+04</rscale>
<asrwt>0</asrwt>
<pdfrwt beam="1">  1        1 0.23170083E+00 0.12615511E+04</pdfrwt>
<pdfrwt beam="2">  1       -1 0.40643900E-01 0.12615511E+04</pdfrwt>
<totfact> 0.37751796E+01</totfact>
</mgrwt>
</event>
<event>
12    1  0.1442183E-007  0.1726246E+04  0.7818608E-02  0.8746535E-01
         -2   -1    0    0    0  501 -0.00000000000E+00  0.00000000000E+00  0.22907206622E+03  0.22907206622E+03  0.00000000000E+00 0.  1.
          2   -1    0    0  501    0  0.00000000000E+00 -0.00000000000E+00 -0.32521689231E+04  0.32521689231E+04  0.00000000000E+00 0. -1.
         23    2    1    2    0    0  0.61515401502E+03 -0.70285788598E+02 -0.10417195558E+04  0.12154105518E+04  0.93212779108E+02 0.  0.
        254    2    1    2    0    0 -0.61515401502E+03  0.70285788598E+02 -0.19813773011E+04  0.22658304375E+04  0.90817234495E+03 0.  0.
        -24    2    4    4    0    0  0.18491092398E+03 -0.14205703584E+01 -0.11612755148E+03  0.23324385843E+03  0.81994033037E+02 0.  0.
         24    2    4    4    0    0 -0.80006493900E+03  0.71706358957E+02 -0.18652497496E+04  0.20325865791E+04  0.83701043376E+02 0.  0.
         13    1    3    3    0    0  0.28744868269E+03 -0.31517609211E+02 -0.39704106895E+03  0.49118399333E+03  0.00000000000E+00 0. -1.
        -13    1    3    3    0    0  0.32770533234E+03 -0.38768179387E+02 -0.64467848684E+03  0.72422655845E+03  0.00000000000E+00 0.  1.
          2    1    6    6  502    0 -0.79679762063E+03  0.76319332179E+02 -0.18376246723E+04  0.20043890653E+04  0.00000000000E+00 0. -1.
          3    1    5    5  503    0  0.81211050133E+02 -0.40986849564E+02 -0.45798449592E+02  0.10184622961E+03  0.00000000000E+00 0. -1.
         -4    1    5    5    0  503  0.10369987384E+03  0.39566279205E+02 -0.70329101893E+02  0.13139762882E+03  0.00000000000E+00 0.  1.
         -1    1    6    6    0  502 -0.32673183712E+01 -0.46129732224E+01 -0.27625077290E+02  0.28197513837E+02  0.00000000000E+00 0.  1.
<mgrwt>
<rscale>  0 0.17262457E+04</rscale>
<asrwt>0</asrwt>
<pdfrwt beam="1">  1        2 0.50033366E+00 0.17262457E+04</pdfrwt>
<pdfrwt beam="2">  1       -2 0.35241858E-01 0.17262457E+04</pdfrwt>
<totfact> 0.86622556E+00</totfact>
</mgrwt>
</event>
<event>
12    1  0.1442183E-007  0.1738363E+04  0.7818608E-02  0.8739782E-01
         -2   -1    0    0    0  501 -0.00000000000E+00  0.00000000000E+00  0.67643472703E+03  0.67643472703E+03  0.00000000000E+00 0.  1.
          2   -1    0    0  501    0  0.00000000000E+00 -0.00000000000E+00 -0.11168506528E+04  0.11168506528E+04  0.00000000000E+00 0. -1.
         23    2    1    2    0    0  0.28195836646E+03 -0.24895950859E+03 -0.68745637153E+03  0.78894203927E+03  0.91388846397E+02 0.  0.
        254    2    1    2    0    0 -0.28195836646E+03  0.24895950859E+03  0.24704044576E+03  0.10043433406E+04  0.89788373777E+03 0.  0.
        -24    2    4    4    0    0 -0.75133744343E+02 -0.30860958531E+03  0.23711975272E+03  0.40413614934E+03  0.78837138374E+02 0.  0.
         24    2    4    4    0    0 -0.20682462212E+03  0.55756909390E+03  0.99206930348E+01  0.60020719122E+03  0.80563847078E+02 0.  0.
         11    1    3    3    0    0  0.28280735029E+03 -0.25229614473E+03 -0.65843415184E+03  0.75971631175E+03  0.00000000000E+00 0. -1.
        -11    1    3    3    0    0 -0.84898382249E+00  0.33366361358E+01 -0.29022219682E+02  0.29225727527E+02  0.00000000000E+00 0.  1.
          2    1    6    6  502    0 -0.11041436849E+03  0.21074712688E+03 -0.21368223600E+02  0.23887713418E+03  0.00000000000E+00 0. -1.
          3    1    5    5  503    0  0.11916751435E+02 -0.46453236256E+02  0.56433742082E+02  0.74058621164E+02  0.00000000000E+00 0. -1.
         -2    1    5    5    0  503 -0.87050495778E+02 -0.26215634905E+03  0.18068601064E+03  0.33007752817E+03  0.00000000000E+00 0.  1.
         -1    1    6    6    0  502 -0.96410253630E+02  0.34682196702E+03  0.31288916634E+02  0.36133005704E+03  0.00000000000E+00 0.  1.
<mgrwt>
<rscale>  0 0.17383631E+04</rscale>
<asrwt>0</asrwt>
<pdfrwt beam="1">  1        2 0.17182317E+00 0.17383631E+04</pdfrwt>
<pdfrwt beam="2">  1       -2 0.10406688E+00 0.17383631E+04</pdfrwt>
<totfact> 0.15157995E+01</totfact>
</mgrwt>
</event>
<event>
12    1  0.1442183E-007  0.4761051E+04  0.7818608E-02  0.7866463E-01
          2   -1    0    0  501    0  0.00000000000E+00  0.00000000000E+00  0.32016757477E+04  0.32016757477E+04  0.00000000000E+00 0. -1.
         -2   -1    0    0    0  501 -0.00000000000E+00 -0.00000000000E+00 -0.17699801163E+04  0.17699801163E+04  0.00000000000E+00 0.  1.
         23    2    1    2    0    0  0.12371353427E+04  0.13523364059E+04 -0.75044936589E+03  0.19826712209E+04  0.92159147083E+02 0.  0.
        254    2    1    2    0    0 -0.12371353427E+04 -0.13523364059E+04  0.21821449973E+04  0.29889846431E+04  0.90164005927E+03 0.  0.
        -24    2    4    4    0    0 -0.66071623143E+03 -0.12965826664E+04  0.15427746563E+04  0.21226590053E+04  0.88628794957E+02 0.  0.
         24    2    4    4    0    0 -0.57641911127E+03 -0.55753739528E+02  0.63937034097E+03  0.86632563779E+03  0.79738362624E+02 0.  0.
         13    1    3    3    0    0  0.10331339971E+04  0.11578179219E+04 -0.60533428125E+03  0.16656343501E+04  0.00000000000E+00 0.  1.
        -13    1    3    3    0    0  0.20400134561E+03  0.19451848408E+03 -0.14511508465E+03  0.31703687080E+03  0.00000000000E+00 0. -1.
          4    1    6    6  502    0 -0.45134496414E+03 -0.19980040447E+02  0.52949869926E+03  0.69604622777E+03  0.00000000000E+00 0. -1.
          1    1    5    5  503    0 -0.56971697447E+03 -0.10516244808E+04  0.12429263994E+04  0.17249224661E+04  0.00000000000E+00 0. -1.
         -2    1    5    5    0  503 -0.90999256961E+02 -0.24495818564E+03  0.29984825692E+03  0.39773653925E+03  0.00000000000E+00 0.  1.
         -3    1    6    6    0  502 -0.12507414713E+03 -0.35773699081E+02  0.10987164171E+03  0.17027941002E+03  0.00000000000E+00 0.  1.
<mgrwt>
<rscale>  0 0.47610513E+04</rscale>
<asrwt>0</asrwt>
<pdfrwt beam="1">  1        2 0.49256550E+00 0.47610513E+04</pdfrwt>
<pdfrwt beam="2">  1       -2 0.27230463E+00 0.47610513E+04</pdfrwt>
<totfact> 0.44987385E-02</totfact>
</mgrwt>
</event>
<event>
12    1  0.1442183E-007  0.2289328E+04  0.7818608E-02  0.8482141E-01
         -2   -1    0    0    0  501 -0.00000000000E+00  0.00000000000E+00  0.13148986578E+04  0.13148986578E+04  0.00000000000E+00 0.  1.
          2   -1    0    0  501    0  0.00000000000E+00 -0.00000000000E+00 -0.99646900316E+03  0.99646900316E+03  0.00000000000E+00 0. -1.
         23    2    1    2    0    0  0.94559371498E+03 -0.30804433814E+03  0.69963178858E+02  0.10012322467E+04  0.92370868111E+02 0.  0.
        254    2    1    2    0    0 -0.94559371498E+03  0.30804433814E+03  0.24846647582E+03  0.13101354143E+04  0.81589241095E+03 0.  0.
        -24    2    4    4    0    0 -0.81163625523E+03 -0.12351407454E+03  0.12361676511E+03  0.83429204205E+03  0.82176452860E+02 0.  0.
         24    2    4    4    0    0 -0.13395745975E+03  0.43155841268E+03  0.12484971072E+03  0.47584337229E+03  0.81561020779E+02 0.  0.
         11    1    3    3    0    0  0.62367860054E+03 -0.23243743175E+03  0.13159596021E+02  0.66571415143E+03  0.00000000000E+00 0. -1.
        -11    1    3    3    0    0  0.32191511445E+03 -0.75606906396E+02  0.56803582837E+02  0.33551809523E+03  0.00000000000E+00 0.  1.
          4    1    6    6  502    0 -0.18329637537E+02  0.20927126135E+02  0.25697480523E+02  0.37871898893E+02  0.00000000000E+00 0. -1.
          1    1    5    5  503    0 -0.39746391630E+02 -0.22518587248E+02 -0.21328479874E+01  0.45731952285E+02  0.00000000000E+00 0. -1.
         -2    1    5    5    0  503 -0.77188986360E+03 -0.10099548729E+03  0.12574961309E+03  0.78856008977E+03  0.00000000000E+00 0.  1.
         -3    1    6    6    0  502 -0.11562782222E+03  0.41063128655E+03  0.99152230196E+02  0.43797147340E+03  0.00000000000E+00 0.  1.
<mgrwt>
<rscale>  0 0.22893281E+04</rscale>
<asrwt>0</asrwt>
<pdfrwt beam="1">  1        2 0.15330292E+00 0.22893281E+04</pdfrwt>
<pdfrwt beam="2">  1       -2 0.20229210E+00 0.22893281E+04</pdfrwt>
<totfact> 0.29512239E+00</totfact>
</mgrwt>
</event>
<event>
12    1  0.1442183E-007  0.2397123E+04  0.7818608E-02  0.8440581E-01
          2   -1    0    0  501    0  0.00000000000E+00  0.00000000000E+00  0.18740100489E+04  0.18740100489E+04  0.00000000000E+00 0. -1.
         -2   -1    0    0    0  501 -0.00000000000E+00 -0.00000000000E+00 -0.76656465475E+03  0.76656465475E+03  0.00000000000E+00 0.  1.
         23    2    1    2    0    0  0.79432376408E+03  0.90441712173E+02 -0.24147465861E+03  0.83953813303E+03  0.85932069549E+02 0.  0.
        254    2    1    2    0    0 -0.79432376408E+03 -0.90441712173E+02  0.13489200527E+04  0.18010365706E+04  0.88601211868E+03 0.  0.
        -24    2    4    4    0    0 -0.73655980354E+03  0.28140712553E+03  0.10410477525E+04  0.13081233070E+04  0.75470846931E+02 0.  0.
         24    2    4    4    0    0 -0.57763960535E+02 -0.37184883770E+03  0.30787230019E+03  0.49291326359E+03  0.81054913264E+02 0.  0.
         11    1    3    3    0    0  0.22699351571E+03  0.18754450476E+02 -0.29485279206E+02  0.22966751463E+03  0.00000000000E+00 0. -1.
        -11    1    3    3    0    0  0.56733024837E+03  0.71687261696E+02 -0.21198937941E+03  0.60987061840E+03  0.00000000000E+00 0.  1.
          4    1    6    6  502    0 -0.11716335338E+02 -0.17702782137E+03  0.19280179607E+03  0.26200888271E+03  0.00000000000E+00 0. -1.
          1    1    5    5  503    0 -0.28556697563E+03  0.91261250724E+02  0.34246840979E+03  0.45515022262E+03  0.00000000000E+00 0. -1.
         -2    1    5    5    0  503 -0.45099282792E+03  0.19014587480E+03  0.69857934276E+03  0.85297308437E+03  0.00000000000E+00 0.  1.
         -3    1    6    6    0  502 -0.46047625197E+02 -0.19482101633E+03  0.11507050412E+03  0.23090438088E+03  0.00000000000E+00 0.  1.
<mgrwt>
<rscale>  0 0.23971232E+04</rscale>
<asrwt>0</asrwt>
<pdfrwt beam="1">  1        2 0.28830924E+00 0.23971232E+04</pdfrwt>
<pdfrwt beam="2">  1       -2 0.11793302E+00 0.23971232E+04</pdfrwt>
<totfact> 0.39143363E+00</totfact>
</mgrwt>
</event>
<event>
12    1  0.1442183E-007  0.1701196E+04  0.7818608E-02  0.8760682E-01
          2   -1    0    0  501    0  0.00000000000E+00  0.00000000000E+00  0.69282564512E+03  0.69282564512E+03  0.00000000000E+00 0. -1.
         -2   -1    0    0    0  501 -0.00000000000E+00 -0.00000000000E+00 -0.10442989216E+04  0.10442989216E+04  0.00000000000E+00 0.  1.
         23    2    1    2    0    0 -0.82178437097E+02 -0.38117127863E+03  0.33602045848E+03  0.52284099863E+03  0.91695813158E+02 0.  0.
        254    2    1    2    0    0  0.82178437097E+02  0.38117127863E+03 -0.68749373494E+03  0.12142835681E+04  0.92184169407E+03 0.  0.
        -24    2    4    4    0    0  0.43705029379E+03  0.38312575866E+03 -0.23026230139E+03  0.63040459325E+03  0.81184465892E+02 0.  0.
         24    2    4    4    0    0 -0.35487185669E+03 -0.19544800316E+01 -0.45723143355E+03  0.58387897482E+03  0.76916960049E+02 0.  0.
         11    1    3    3    0    0 -0.88552462980E+02 -0.24182651421E+03  0.18391736967E+03  0.31646042492E+03  0.00000000000E+00 0. -1.
        -11    1    3    3    0    0  0.63740258823E+01 -0.13934476442E+03  0.15210308881E+03  0.20638057371E+03  0.00000000000E+00 0.  1.
          2    1    6    6  502    0 -0.78416520610E+02  0.30595902972E+02 -0.12046432718E+03  0.14695888577E+03  0.00000000000E+00 0. -1.
          1    1    5    5  503    0  0.95185068980E+02  0.90316089394E+02 -0.16976186095E+02  0.13230791456E+03  0.00000000000E+00 0. -1.
         -2    1    5    5    0  503  0.34186522481E+03  0.29280966927E+03 -0.21328611530E+03  0.49809667870E+03  0.00000000000E+00 0.  1.
         -1    1    6    6    0  502 -0.27645533608E+03 -0.32550383004E+02 -0.33676710637E+03  0.43692008905E+03  0.00000000000E+00 0.  1.
<mgrwt>
<rscale>  0 0.17011961E+04</rscale>
<asrwt>0</asrwt>
<pdfrwt beam="1">  1        2 0.10658856E+00 0.17011961E+04</pdfrwt>
<pdfrwt beam="2">  1       -2 0.16066137E+00 0.17011961E+04</pdfrwt>
<totfact> 0.98309452E+00</totfact>
</mgrwt>
</event>
<event>
12    1  0.1442183E-007  0.1616863E+04  0.7818608E-02  0.8810255E-01
          2   -1    0    0  501    0  0.00000000000E+00  0.00000000000E+00  0.28109497286E+04  0.28109497286E+04  0.00000000000E+00 0. -1.
         -2   -1    0    0    0  501 -0.00000000000E+00 -0.00000000000E+00 -0.23250564872E+03  0.23250564872E+03  0.00000000000E+00 0.  1.
         23    2    1    2    0    0  0.37696668608E+03 -0.24814882577E+03  0.10615412877E+04  0.11568718537E+04  0.88322466975E+02 0.  0.
        254    2    1    2    0    0 -0.37696668608E+03  0.24814882577E+03  0.15169027922E+04  0.18865835237E+04  0.10268990158E+04 0.  0.
        -24    2    4    4    0    0  0.17134797422E+03 -0.13614028999E+03  0.70383144845E+01  0.23296689925E+03  0.79559609421E+02 0.  0.
         24    2    4    4    0    0 -0.54831466030E+03  0.38428911576E+03  0.15098644777E+04  0.16536166244E+04  0.80187955940E+02 0.  0.
         11    1    3    3    0    0  0.19240544409E+02 -0.33034265603E+02  0.14136493719E+03  0.14644284455E+03  0.00000000000E+00 0. -1.
        -11    1    3    3    0    0  0.35772614167E+03 -0.21511456017E+03  0.92017635051E+03  0.10104290091E+04  0.00000000000E+00 0.  1.
          2    1    6    6  502    0 -0.11901611559E+03  0.10951475684E+03  0.43288073444E+03  0.46210826435E+03  0.00000000000E+00 0. -1.
          3    1    5    5  503    0 -0.49084817205E+01 -0.71433129936E+01 -0.10769354968E+02  0.13823860523E+02  0.00000000000E+00 0. -1.
         -4    1    5    5    0  503  0.17625645594E+03 -0.12899697699E+03  0.17807669453E+02  0.21914303873E+03  0.00000000000E+00 0.  1.
         -1    1    6    6    0  502 -0.42929854471E+03  0.27477435892E+03  0.10769837433E+04  0.11915083601E+04  0.00000000000E+00 0.  1.
<mgrwt>
<rscale>  0 0.16168632E+04</rscale>
<asrwt>0</asrwt>
<pdfrwt beam="1">  1        2 0.43245378E+00 0.16168632E+04</pdfrwt>
<pdfrwt beam="2">  1       -2 0.35770102E-01 0.16168632E+04</pdfrwt>
<totfact> 0.16091199E+01</totfact>
</mgrwt>
</event>
<event>
12    1  0.1442183E-007  0.1051909E+04  0.7818608E-02  0.9253376E-01
         -1   -1    0    0    0  501 -0.00000000000E+00  0.00000000000E+00  0.20854040847E+03  0.20854040847E+03  0.00000000000E+00 0.  1.
          1   -1    0    0  501    0  0.00000000000E+00 -0.00000000000E+00 -0.13264954898E+04  0.13264954898E+04  0.00000000000E+00 0. -1.
         23    2    1    2    0    0  0.73680826569E+02  0.74393706766E+02 -0.84500848662E+02  0.16323717283E+03  0.92426691802E+02 0.  0.
        254    2    1    2    0    0 -0.73680826569E+02 -0.74393706766E+02 -0.10334542326E+04  0.13717987254E+04  0.89601384155E+03 0.  0.
        -24    2    4    4    0    0 -0.47788046633E+03 -0.62776356844E+02 -0.52717902426E+03  0.71889363458E+03  0.81115492627E+02 0.  0.
         24    2    4    4    0    0  0.40419963976E+03 -0.11617349923E+02 -0.50627520836E+03  0.65290509081E+03  0.80362674138E+02 0.  0.
         13    1    3    3    0    0  0.88674171643E+02  0.67654432794E+02 -0.44671533865E+02  0.12014897807E+03  0.00000000000E+00 0.  1.
        -13    1    3    3    0    0 -0.14993345074E+02  0.67392739722E+01 -0.39829314797E+02  0.43088194757E+02  0.00000000000E+00 0. -1.
          4    1    6    6  502    0  0.30070918250E+03 -0.33760493903E+02 -0.41190626992E+03  0.51110914548E+03  0.00000000000E+00 0. -1.
          3    1    5    5  503    0 -0.17098906095E+03 -0.18997793917E+02 -0.13320879254E+03  0.21758390922E+03  0.00000000000E+00 0. -1.
         -4    1    5    5    0  503 -0.30689140538E+03 -0.43778562927E+02 -0.39397023172E+03  0.50130972536E+03  0.00000000000E+00 0.  1.
         -3    1    6    6    0  502  0.10349045726E+03  0.22143143980E+02 -0.94368938440E+02  0.14179594533E+03  0.00000000000E+00 0.  1.
<mgrwt>
<rscale>  0 0.10519086E+04</rscale>
<asrwt>0</asrwt>
<pdfrwt beam="1">  1        1 0.20407623E+00 0.10519086E+04</pdfrwt>
<pdfrwt beam="2">  1       -1 0.32083139E-01 0.10519086E+04</pdfrwt>
<totfact> 0.78391823E+01</totfact>
</mgrwt>
</event>
<event>
12    1  0.1442183E-007  0.2581552E+04  0.7818608E-02  0.8374495E-01
          1   -1    0    0  501    0  0.00000000000E+00  0.00000000000E+00  0.14594286472E+04  0.14594286472E+04  0.00000000000E+00 0. -1.
         -1   -1    0    0    0  501 -0.00000000000E+00 -0.00000000000E+00 -0.11416130591E+04  0.11416130591E+04  0.00000000000E+00 0.  1.
         23    2    1    2    0    0 -0.66836495375E+01 -0.54913264975E+03 -0.86816246442E+03  0.10315601813E+04  0.93909556376E+02 0.  0.
        254    2    1    2    0    0  0.66836495375E+01  0.54913264975E+03  0.11859780525E+04  0.15694815250E+04  0.86898617840E+03 0.  0.
        -24    2    4    4    0    0  0.13994994779E+03 -0.13923271593E+03  0.29334776228E+02  0.21454228056E+03  0.78715462148E+02 0.  0.
         24    2    4    4    0    0 -0.13326629825E+03  0.68836536569E+03  0.11566432762E+04  0.13549392445E+04  0.80186686996E+02 0.  0.
         11    1    3    3    0    0 -0.25408238076E+02 -0.49153917284E+03 -0.72687379699E+03  0.87783930975E+03  0.00000000000E+00 0.  1.
        -11    1    3    3    0    0  0.18724588538E+02 -0.57593476918E+02 -0.14128866743E+03  0.15372087153E+03  0.00000000000E+00 0. -1.
          2    1    6    6  502    0 -0.10985827533E+03  0.50155259712E+03  0.90721139574E+03  0.10424281102E+04  0.00000000000E+00 0. -1.
          3    1    5    5  503    0  0.14311686742E+03 -0.13574899441E+03  0.13158894770E+02  0.19769517884E+03  0.00000000000E+00 0. -1.
         -4    1    5    5    0  503 -0.31669196355E+01 -0.34837215256E+01  0.16175881458E+02  0.16847101727E+02  0.00000000000E+00 0.  1.
         -1    1    6    6    0  502 -0.23408022921E+02  0.18681276856E+03  0.24943188051E+03  0.31251113428E+03  0.00000000000E+00 0.  1.
<mgrwt>
<rscale>  0 0.25815521E+04</rscale>
<asrwt>0</asrwt>
<pdfrwt beam="1">  1        1 0.22452749E+00 0.25815521E+04</pdfrwt>
<pdfrwt beam="2">  1       -1 0.17563278E+00 0.25815521E+04</pdfrwt>
<totfact> 0.13783046E+00</totfact>
</mgrwt>
</event>
<event>
12    1  0.1442183E-007  0.1808220E+04  0.7818608E-02  0.8701940E-01
          1   -1    0    0  501    0  0.00000000000E+00  0.00000000000E+00  0.83516232994E+03  0.83516232994E+03  0.00000000000E+00 0. -1.
         -1   -1    0    0    0  501 -0.00000000000E+00 -0.00000000000E+00 -0.97874957069E+03  0.97874957069E+03  0.00000000000E+00 0.  1.
         23    2    1    2    0    0 -0.38407157692E+02  0.16556577161E+03 -0.72403691139E+03  0.74925719592E+03  0.90938232333E+02 0.  0.
        254    2    1    2    0    0  0.38407157692E+02 -0.16556577161E+03  0.58044967063E+03  0.10646547047E+04  0.87617389007E+03 0.  0.
        -24    2    4    4    0    0  0.22941982325E+03 -0.45660719088E+03  0.23651548017E+03  0.56894174996E+03  0.81434393350E+02 0.  0.
         24    2    4    4    0    0 -0.19101266555E+03  0.29104141927E+03  0.34393419045E+03  0.49571295475E+03  0.79054791201E+02 0.  0.
         13    1    3    3    0    0 -0.18217700898E+02  0.99024468641E+02 -0.24020347428E+03  0.26045237390E+03  0.00000000000E+00 0. -1.
        -13    1    3    3    0    0 -0.20189456794E+02  0.66541302972E+02 -0.48383343711E+03  0.48880482202E+03  0.00000000000E+00 0.  1.
          2    1    6    6  502    0 -0.65289313500E+01  0.15127838145E+02 -0.16468396599E+01  0.16558698994E+02  0.00000000000E+00 0. -1.
          1    1    5    5  503    0  0.32024188278E+02 -0.14425027248E+03  0.74493180123E+02  0.16547786447E+03  0.00000000000E+00 0. -1.
         -2    1    5    5    0  503  0.19739563497E+03 -0.31235691841E+03  0.16202230005E+03  0.40346388549E+03  0.00000000000E+00 0.  1.
         -1    1    6    6    0  502 -0.18448373420E+03  0.27591358112E+03  0.34558103011E+03  0.47915425576E+03  0.00000000000E+00 0.  1.
<mgrwt>
<rscale>  0 0.18082199E+04</rscale>
<asrwt>0</asrwt>
<pdfrwt beam="1">  1        1 0.12848651E+00 0.18082199E+04</pdfrwt>
<pdfrwt beam="2">  1       -1 0.15057686E+00 0.18082199E+04</pdfrwt>
<totfact> 0.67135319E+00</totfact>
</mgrwt>
</event>
<event>
12    1  0.1442183E-007  0.1831301E+04  0.7818608E-02  0.8689829E-01
         -1   -1    0    0    0  501 -0.00000000000E+00  0.00000000000E+00  0.23937617099E+03  0.23937617099E+03  0.00000000000E+00 0.  1.
          1   -1    0    0  501    0  0.00000000000E+00 -0.00000000000E+00 -0.35025044485E+04  0.35025044485E+04  0.00000000000E+00 0. -1.
         23    2    1    2    0    0 -0.25552262742E+03  0.53750568829E+03 -0.53469365145E+03  0.80781438037E+03  0.11163598955E+03 0.  0.
        254    2    1    2    0    0  0.25552262742E+03 -0.53750568829E+03 -0.27284346260E+04  0.29340662391E+04  0.90010277677E+03 0.  0.
        -24    2    4    4    0    0  0.51285921201E+03 -0.56192538239E+03 -0.23306315835E+04  0.24530268794E+04  0.81930374963E+02 0.  0.
         24    2    4    4    0    0 -0.25733658459E+03  0.24419694093E+02 -0.39780304253E+03  0.48103935969E+03  0.79581189316E+02 0.  0.
         13    1    3    3    0    0 -0.15058569294E+02  0.81786451532E+02 -0.12200479815E+03  0.14765146439E+03  0.00000000000E+00 0.  1.
        -13    1    3    3    0    0 -0.24046405813E+03  0.45571923676E+03 -0.41268885329E+03  0.66016291598E+03  0.00000000000E+00 0. -1.
          2    1    6    6  502    0 -0.54144332517E+02  0.83146960051E+01 -0.15286819518E+03  0.16238666205E+03  0.00000000000E+00 0. -1.
          3    1    5    5  503    0  0.11250952119E+03 -0.11283590187E+03 -0.60018927275E+03  0.62098107558E+03  0.00000000000E+00 0. -1.
         -4    1    5    5    0  503  0.40034969081E+03 -0.44908948051E+03 -0.17304423107E+04  0.18320458038E+04  0.00000000000E+00 0.  1.
         -1    1    6    6    0  502 -0.20319225207E+03  0.16104998088E+02 -0.24493484735E+03  0.31865269764E+03  0.00000000000E+00 0.  1.
<mgrwt>
<rscale>  0 0.18313013E+04</rscale>
<asrwt>0</asrwt>
<pdfrwt beam="1">  1        1 0.53884684E+00 0.18313013E+04</pdfrwt>
<pdfrwt beam="2">  1       -1 0.36827103E-01 0.18313013E+04</pdfrwt>
<totfact> 0.16677216E+00</totfact>
</mgrwt>
</event>
<event>
12    1  0.1442183E-007  0.1223334E+04  0.7818608E-02  0.9092674E-01
         -2   -1    0    0    0  501 -0.00000000000E+00  0.00000000000E+00  0.56476019237E+03  0.56476019237E+03  0.00000000000E+00 0. -1.
          2   -1    0    0  501    0  0.00000000000E+00 -0.00000000000E+00 -0.66247021332E+03  0.66247021332E+03  0.00000000000E+00 0.  1.
         23    2    1    2    0    0 -0.45386055767E+02  0.25659215562E+03 -0.10012335897E+03  0.29394668852E+03  0.92089849039E+02 0.  0.
        254    2    1    2    0    0  0.45386055767E+02 -0.25659215562E+03  0.24133380204E+01  0.93328371718E+03  0.89616585751E+03 0.  0.
        -24    2    4    4    0    0  0.19178419873E+03  0.23574919581E+03  0.20500586221E+03  0.37539280576E+03  0.80830024537E+02 0.  0.
         24    2    4    4    0    0 -0.14639814296E+03 -0.49234135143E+03 -0.20259252419E+03  0.55789091142E+03  0.79787941416E+02 0.  0.
         13    1    3    3    0    0 -0.64830407778E+02  0.18466355448E+03 -0.43827844748E+02  0.20056044002E+03  0.00000000000E+00 0. -1.
        -13    1    3    3    0    0  0.19444352012E+02  0.71928601140E+02 -0.56295514223E+02  0.93386248499E+02  0.00000000000E+00 0.  1.
          2    1    6    6  502    0 -0.86075960516E+02 -0.37843968563E+03 -0.17665341833E+03  0.42641774922E+03  0.00000000000E+00 0. -1.
          3    1    5    5  503    0  0.14645360643E+03  0.22400495229E+03  0.17328843504E+03  0.31883500310E+03  0.00000000000E+00 0. -1.
         -4    1    5    5    0  503  0.45330592301E+02  0.11744243513E+02  0.31717427178E+02  0.56557802652E+02  0.00000000000E+00 0.  1.
         -1    1    6    6    0  502 -0.60322182447E+02 -0.11390166580E+03 -0.25939105865E+02  0.13147316220E+03  0.00000000000E+00 0.  1.
<mgrwt>
<rscale>  0 0.12233345E+04</rscale>
<asrwt>0</asrwt>
<pdfrwt beam="1">  1        2 0.10191849E+00 0.12233345E+04</pdfrwt>
<pdfrwt beam="2">  1       -2 0.86886184E-01 0.12233345E+04</pdfrwt>
<totfact> 0.49602661E+01</totfact>
</mgrwt>
</event>
<event>
12    1  0.1442183E-007  0.2089198E+04  0.7818608E-02  0.8566017E-01
         -1   -1    0    0    0  501 -0.00000000000E+00  0.00000000000E+00  0.43295206948E+03  0.43295206948E+03  0.00000000000E+00 0.  1.
          1   -1    0    0  501    0  0.00000000000E+00 -0.00000000000E+00 -0.25203418946E+04  0.25203418946E+04  0.00000000000E+00 0. -1.
         23    2    1    2    0    0  0.99512508483E+02  0.81067760392E+03 -0.97740971051E+03  0.12769016152E+04  0.89705495460E+02 0.  0.
        254    2    1    2    0    0 -0.99512508483E+02 -0.81067760392E+03 -0.11099801146E+04  0.16763923488E+04  0.95453367443E+03 0.  0.
        -24    2    4    4    0    0  0.12452442098E+03 -0.39324002246E+02 -0.79556994616E+03  0.81015005943E+03  0.79742529321E+02 0.  0.
         24    2    4    4    0    0 -0.22403692946E+03 -0.77135360167E+03 -0.31441016843E+03  0.86624228941E+03  0.79643112578E+02 0.  0.
         11    1    3    3    0    0  0.43865402316E+02  0.21865548550E+03 -0.32509013613E+03  0.39423088599E+03  0.00000000000E+00 0. -1.
        -11    1    3    3    0    0  0.55647106167E+02  0.59202211841E+03 -0.65231957437E+03  0.88267072922E+03  0.00000000000E+00 0.  1.
          4    1    6    6  502    0 -0.16416512125E+03 -0.58474577417E+03 -0.27324387559E+03  0.66598800514E+03  0.00000000000E+00 0. -1.
          1    1    5    5  503    0  0.80561296207E+01 -0.16088445957E+02 -0.26921226109E+02  0.32380422063E+02  0.00000000000E+00 0. -1.
         -2    1    5    5    0  503  0.11646829136E+03 -0.23235556290E+02 -0.76864872005E+03  0.77776963737E+03  0.00000000000E+00 0.  1.
         -3    1    6    6    0  502 -0.59871808215E+02 -0.18660782750E+03 -0.41166292847E+02  0.20025428428E+03  0.00000000000E+00 0.  1.
<mgrwt>
<rscale>  0 0.20891982E+04</rscale>
<asrwt>0</asrwt>
<pdfrwt beam="1">  1        1 0.38774490E+00 0.20891982E+04</pdfrwt>
<pdfrwt beam="2">  1       -1 0.66608011E-01 0.20891982E+04</pdfrwt>
<totfact> 0.27576895E+00</totfact>
</mgrwt>
</event>
<event>
12    1  0.1442183E-007  0.1397900E+04  0.7818608E-02  0.8955340E-01
         -2   -1    0    0    0  501 -0.00000000000E+00  0.00000000000E+00  0.15561865246E+03  0.15561865246E+03  0.00000000000E+00 0.  1.
          2   -1    0    0  501    0  0.00000000000E+00 -0.00000000000E+00 -0.31392844135E+04  0.31392844135E+04  0.00000000000E+00 0. -1.
         23    2    1    2    0    0  0.41928339517E+03  0.13238119039E+02 -0.99342269543E+03  0.10823168122E+04  0.92451159871E+02 0.  0.
        254    2    1    2    0    0 -0.41928339517E+03 -0.13238119039E+02 -0.19902430656E+04  0.22125862537E+04  0.87091713543E+03 0.  0.
        -24    2    4    4    0    0  0.57561089492E+02 -0.33803463923E+03 -0.49186657441E+03  0.60503202066E+03  0.80934063694E+02 0.  0.
         24    2    4    4    0    0 -0.47684448466E+03  0.32479652019E+03 -0.14983764912E+04  0.16075542330E+04  0.78899054702E+02 0.  0.
         11    1    3    3    0    0  0.16799074273E+03  0.17227201658E+02 -0.51372951118E+03  0.54077322121E+03  0.00000000000E+00 0. -1.
        -11    1    3    3    0    0  0.25129265244E+03 -0.39890826188E+01 -0.47969318425E+03  0.54154359101E+03  0.00000000000E+00 0.  1.
          4    1    6    6  502    0 -0.39270650437E+03  0.22830071994E+03 -0.11775345607E+04  0.12621122213E+04  0.00000000000E+00 0. -1.
          3    1    5    5  503    0  0.17400554519E+02 -0.21943981770E+03 -0.25315930234E+03  0.33547912789E+03  0.00000000000E+00 0. -1.
         -4    1    5    5    0  503  0.40160534972E+02 -0.11859482152E+03 -0.23870727207E+03  0.26955289277E+03  0.00000000000E+00 0.  1.
         -3    1    6    6    0  502 -0.84137980283E+02  0.96495800246E+02 -0.32084193043E+03  0.34544201179E+03  0.00000000000E+00 0.  1.
<mgrwt>
<rscale>  0 0.13979002E+04</rscale>
<asrwt>0</asrwt>
<pdfrwt beam="1">  1        2 0.48296679E+00 0.13979002E+04</pdfrwt>
<pdfrwt beam="2">  1       -2 0.23941333E-01 0.13979002E+04</pdfrwt>
<totfact> 0.21686151E+01</totfact>
</mgrwt>
</event>
<event>
12    1  0.1442183E-007  0.1362707E+04  0.7818608E-02  0.8981264E-01
         -2   -1    0    0    0  501 -0.00000000000E+00  0.00000000000E+00  0.46467207398E+03  0.46467207398E+03  0.00000000000E+00 0.  1.
          2   -1    0    0  501    0  0.00000000000E+00 -0.00000000000E+00 -0.99907638372E+03  0.99907638372E+03  0.00000000000E+00 0. -1.
         23    2    1    2    0    0  0.12280494980E+03  0.12215354995E+03  0.20530884411E+03  0.28380087178E+03  0.91589671329E+02 0.  0.
        254    2    1    2    0    0 -0.12280494980E+03 -0.12215354995E+03 -0.73971315385E+03  0.11799475859E+04  0.90282789615E+03 0.  0.
        -24    2    4    4    0    0 -0.14203510372E+03 -0.34814085139E+03  0.18355441755E+02  0.38476077506E+03  0.79548153264E+02 0.  0.
         24    2    4    4    0    0  0.19230153919E+02  0.22598730144E+03 -0.75806859560E+03  0.79518681085E+03  0.78828987568E+02 0.  0.
         13    1    3    3    0    0  0.63559103833E+02  0.25098085408E+02  0.29514540100E+02  0.74436426893E+02  0.00000000000E+00 0. -1.
        -13    1    3    3    0    0  0.59245845967E+02  0.97055464543E+02  0.17579430401E+03  0.20936444489E+03  0.00000000000E+00 0.  1.
          4    1    6    6  502    0 -0.14542969302E+02  0.26137028144E+02 -0.46288832743E+02  0.55111688715E+02  0.00000000000E+00 0. -1.
          1    1    5    5  503    0 -0.75488353728E+02 -0.91104599333E+02  0.14695121712E+02  0.11922452000E+03  0.00000000000E+00 0. -1.
         -2    1    5    5    0  503 -0.66546749990E+02 -0.25703625206E+03  0.36603200426E+01  0.26553625506E+03  0.00000000000E+00 0.  1.
         -3    1    6    6    0  502  0.33773123220E+02  0.19985027330E+03 -0.71177976286E+03  0.74007512214E+03  0.00000000000E+00 0.  1.
<mgrwt>
<rscale>  0 0.13627074E+04</rscale>
<asrwt>0</asrwt>
<pdfrwt beam="1">  1        2 0.15370406E+00 0.13627074E+04</pdfrwt>
<pdfrwt beam="2">  1       -2 0.71488012E-01 0.13627074E+04</pdfrwt>
<totfact> 0.43706763E+01</totfact>
</mgrwt>
</event>
<event>
12    1  0.1442183E-007  0.1830415E+04  0.7818608E-02  0.8690291E-01
          1   -1    0    0  501    0  0.00000000000E+00  0.00000000000E+00  0.77749897355E+03  0.77749897355E+03  0.00000000000E+00 0. -1.
         -1   -1    0    0    0  501 -0.00000000000E+00 -0.00000000000E+00 -0.10773060833E+04  0.10773060833E+04  0.00000000000E+00 0.  1.
         23    2    1    2    0    0 -0.60243353161E+02  0.14541024472E+02  0.58716720483E+03  0.59733793334E+03  0.90590160525E+02 0.  0.
        254    2    1    2    0    0  0.60243353161E+02 -0.14541024472E+02 -0.88697431454E+03  0.12574671235E+04  0.88919032214E+03 0.  0.
        -24    2    4    4    0    0  0.41527838260E+03  0.14042820256E+03 -0.25844377772E+03  0.51512102108E+03  0.79876560958E+02 0.  0.
         24    2    4    4    0    0 -0.35503502943E+03 -0.15496922703E+03 -0.62853053682E+03  0.74234610240E+03  0.77212476846E+02 0.  0.
         11    1    3    3    0    0 -0.70292269780E+02 -0.15971094677E+02  0.48241106809E+03  0.48776686815E+03  0.00000000000E+00 0. -1.
        -11    1    3    3    0    0  0.10048916619E+02  0.30512119149E+02  0.10475613674E+03  0.10957106518E+03  0.00000000000E+00 0.  1.
          4    1    6    6  502    0 -0.30197127930E+02 -0.19489186258E+02 -0.10940673092E+03  0.11515870652E+03  0.00000000000E+00 0. -1.
          3    1    5    5  503    0  0.93411569656E+02  0.33731766955E+02 -0.21966179346E+02  0.10171561573E+03  0.00000000000E+00 0. -1.
         -4    1    5    5    0  503  0.32186681294E+03  0.10669643560E+03 -0.23647759837E+03  0.41340540535E+03  0.00000000000E+00 0.  1.
         -3    1    6    6    0  502 -0.32483790150E+03 -0.13548004077E+03 -0.51912380590E+03  0.62718739588E+03  0.00000000000E+00 0.  1.
<mgrwt>
<rscale>  0 0.18304146E+04</rscale>
<asrwt>0</asrwt>
<pdfrwt beam="1">  1        1 0.11961523E+00 0.18304146E+04</pdfrwt>
<pdfrwt beam="2">  1       -1 0.16573940E+00 0.18304146E+04</pdfrwt>
<totfact> 0.57629985E+00</totfact>
</mgrwt>
</event>
<event>
12    1  0.1442183E-007  0.2502381E+04  0.7818608E-02  0.8402138E-01
          1   -1    0    0  501    0  0.00000000000E+00  0.00000000000E+00  0.85802440516E+03  0.85802440516E+03  0.00000000000E+00 0. -1.
         -1   -1    0    0    0  501 -0.00000000000E+00 -0.00000000000E+00 -0.18245147391E+04  0.18245147391E+04  0.00000000000E+00 0.  1.
         23    2    1    2    0    0  0.66556196573E+03  0.29169562281E+03 -0.12885376025E+04  0.14821028585E+04  0.90778100068E+02 0.  0.
        254    2    1    2    0    0 -0.66556196573E+03 -0.29169562281E+03  0.32204726850E+03  0.12004362858E+04  0.89959644653E+03 0.  0.
        -24    2    4    4    0    0 -0.83002088036E+02  0.26492618755E+02  0.49570538171E+03  0.50980078149E+03  0.81128329730E+02 0.  0.
         24    2    4    4    0    0 -0.58255987770E+03 -0.31818824156E+03 -0.17365811321E+03  0.69063550435E+03  0.78743199172E+02 0.  0.
         11    1    3    3    0    0  0.57927907868E+03  0.22522399988E+03 -0.11320152959E+04  0.12914134625E+04  0.00000000000E+00 0.  1.
        -11    1    3    3    0    0  0.86282887055E+02  0.66471622931E+02 -0.15652230659E+03  0.19068939591E+03  0.00000000000E+00 0. -1.
          2    1    6    6  502    0 -0.21332370734E+03 -0.12042589252E+03 -0.25279390241E+02  0.24626905464E+03  0.00000000000E+00 0. -1.
          1    1    5    5  503    0 -0.50722410768E+02  0.31877396490E+02  0.44776911082E+03  0.45175890469E+03  0.00000000000E+00 0. -1.
         -2    1    5    5    0  503 -0.32279677268E+02 -0.53847777346E+01  0.47936270891E+02  0.58041876802E+02  0.00000000000E+00 0.  1.
         -1    1    6    6    0  502 -0.36923617036E+03 -0.19776234905E+03 -0.14837872297E+03  0.44436644971E+03  0.00000000000E+00 0.  1.
<mgrwt>
<rscale>  0 0.25023814E+04</rscale>
<asrwt>0</asrwt>
<pdfrwt beam="1">  1        1 0.13200376E+00 0.25023814E+04</pdfrwt>
<pdfrwt beam="2">  1       -1 0.28069457E+00 0.25023814E+04</pdfrwt>
<totfact> 0.77148321E-01</totfact>
</mgrwt>
</event>
<event>
12    1  0.1442183E-007  0.1278220E+04  0.7818608E-02  0.9047018E-01
          2   -1    0    0  501    0  0.00000000000E+00  0.00000000000E+00  0.80215703713E+03  0.80215703713E+03  0.00000000000E+00 0. -1.
         -2   -1    0    0    0  501 -0.00000000000E+00 -0.00000000000E+00 -0.50920395011E+03  0.50920395011E+03  0.00000000000E+00 0.  1.
         23    2    1    2    0    0 -0.56068630446E+02 -0.83597956302E+02 -0.21959266616E+03  0.25885104545E+03  0.93008682811E+02 0.  0.
        254    2    1    2    0    0  0.56068630446E+02  0.83597956302E+02  0.51254575318E+03  0.10525099418E+04  0.91375145354E+03 0.  0.
        -24    2    4    4    0    0  0.36095998892E+03 -0.19904857509E+03  0.46516335350E+03  0.62696667610E+03  0.82448885146E+02 0.  0.
         24    2    4    4    0    0 -0.30489135847E+03  0.28264653139E+03  0.47382399681E+02  0.42554326569E+03  0.77422070472E+02 0.  0.
         11    1    3    3    0    0 -0.78739106483E+02 -0.69353609827E+02 -0.19937796663E+03  0.22530278219E+03  0.00000000000E+00 0.  1.
        -11    1    3    3    0    0  0.22670476037E+02 -0.14244346475E+02 -0.20214699534E+02  0.33548263256E+02  0.00000000000E+00 0. -1.
          4    1    6    6  502    0 -0.17027131089E+02  0.46365282177E+02  0.15480710615E+02  0.51762099896E+02  0.00000000000E+00 0. -1.
          1    1    5    5  503    0  0.79829878969E+02 -0.63133432802E+02  0.70963283618E+02  0.12407428233E+03  0.00000000000E+00 0. -1.
         -2    1    5    5    0  503  0.28113010995E+03 -0.13591514228E+03  0.39420006988E+03  0.50289239377E+03  0.00000000000E+00 0.  1.
         -3    1    6    6    0  502 -0.28786422738E+03  0.23628124921E+03  0.31901689066E+02  0.37378116579E+03  0.00000000000E+00 0.  1.
<mgrwt>
<rscale>  0 0.12782199E+04</rscale>
<asrwt>0</asrwt>
<pdfrwt beam="1">  1        2 0.12340878E+00 0.12782199E+04</pdfrwt>
<pdfrwt beam="2">  1       -2 0.78339069E-01 0.12782199E+04</pdfrwt>
<totfact> 0.48840673E+01</totfact>
</mgrwt>
</event>
<event>
12    1  0.1442183E-007  0.1131977E+04  0.7818608E-02  0.9174573E-01
         -1   -1    0    0    0  501 -0.00000000000E+00  0.00000000000E+00  0.22425328472E+03  0.22425328472E+03  0.00000000000E+00 0.  1.
          1   -1    0    0  501    0  0.00000000000E+00 -0.00000000000E+00 -0.14284873373E+04  0.14284873373E+04  0.00000000000E+00 0. -1.
         23    2    1    2    0    0  0.18430691475E+03  0.21457115050E+02 -0.16166420567E+03  0.26261504458E+03  0.91661876681E+02 0.  0.
        254    2    1    2    0    0 -0.18430691475E+03 -0.21457115050E+02 -0.10425698469E+04  0.13901255775E+04  0.90059302060E+03 0.  0.
        -24    2    4    4    0    0 -0.43540840329E+03  0.14620995259E+03 -0.22993593410E+03  0.51882693882E+03  0.73164409102E+02 0.  0.
         24    2    4    4    0    0  0.25110148855E+03 -0.16766706764E+03 -0.81263391284E+03  0.87129863864E+03  0.87311157786E+02 0.  0.
         13    1    3    3    0    0  0.85227432909E+02  0.91204414783E+01 -0.17871872478E+02  0.87557418869E+02  0.00000000000E+00 0.  1.
        -13    1    3    3    0    0  0.99079481836E+02  0.12336673571E+02 -0.14379233319E+03  0.17505762571E+03  0.00000000000E+00 0. -1.
          2    1    6    6  502    0  0.15613347454E+03 -0.67827058425E+02 -0.53361225078E+03  0.56010731642E+03  0.00000000000E+00 0. -1.
          3    1    5    5  503    0 -0.36351766510E+03  0.95297696094E+02 -0.17128424736E+03  0.41299520228E+03  0.00000000000E+00 0. -1.
         -4    1    5    5    0  503 -0.71890738196E+02  0.50912256497E+02 -0.58651686740E+02  0.10583173653E+03  0.00000000000E+00 0.  1.
         -1    1    6    6    0  502  0.94968014006E+02 -0.99840009216E+02 -0.27902166207E+03  0.31119132222E+03  0.00000000000E+00 0.  1.
<mgrwt>
<rscale>  0 0.11319770E+04</rscale>
<asrwt>0</asrwt>
<pdfrwt beam="1">  1        1 0.21976728E+00 0.11319770E+04</pdfrwt>
<pdfrwt beam="2">  1       -1 0.34500505E-01 0.11319770E+04</pdfrwt>
<totfact> 0.58069426E+01</totfact>
</mgrwt>
</event>
<event>
12    1  0.1442183E-007  0.1259708E+04  0.7818608E-02  0.9062142E-01
          1   -1    0    0  501    0  0.00000000000E+00  0.00000000000E+00  0.31052848711E+04  0.31052848711E+04  0.00000000000E+00 0. -1.
         -1   -1    0    0    0  501 -0.00000000000E+00 -0.00000000000E+00 -0.12775507785E+03  0.12775507785E+03  0.00000000000E+00 0.  1.
         23    2    1    2    0    0 -0.40521398735E+02 -0.27634047119E+03  0.43989179573E+03  0.52970387359E+03  0.95264694287E+02 0.  0.
        254    2    1    2    0    0  0.40521398735E+02  0.27634047119E+03  0.25376379975E+04  0.27033360754E+04  0.88905190519E+03 0.  0.
        -24    2    4    4    0    0 -0.81356535691E+01  0.13273075942E+03 -0.51743521016E+01  0.15472998463E+03  0.78936372287E+02 0.  0.
         24    2    4    4    0    0  0.48657052304E+02  0.14360971177E+03  0.25428123496E+04  0.25486060907E+04  0.80666611805E+02 0.  0.
         11    1    3    3    0    0  0.66123083192E+01  0.47351893840E+01  0.25509912512E+02  0.26774993486E+02  0.00000000000E+00 0. -1.
        -11    1    3    3    0    0 -0.47133707054E+02 -0.28107566057E+03  0.41438188322E+03  0.50292888011E+03  0.00000000000E+00 0.  1.
          4    1    6    6  502    0  0.23994757798E+02  0.77174058148E+02  0.19332054932E+04  0.19348940701E+04  0.00000000000E+00 0. -1.
          1    1    5    5  503    0  0.26779909976E+02  0.10751002597E+03  0.32464534430E+01  0.11084272065E+03  0.00000000000E+00 0. -1.
         -2    1    5    5    0  503 -0.34915563546E+02  0.25220733450E+02 -0.84208055446E+01  0.43887263978E+02  0.00000000000E+00 0.  1.
         -3    1    6    6    0  502  0.24662294506E+02  0.66435653621E+02  0.60960685647E+03  0.61371202066E+03  0.00000000000E+00 0.  1.
<mgrwt>
<rscale>  0 0.12597078E+04</rscale>
<asrwt>0</asrwt>
<pdfrwt beam="1">  1        1 0.47773608E+00 0.12597078E+04</pdfrwt>
<pdfrwt beam="2">  1       -1 0.19654630E-01 0.12597078E+04</pdfrwt>
<totfact> 0.10512743E+01</totfact>
</mgrwt>
</event>
<event>
12    1  0.1442183E-007  0.1682526E+04  0.7818608E-02  0.8771393E-01
         -2   -1    0    0    0  501 -0.00000000000E+00  0.00000000000E+00  0.58823922281E+03  0.58823922281E+03  0.00000000000E+00 0.  1.
          2   -1    0    0  501    0  0.00000000000E+00 -0.00000000000E+00 -0.12031223096E+04  0.12031223096E+04  0.00000000000E+00 0. -1.
         23    2    1    2    0    0  0.32176457151E+03 -0.41580649134E+03 -0.59328740739E+02  0.53732391330E+03  0.93646199116E+02 0.  0.
        254    2    1    2    0    0 -0.32176457151E+03  0.41580649134E+03 -0.55555434602E+03  0.12540376191E+04  0.99375159922E+03 0.  0.
        -24    2    4    4    0    0 -0.33719941525E+03  0.43033756167E+03 -0.81292906393E+03  0.98326093215E+03  0.83991279759E+02 0.  0.
         24    2    4    4    0    0  0.15434843737E+02 -0.14531070327E+02  0.25737471792E+03  0.27077668693E+03  0.81417948594E+02 0.  0.
         13    1    3    3    0    0  0.49002869460E+02 -0.19068659747E+02 -0.56931092612E+01  0.52889568848E+02  0.00000000000E+00 0. -1.
        -13    1    3    3    0    0  0.27276170205E+03 -0.39673783159E+03 -0.53635631478E+02  0.48443434446E+03  0.00000000000E+00 0.  1.
          4    1    6    6  502    0 -0.80504264524E+01 -0.38401645922E+02  0.20420660881E+03  0.20794190260E+03  0.00000000000E+00 0. -1.
          3    1    5    5  503    0 -0.13313564591E+03  0.23574406099E+03 -0.41720381446E+03  0.49735237538E+03  0.00000000000E+00 0. -1.
         -4    1    5    5    0  503 -0.20406376934E+03  0.19459350068E+03 -0.39572524948E+03  0.48590855676E+03  0.00000000000E+00 0.  1.
         -3    1    6    6    0  502  0.23485270190E+02  0.23870575595E+02  0.53168109112E+02  0.62834784329E+02  0.00000000000E+00 0.  1.
<mgrwt>
<rscale>  0 0.16825264E+04</rscale>
<asrwt>0</asrwt>
<pdfrwt beam="1">  1        2 0.18509574E+00 0.16825264E+04</pdfrwt>
<pdfrwt beam="2">  1       -2 0.90498342E-01 0.16825264E+04</pdfrwt>
<totfact> 0.18753333E+01</totfact>
</mgrwt>
</event>
<event>
12    1  0.1442183E-007  0.1800546E+04  0.7818608E-02  0.8706009E-01
          2   -1    0    0  501    0  0.00000000000E+00  0.00000000000E+00  0.22734665831E+04  0.22734665831E+04  0.00000000000E+00 0. -1.
         -2   -1    0    0    0  501 -0.00000000000E+00 -0.00000000000E+00 -0.35650016818E+03  0.35650016818E+03  0.00000000000E+00 0.  1.
         23    2    1    2    0    0  0.23946231021E+03  0.39248731420E+03  0.14380533875E+04  0.15125728348E+04  0.92144155918E+02 0.  0.
        254    2    1    2    0    0 -0.23946231021E+03 -0.39248731420E+03  0.47891302746E+03  0.11173939165E+04  0.89878973457E+03 0.  0.
        -24    2    4    4    0    0 -0.54164847702E+03 -0.58132032472E+02  0.22653318933E+03  0.59480079876E+03  0.75553282402E+02 0.  0.
         24    2    4    4    0    0  0.30218616680E+03 -0.33435528173E+03  0.25237983812E+03  0.52259311775E+03  0.79360255820E+02 0.  0.
         13    1    3    3    0    0  0.19305380512E+03  0.28184983239E+03  0.93639518201E+03  0.99676729310E+03  0.00000000000E+00 0. -1.
        -13    1    3    3    0    0  0.46408505092E+02  0.11063748181E+03  0.50165820544E+03  0.51580554166E+03  0.00000000000E+00 0.  1.
          4    1    6    6  502    0  0.24937822295E+03 -0.22540628881E+03  0.19494023702E+03  0.38858614120E+03  0.00000000000E+00 0. -1.
          3    1    5    5  503    0 -0.51722282780E+03 -0.71317447769E+02  0.21258125516E+03  0.56373435411E+03  0.00000000000E+00 0. -1.
         -4    1    5    5    0  503 -0.24425649210E+02  0.13185415296E+02  0.13951934174E+02  0.31066444648E+02  0.00000000000E+00 0.  1.
         -3    1    6    6    0  502  0.52807943850E+02 -0.10894899292E+03  0.57439601102E+02  0.13400697656E+03  0.00000000000E+00 0.  1.
<mgrwt>
<rscale>  0 0.18005457E+04</rscale>
<asrwt>0</asrwt>
<pdfrwt beam="1">  1        2 0.34976408E+00 0.18005457E+04</pdfrwt>
<pdfrwt beam="2">  1       -2 0.54846181E-01 0.18005457E+04</pdfrwt>
<totfact> 0.13861904E+01</totfact>
</mgrwt>
</event>
<event>
12    1  0.1442183E-007  0.1709390E+04  0.7818608E-02  0.8756027E-01
          1   -1    0    0  501    0  0.00000000000E+00  0.00000000000E+00  0.90582673685E+03  0.90582673685E+03  0.00000000000E+00 0. -1.
         -1   -1    0    0    0  501 -0.00000000000E+00 -0.00000000000E+00 -0.80644967152E+03  0.80644967152E+03  0.00000000000E+00 0.  1.
         23    2    1    2    0    0  0.18666095321E+02 -0.23626521611E+03 -0.52947257924E+03  0.58723126693E+03  0.91267043517E+02 0.  0.
        254    2    1    2    0    0 -0.18666095321E+02  0.23626521611E+03  0.62884964457E+03  0.11250451415E+04  0.90227768418E+03 0.  0.
        -24    2    4    4    0    0 -0.81766903314E+01  0.49969317438E+03  0.67787004349E+03  0.84584399259E+03  0.78639284996E+02 0.  0.
         24    2    4    4    0    0 -0.10489404989E+02 -0.26342795827E+03 -0.49020398922E+02  0.27920114887E+03  0.77755804927E+02 0.  0.
         13    1    3    3    0    0  0.38591559050E+02 -0.54925790131E+02 -0.98097680903E+02  0.11886675671E+03  0.00000000000E+00 0. -1.
        -13    1    3    3    0    0 -0.19925463729E+02 -0.18133942598E+03 -0.43137489834E+03  0.46836451022E+03  0.00000000000E+00 0.  1.
          4    1    6    6  502    0 -0.72329396149E+01 -0.22727606223E+03 -0.69178293564E+02  0.23768121545E+03  0.00000000000E+00 0. -1.
          3    1    5    5  503    0 -0.36897233584E+02  0.23522946773E+03  0.28485882507E+03  0.37126655997E+03  0.00000000000E+00 0. -1.
         -4    1    5    5    0  503  0.28720543253E+02  0.26446370665E+03  0.39301121842E+03  0.47457743261E+03  0.00000000000E+00 0.  1.
         -3    1    6    6    0  502 -0.32564653743E+01 -0.36151896049E+02  0.20157894642E+02  0.41519933418E+02  0.00000000000E+00 0.  1.
<mgrwt>
<rscale>  0 0.17093902E+04</rscale>
<asrwt>0</asrwt>
<pdfrwt beam="1">  1        1 0.13935796E+00 0.17093902E+04</pdfrwt>
<pdfrwt beam="2">  1       -1 0.12406918E+00 0.17093902E+04</pdfrwt>
<totfact> 0.97588047E+00</totfact>
</mgrwt>
</event>
<event>
12    1  0.1442183E-007  0.2156206E+04  0.7818608E-02  0.8536881E-01
          1   -1    0    0  501    0  0.00000000000E+00  0.00000000000E+00  0.87498486748E+03  0.87498486748E+03  0.00000000000E+00 0. -1.
         -1   -1    0    0    0  501 -0.00000000000E+00 -0.00000000000E+00 -0.13283726206E+04  0.13283726206E+04  0.00000000000E+00 0.  1.
         23    2    1    2    0    0 -0.58099508928E+03  0.67038131102E+03 -0.23267679349E+03  0.92180468750E+03  0.92838546601E+02 0.  0.
        254    2    1    2    0    0  0.58099508928E+03 -0.67038131102E+03 -0.22071095962E+03  0.12815528006E+04  0.89816360259E+03 0.  0.
        -24    2    4    4    0    0  0.11112881123E+03  0.19052426225E+03 -0.18094356897E+03  0.29670632900E+03  0.81516644491E+02 0.  0.
         24    2    4    4    0    0  0.46986627806E+03 -0.86090557327E+03 -0.39767390649E+02  0.98484647156E+03  0.80052494353E+02 0.  0.
         11    1    3    3    0    0 -0.30179108014E+03  0.40117745556E+03 -0.16247928295E+03  0.52765587677E+03  0.00000000000E+00 0. -1.
        -11    1    3    3    0    0 -0.27920400914E+03  0.26920385546E+03 -0.70197510546E+02  0.39414881073E+03  0.00000000000E+00 0.  1.
          2    1    6    6  502    0  0.72978891528E+02 -0.20169316039E+03 -0.33164914537E+01  0.21451584714E+03  0.00000000000E+00 0. -1.
          1    1    5    5  503    0  0.89230993484E+02  0.76290944379E+02 -0.74523133541E+02  0.13905457858E+03  0.00000000000E+00 0. -1.
         -2    1    5    5    0  503  0.21897817742E+02  0.11423331787E+03 -0.10642043543E+03  0.15765175042E+03  0.00000000000E+00 0.  1.
         -1    1    6    6    0  502  0.39688738653E+03 -0.65921241288E+03 -0.36450899196E+02  0.77033062443E+03  0.00000000000E+00 0.  1.
<mgrwt>
<rscale>  0 0.21562059E+04</rscale>
<asrwt>0</asrwt>
<pdfrwt beam="1">  1        1 0.13461306E+00 0.21562059E+04</pdfrwt>
<pdfrwt beam="2">  1       -1 0.20436502E+00 0.21562059E+04</pdfrwt>
<totfact> 0.24529549E+00</totfact>
</mgrwt>
</event>
<event>
12    1  0.1501287E-007  0.2184023E+04  0.7818608E-02  0.8525108E-01
         -1   -1    0    0    0  501 -0.00000000000E+00  0.00000000000E+00  0.71978396345E+03  0.71978396345E+03  0.00000000000E+00 0.  1.
          1   -1    0    0  501    0  0.00000000000E+00 -0.00000000000E+00 -0.16567314151E+04  0.16567314151E+04  0.00000000000E+00 0. -1.
         23    2    1    2    0    0  0.69801615777E+03  0.37244518860E+03 -0.85750291046E+03  0.11704050929E+04  0.92708494712E+02 0.  0.
        254    2    1    2    0    0 -0.69801615777E+03 -0.37244518860E+03 -0.79444541176E+02  0.12061102857E+04  0.90688952525E+03 0.  0.
        -24    2    4    4    0    0  0.18251917220E+02 -0.40379879759E+03  0.16578141727E+03  0.44425852768E+03  0.80595035101E+02 0.  0.
         24    2    4    4    0    0 -0.71626807499E+03  0.31353608997E+02 -0.24522595845E+03  0.76185175797E+03  0.79115904708E+02 0.  0.
         11    1    3    3    0    0  0.20890979125E+03  0.74705007509E+02 -0.27868756962E+03  0.35621749043E+03  0.00000000000E+00 0.  1.
        -11    1    3    3    0    0  0.48910636652E+03  0.29774018109E+03 -0.57881534084E+03  0.81418760246E+03  0.00000000000E+00 0. -1.
          2    1    6    6  502    0  0.13220256472E+00  0.81547082249E+00  0.29532659096E+01  0.30666349168E+01  0.00000000000E+00 0. -1.
          1    1    5    5  503    0 -0.74672889103E+01 -0.39111726769E+02 -0.60894719458E+01  0.40281127629E+02  0.00000000000E+00 0. -1.
         -2    1    5    5    0  503  0.25719206130E+02 -0.36468707082E+03  0.17187088922E+03  0.40397740005E+03  0.00000000000E+00 0.  1.
         -1    1    6    6    0  502 -0.71640027756E+03  0.30538138175E+02 -0.24817922436E+03  0.75878512306E+03  0.00000000000E+00 0.  1.
<mgrwt>
<rscale>  0 0.21840226E+04</rscale>
<asrwt>0</asrwt>
<pdfrwt beam="1">  1        1 0.25488176E+00 0.21840226E+04</pdfrwt>
<pdfrwt beam="2">  1       -1 0.11073599E+00 0.21840226E+04</pdfrwt>
<totfact> 0.34988725E+00</totfact>
</mgrwt>
</event>
<event>
12    1  0.1442183E-007  0.1958446E+04  0.7818608E-02  0.8626299E-01
          2   -1    0    0  501    0  0.00000000000E+00  0.00000000000E+00  0.19050822401E+04  0.19050822401E+04  0.00000000000E+00 0. -1.
         -2   -1    0    0    0  501 -0.00000000000E+00 -0.00000000000E+00 -0.50332618796E+03  0.50332618796E+03  0.00000000000E+00 0.  1.
         23    2    1    2    0    0 -0.50346532927E+03  0.18492563893E+03  0.12294423585E+04  0.13449010359E+04  0.97752001077E+02 0.  0.
        254    2    1    2    0    0  0.50346532927E+03 -0.18492563893E+03  0.17231369360E+03  0.10635073922E+04  0.90204275644E+03 0.  0.
        -24    2    4    4    0    0  0.17018781393E+03 -0.51940374039E+03  0.19030435835E+03  0.58428251840E+03  0.80163426537E+02 0.  0.
         24    2    4    4    0    0  0.33327751534E+03  0.33447810146E+03 -0.17990664750E+02  0.47922487375E+03  0.79895638274E+02 0.  0.
         11    1    3    3    0    0 -0.20954935936E+03  0.10856671981E+03  0.63383294517E+03  0.67634448992E+03  0.00000000000E+00 0. -1.
        -11    1    3    3    0    0 -0.29391596991E+03  0.76358919129E+02  0.59560941334E+03  0.66855654597E+03  0.00000000000E+00 0.  1.
          4    1    6    6  502    0  0.78620918197E+02  0.12677262486E+03  0.93719786021E+01  0.14946699025E+03  0.00000000000E+00 0. -1.
          1    1    5    5  503    0  0.65422192630E+02 -0.15234624347E+03  0.22530787151E+02  0.16732327261E+03  0.00000000000E+00 0. -1.
         -2    1    5    5    0  503  0.10476562130E+03 -0.36705749692E+03  0.16777357120E+03  0.41695924579E+03  0.00000000000E+00 0.  1.
         -3    1    6    6    0  502  0.25465659715E+03  0.20770547660E+03 -0.27362643352E+02  0.32975788350E+03  0.00000000000E+00 0.  1.
<mgrwt>
<rscale>  0 0.19584461E+04</rscale>
<asrwt>0</asrwt>
<pdfrwt beam="1">  1        2 0.29308957E+00 0.19584461E+04</pdfrwt>
<pdfrwt beam="2">  1       -2 0.77434799E-01 0.19584461E+04</pdfrwt>
<totfact> 0.10457507E+01</totfact>
</mgrwt>
</event>
<event>
12    1  0.1442183E-007  0.3576663E+04  0.7818608E-02  0.8095858E-01
         -2   -1    0    0    0  501 -0.00000000000E+00  0.00000000000E+00  0.29314800401E+04  0.29314800401E+04  0.00000000000E+00 0.  1.
          2   -1    0    0  501    0  0.00000000000E+00 -0.00000000000E+00 -0.10909609447E+04  0.10909609447E+04  0.00000000000E+00 0. -1.
         23    2    1    2    0    0  0.86455415187E+03 -0.91367146878E+03  0.21002535665E+04  0.24497982305E+04  0.90536689724E+02 0.  0.
        254    2    1    2    0    0 -0.86455415187E+03  0.91367146878E+03 -0.25973447119E+03  0.15726427543E+04  0.90746559317E+03 0.  0.
        -24    2    4    4    0    0 -0.55688600823E+03 -0.21289088906E+02 -0.70904155067E+02  0.56721096729E+03  0.78266408703E+02 0.  0.
         24    2    4    4    0    0 -0.30766814363E+03  0.93496055769E+03 -0.18883031612E+03  0.10054317870E+04  0.80157713535E+02 0.  0.
         13    1    3    3    0    0  0.43044502179E+02 -0.49329230669E+02  0.74949938997E+02  0.99517312674E+02  0.00000000000E+00 0. -1.
        -13    1    3    3    0    0  0.82150964969E+03 -0.86434223811E+03  0.20253036275E+04  0.23502809178E+04  0.00000000000E+00 0.  1.
          4    1    6    6  502    0  0.10339967079E+01  0.10687142821E+02 -0.10045446855E+02  0.14703576891E+02  0.00000000000E+00 0. -1.
          3    1    5    5  503    0 -0.22474581795E+02  0.15118231233E+02 -0.22620213910E+01  0.27180590193E+02  0.00000000000E+00 0. -1.
         -4    1    5    5    0  503 -0.53441142644E+03 -0.36407320139E+02 -0.68642133676E+02  0.54003037709E+03  0.00000000000E+00 0.  1.
         -3    1    6    6    0  502 -0.30870214034E+03  0.92427341486E+03 -0.17878486927E+03  0.99072821013E+03  0.00000000000E+00 0.  1.
<mgrwt>
<rscale>  0 0.35766634E+04</rscale>
<asrwt>0</asrwt>
<pdfrwt beam="1">  1        2 0.16784015E+00 0.35766634E+04</pdfrwt>
<pdfrwt beam="2">  1       -2 0.45099693E+00 0.35766634E+04</pdfrwt>
<totfact> 0.61547741E-02</totfact>
</mgrwt>
</event>
<event>
12    1  0.1442183E-007  0.3466401E+04  0.7818608E-02  0.8121799E-01
          2   -1    0    0  501    0  0.00000000000E+00  0.00000000000E+00  0.10679179569E+04  0.10679179569E+04  0.00000000000E+00 0. -1.
         -2   -1    0    0    0  501 -0.00000000000E+00 -0.00000000000E+00 -0.28129347469E+04  0.28129347469E+04  0.00000000000E+00 0.  1.
         23    2    1    2    0    0  0.62596201010E+03  0.48423237867E+03 -0.23898592697E+04  0.25192427388E+04  0.94059628650E+02 0.  0.
        254    2    1    2    0    0 -0.62596201010E+03 -0.48423237867E+03  0.64484247956E+03  0.13616099650E+04  0.90102743500E+03 0.  0.
        -24    2    4    4    0    0  0.19276490711E+03 -0.28522834134E+03  0.21606893029E+03  0.41315113236E+03  0.74125295386E+02 0.  0.
         24    2    4    4    0    0 -0.81872691722E+03 -0.19900403733E+03  0.42877354927E+03  0.94845883261E+03  0.76230104028E+02 0.  0.
         13    1    3    3    0    0  0.21006579468E+03  0.20045249627E+03 -0.98389943002E+03  0.10258493699E+04  0.00000000000E+00 0.  1.
        -13    1    3    3    0    0  0.41589621542E+03  0.28377988240E+03 -0.14059598396E+04  0.14933933689E+04  0.00000000000E+00 0. -1.
          4    1    6    6  502    0 -0.70844858476E+03 -0.15015864239E+03  0.38487138237E+03  0.82010547864E+03  0.00000000000E+00 0. -1.
          1    1    5    5  503    0  0.12919308745E+03 -0.14654166149E+03  0.89336872791E+02  0.21481710649E+03  0.00000000000E+00 0. -1.
         -2    1    5    5    0  503  0.63571819662E+02 -0.13868667984E+03  0.12673205750E+03  0.19833402587E+03  0.00000000000E+00 0.  1.
         -3    1    6    6    0  502 -0.11027833246E+03 -0.48845394949E+02  0.43902166892E+02  0.12835335397E+03  0.00000000000E+00 0.  1.
<mgrwt>
<rscale>  0 0.34664007E+04</rscale>
<asrwt>0</asrwt>
<pdfrwt beam="1">  1        2 0.16429507E+00 0.34664007E+04</pdfrwt>
<pdfrwt beam="2">  1       -2 0.43275919E+00 0.34664007E+04</pdfrwt>
<totfact> 0.84756059E-02</totfact>
</mgrwt>
</event>
<event>
12    1  0.1442183E-007  0.1537041E+04  0.7818608E-02  0.8860188E-01
         -1   -1    0    0    0  501 -0.00000000000E+00  0.00000000000E+00  0.45779345400E+03  0.45779345400E+03  0.00000000000E+00 0.  1.
          1   -1    0    0  501    0  0.00000000000E+00 -0.00000000000E+00 -0.12901541387E+04  0.12901541387E+04  0.00000000000E+00 0. -1.
         23    2    1    2    0    0 -0.39203598758E+03  0.51823028451E+02 -0.64323477552E+03  0.76223058717E+03  0.10424322394E+03 0.  0.
        254    2    1    2    0    0  0.39203598758E+03 -0.51823028451E+02 -0.18912590915E+03  0.98571700551E+03  0.88288819428E+03 0.  0.
        -24    2    4    4    0    0  0.39790333922E+03  0.36161593650E+03 -0.14726607445E+03  0.56289303549E+03  0.77898137480E+02 0.  0.
         24    2    4    4    0    0 -0.58673516396E+01 -0.41343896495E+03 -0.41859834699E+02  0.42282397002E+03  0.77856665120E+02 0.  0.
         13    1    3    3    0    0 -0.21684703793E+03  0.65493703254E+02 -0.29267904085E+03  0.37009874896E+03  0.00000000000E+00 0. -1.
        -13    1    3    3    0    0 -0.17518894965E+03 -0.13670674803E+02 -0.35055573467E+03  0.39213183821E+03  0.00000000000E+00 0.  1.
          4    1    6    6  502    0 -0.15046607543E+02 -0.38689220571E+03 -0.56273534497E+02  0.39125271874E+03  0.00000000000E+00 0. -1.
          1    1    5    5  503    0  0.34123979849E+03  0.31651524535E+03 -0.98948755133E+02  0.47583332875E+03  0.00000000000E+00 0. -1.
         -2    1    5    5    0  503  0.56663540735E+02  0.45100691152E+02 -0.48317319317E+02  0.87059706736E+02  0.00000000000E+00 0.  1.
         -3    1    6    6    0  502  0.91792559037E+01 -0.26546759241E+02  0.14413699798E+02  0.31571251274E+02  0.00000000000E+00 0.  1.
<mgrwt>
<rscale>  0 0.15370415E+04</rscale>
<asrwt>0</asrwt>
<pdfrwt beam="1">  1        1 0.19848525E+00 0.15370415E+04</pdfrwt>
<pdfrwt beam="2">  1       -1 0.70429764E-01 0.15370415E+04</pdfrwt>
<totfact> 0.18065673E+01</totfact>
</mgrwt>
</event>
<event>
12    1  0.1442183E-007  0.1659905E+04  0.7818608E-02  0.8784568E-01
          2   -1    0    0  501    0  0.00000000000E+00  0.00000000000E+00  0.38659467820E+04  0.38659467820E+04  0.00000000000E+00 0. -1.
         -2   -1    0    0    0  501 -0.00000000000E+00 -0.00000000000E+00 -0.17817655982E+03  0.17817655982E+03  0.00000000000E+00 0.  1.
         23    2    1    2    0    0  0.21229214581E+03 -0.76310224382E+01  0.25257335354E+04  0.25362433969E+04  0.89858157458E+02 0.  0.
        254    2    1    2    0    0 -0.21229214581E+03  0.76310224382E+01  0.11620366868E+04  0.15078799450E+04  0.93714805629E+03 0.  0.
        -24    2    4    4    0    0 -0.24948553217E+03  0.22376918343E+03  0.23113635863E+02  0.34515795586E+03  0.79272290955E+02 0.  0.
         24    2    4    4    0    0  0.37193386362E+02 -0.21613816099E+03  0.11389230509E+04  0.11627219891E+04  0.81716922851E+02 0.  0.
         13    1    3    3    0    0  0.19274595204E+03 -0.35625753665E+02  0.20878240595E+04  0.20970048878E+04  0.00000000000E+00 0. -1.
        -13    1    3    3    0    0  0.19546193767E+02  0.27994731227E+02  0.43790947598E+03  0.43923850903E+03  0.00000000000E+00 0.  1.
          2    1    6    6  502    0  0.33880470463E+02 -0.29375203426E+02  0.29379618974E+03  0.29719856992E+03  0.00000000000E+00 0. -1.
          3    1    5    5  503    0 -0.16184600837E+03  0.18879299716E+03  0.30371298932E+02  0.25051814704E+03  0.00000000000E+00 0. -1.
         -4    1    5    5    0  503 -0.87639523805E+02  0.34976186272E+02 -0.72576630692E+01  0.94639808813E+02  0.00000000000E+00 0.  1.
         -1    1    6    6    0  502  0.33129158993E+01 -0.18676295756E+03  0.84512686118E+03  0.86552341922E+03  0.00000000000E+00 0.  1.
<mgrwt>
<rscale>  0 0.16599049E+04</rscale>
<asrwt>0</asrwt>
<pdfrwt beam="1">  1        2 0.59476098E+00 0.16599049E+04</pdfrwt>
<pdfrwt beam="2">  1       -2 0.27411781E-01 0.16599049E+04</pdfrwt>
<totfact> 0.51390227E+00</totfact>
</mgrwt>
</event>
<event>
12    1  0.1442183E-007  0.3149839E+04  0.7818608E-02  0.8202191E-01
         -2   -1    0    0    0  501 -0.00000000000E+00  0.00000000000E+00  0.12348982024E+04  0.12348982024E+04  0.00000000000E+00 0.  1.
          2   -1    0    0  501    0  0.00000000000E+00 -0.00000000000E+00 -0.20085640469E+04  0.20085640469E+04  0.00000000000E+00 0. -1.
         23    2    1    2    0    0 -0.12021707439E+04 -0.19287112124E+02  0.47013554151E+03  0.12941351341E+04  0.90398162003E+02 0.  0.
        254    2    1    2    0    0  0.12021707439E+04  0.19287112124E+02 -0.12438013859E+04  0.19493271152E+04  0.89846971257E+03 0.  0.
        -24    2    4    4    0    0  0.58838622901E+03  0.37897533047E+03 -0.93233782699E+03  0.11684286967E+04  0.78429203646E+02 0.  0.
         24    2    4    4    0    0  0.61378451488E+03 -0.35968821834E+03 -0.31146355895E+03  0.78089841856E+03  0.81766413935E+02 0.  0.
         13    1    3    3    0    0 -0.10433070204E+04 -0.35420027650E+02  0.38101561388E+03  0.11112682013E+04  0.00000000000E+00 0.  1.
        -13    1    3    3    0    0 -0.15886372345E+03  0.16132915526E+02  0.89119927630E+02  0.18286693275E+03  0.00000000000E+00 0. -1.
          2    1    6    6  502    0  0.19632617730E+03 -0.76352284034E+02 -0.73910666767E+02  0.22324073516E+03  0.00000000000E+00 0. -1.
          3    1    5    5  503    0  0.45935707848E+03  0.31119442199E+03 -0.68713269766E+03  0.88317735366E+03  0.00000000000E+00 0. -1.
         -4    1    5    5    0  503  0.12902915053E+03  0.67780908476E+02 -0.24520512933E+03  0.28525134301E+03  0.00000000000E+00 0.  1.
         -1    1    6    6    0  502  0.41745833757E+03 -0.28333593431E+03 -0.23755289218E+03  0.55765768341E+03  0.00000000000E+00 0.  1.
<mgrwt>
<rscale>  0 0.31498394E+04</rscale>
<asrwt>0</asrwt>
<pdfrwt beam="1">  1        2 0.30900985E+00 0.31498394E+04</pdfrwt>
<pdfrwt beam="2">  1       -2 0.18998434E+00 0.31498394E+04</pdfrwt>
<totfact> 0.86635773E-01</totfact>
</mgrwt>
</event>
<event>
12    1  0.1442183E-007  0.1776328E+04  0.7818608E-02  0.8718990E-01
          2   -1    0    0  501    0  0.00000000000E+00  0.00000000000E+00  0.10584027416E+04  0.10584027416E+04  0.00000000000E+00 0. -1.
         -2   -1    0    0    0  501 -0.00000000000E+00 -0.00000000000E+00 -0.74530726816E+03  0.74530726816E+03  0.00000000000E+00 0.  1.
         23    2    1    2    0    0 -0.17042678875E+03 -0.26664846830E+03  0.69869714897E+03  0.77317594041E+03  0.97347998890E+02 0.  0.
        254    2    1    2    0    0  0.17042678875E+03  0.26664846830E+03 -0.38560167552E+03  0.10305340694E+04  0.90175668558E+03 0.  0.
        -24    2    4    4    0    0 -0.16846199745E+03  0.45570668789E+03 -0.39890530553E+03  0.63384384956E+03  0.81145257833E+02 0.  0.
         24    2    4    4    0    0  0.33888878620E+03 -0.18905821959E+03  0.13303630011E+02  0.39669021981E+03  0.81225144575E+02 0.  0.
         13    1    3    3    0    0 -0.15080919576E+03 -0.24788172324E+03  0.54821850449E+03  0.62026791865E+03  0.00000000000E+00 0. -1.
        -13    1    3    3    0    0 -0.19617592986E+02 -0.18766745054E+02  0.15047864447E+03  0.15290802176E+03  0.00000000000E+00 0.  1.
          4    1    6    6  502    0  0.23490955970E+03 -0.15953130885E+03  0.36032532309E+02  0.28623606189E+03  0.00000000000E+00 0. -1.
          1    1    5    5  503    0 -0.57488256585E+02  0.27091460402E+03 -0.21874522299E+03  0.35291513838E+03  0.00000000000E+00 0. -1.
         -2    1    5    5    0  503 -0.11097374087E+03  0.18479208386E+03 -0.18016008255E+03  0.28092871118E+03  0.00000000000E+00 0.  1.
         -3    1    6    6    0  502  0.10397922650E+03 -0.29526910746E+02 -0.22728902299E+02  0.11045415792E+03  0.00000000000E+00 0.  1.
<mgrwt>
<rscale>  0 0.17763280E+04</rscale>
<asrwt>0</asrwt>
<pdfrwt beam="1">  1        2 0.16283119E+00 0.17763280E+04</pdfrwt>
<pdfrwt beam="2">  1       -2 0.11466266E+00 0.17763280E+04</pdfrwt>
<totfact> 0.12991924E+01</totfact>
</mgrwt>
</event>
<event>
12    1  0.1442183E-007  0.1588144E+04  0.7818608E-02  0.8827865E-01
         -1   -1    0    0    0  501 -0.00000000000E+00  0.00000000000E+00  0.13010017974E+04  0.13010017974E+04  0.00000000000E+00 0.  1.
          1   -1    0    0  501    0  0.00000000000E+00 -0.00000000000E+00 -0.48466550180E+03  0.48466550180E+03  0.00000000000E+00 0. -1.
         23    2    1    2    0    0 -0.18861677036E+03 -0.49618548425E+03  0.23785907960E+03  0.58947617146E+03  0.95545246514E+02 0.  0.
        254    2    1    2    0    0  0.18861677036E+03  0.49618548425E+03  0.57847721604E+03  0.11961911278E+04  0.90247493253E+03 0.  0.
        -24    2    4    4    0    0  0.78365960326E+02  0.65267099644E+01 -0.22159630167E+03  0.24831293939E+03  0.79815871072E+02 0.  0.
         24    2    4    4    0    0  0.11025081003E+03  0.48965877429E+03  0.80007351771E+03  0.94787818838E+03  0.80215147678E+02 0.  0.
         11    1    3    3    0    0 -0.10997343464E+03 -0.24714237796E+03  0.71389690913E+02  0.27976775954E+03  0.00000000000E+00 0. -1.
        -11    1    3    3    0    0 -0.78643335716E+02 -0.24904310629E+03  0.16646938869E+03  0.30970841192E+03  0.00000000000E+00 0.  1.
          2    1    6    6  502    0  0.99964464773E+02  0.28302364442E+03  0.44077881714E+03  0.53327407884E+03  0.00000000000E+00 0. -1.
          1    1    5    5  503    0  0.11510416293E+02 -0.16423914877E+01  0.44471666608E+01  0.12448470763E+02  0.00000000000E+00 0. -1.
         -2    1    5    5    0  503  0.66855544033E+02  0.81691014522E+01 -0.22604346833E+03  0.23586446863E+03  0.00000000000E+00 0.  1.
         -1    1    6    6    0  502  0.10286345260E+02  0.20663512986E+03  0.35929470057E+03  0.41460410954E+03  0.00000000000E+00 0.  1.
<mgrwt>
<rscale>  0 0.15881444E+04</rscale>
<asrwt>0</asrwt>
<pdfrwt beam="1">  1        1 0.74563924E-01 0.15881444E+04</pdfrwt>
<pdfrwt beam="2">  1       -1 0.20015412E+00 0.15881444E+04</pdfrwt>
<totfact> 0.66706546E+00</totfact>
</mgrwt>
</event>
<event>
12    1  0.1442183E-007  0.1775936E+04  0.7818608E-02  0.8719202E-01
         -2   -1    0    0    0  501 -0.00000000000E+00  0.00000000000E+00  0.26938487959E+03  0.26938487959E+03  0.00000000000E+00 0.  1.
          2   -1    0    0  501    0  0.00000000000E+00 -0.00000000000E+00 -0.29269920255E+04  0.29269920255E+04  0.00000000000E+00 0. -1.
         23    2    1    2    0    0 -0.23460002357E+03 -0.45086395390E+03 -0.17369931172E+04  0.18120943928E+04  0.90694671004E+02 0.  0.
        254    2    1    2    0    0  0.23460002357E+03  0.45086395390E+03 -0.92061402877E+03  0.13842825123E+04  0.90021797802E+03 0.  0.
        -24    2    4    4    0    0  0.21071806046E+03  0.70019716928E+03 -0.50788783069E+03  0.89378371012E+03  0.78873918672E+02 0.  0.
         24    2    4    4    0    0  0.23881963113E+02 -0.24933321538E+03 -0.41272619808E+03  0.49049880220E+03  0.86653101022E+02 0.  0.
         13    1    3    3    0    0  0.81739451714E+01 -0.16965457116E+02 -0.74649003342E+02  0.76987751070E+02  0.00000000000E+00 0.  1.
        -13    1    3    3    0    0 -0.24277396875E+03 -0.43389849678E+03 -0.16623441138E+04  0.17351066417E+04  0.00000000000E+00 0. -1.
          2    1    6    6  502    0 -0.17927176263E+02 -0.27994353601E+02 -0.23217385113E+02  0.40547681238E+02  0.00000000000E+00 0. -1.
          3    1    5    5  503    0  0.75165972297E+02  0.13794091480E+03 -0.10935715419E+03  0.19140691351E+03  0.00000000000E+00 0. -1.
         -2    1    5    5    0  503  0.13555208816E+03  0.56225625449E+03 -0.39853067649E+03  0.70237679661E+03  0.00000000000E+00 0.  1.
         -3    1    6    6    0  502  0.41809139377E+02 -0.22133886178E+03 -0.38950881297E+03  0.44995112096E+03  0.00000000000E+00 0.  1.
<mgrwt>
<rscale>  0 0.17759363E+04</rscale>
<asrwt>0</asrwt>
<pdfrwt beam="1">  1        2 0.45030645E+00 0.17759363E+04</pdfrwt>
<pdfrwt beam="2">  1       -2 0.41443829E-01 0.17759363E+04</pdfrwt>
<totfact> 0.10123420E+01</totfact>
</mgrwt>
</event>
<event>
12    1  0.1442183E-007  0.2478329E+04  0.7818608E-02  0.8410747E-01
          1   -1    0    0  501    0  0.00000000000E+00  0.00000000000E+00  0.28758939740E+04  0.28758939740E+04  0.00000000000E+00 0. -1.
         -1   -1    0    0    0  501 -0.00000000000E+00 -0.00000000000E+00 -0.53393089904E+03  0.53393089904E+03  0.00000000000E+00 0.  1.
         23    2    1    2    0    0 -0.54740557630E+03 -0.85422038069E+03  0.55757179436E+03  0.11608805457E+04  0.86093040873E+02 0.  0.
        254    2    1    2    0    0  0.54740557630E+03  0.85422038069E+03  0.17843912806E+04  0.22489443273E+04  0.91888683828E+03 0.  0.
        -24    2    4    4    0    0 -0.28482501455E+01  0.11461573610E+03  0.10717501874E+04  0.10810236240E+04  0.82575613188E+02 0.  0.
         24    2    4    4    0    0  0.55025382644E+03  0.73960464459E+03  0.71264109312E+03  0.11679207033E+04  0.79919571066E+02 0.  0.
         13    1    3    3    0    0 -0.17285336762E+03 -0.28673722795E+03  0.22957982693E+03  0.40595987675E+03  0.00000000000E+00 0.  1.
        -13    1    3    3    0    0 -0.37455220868E+03 -0.56748315273E+03  0.32799196743E+03  0.75492066892E+03  0.00000000000E+00 0. -1.
          2    1    6    6  502    0  0.83644941954E+02  0.89202387827E+02  0.12535112826E+03  0.17511838186E+03  0.00000000000E+00 0. -1.
          1    1    5    5  503    0 -0.39507143035E+02  0.67781853443E+02  0.72230162167E+03  0.72654994782E+03  0.00000000000E+00 0. -1.
         -2    1    5    5    0  503  0.36658892889E+02  0.46833882652E+02  0.34944856577E+03  0.35447367619E+03  0.00000000000E+00 0.  1.
         -1    1    6    6    0  502  0.46660888449E+03  0.65040225677E+03  0.58728996486E+03  0.99280232147E+03  0.00000000000E+00 0.  1.
<mgrwt>
<rscale>  0 0.24783290E+04</rscale>
<asrwt>0</asrwt>
<pdfrwt beam="1">  1        1 0.44244522E+00 0.24783290E+04</pdfrwt>
<pdfrwt beam="2">  1       -1 0.82143217E-01 0.24783290E+04</pdfrwt>
<totfact> 0.96463779E-01</totfact>
</mgrwt>
</event>
<event>
12    1  0.1696963E-007  0.1708197E+04  0.7818608E-02  0.8756703E-01
          1   -1    0    0  501    0  0.00000000000E+00  0.00000000000E+00  0.12260603434E+04  0.12260603434E+04  0.00000000000E+00 0. -1.
         -1   -1    0    0    0  501 -0.00000000000E+00 -0.00000000000E+00 -0.59498264766E+03  0.59498264766E+03  0.00000000000E+00 0.  1.
         23    2    1    2    0    0 -0.10732181061E+03 -0.53940622740E+02  0.86850303929E+03  0.88305378265E+03  0.10516126655E+03 0.  0.
        254    2    1    2    0    0  0.10732181061E+03  0.53940622740E+02 -0.23742534351E+03  0.93798920845E+03  0.89945839237E+03 0.  0.
        -24    2    4    4    0    0  0.40645229814E+03  0.30643492311E+02  0.15031347738E+03  0.44157662292E+03  0.79077671550E+02 0.  0.
         24    2    4    4    0    0 -0.29913048753E+03  0.23297130430E+02 -0.38773882088E+03  0.49641258553E+03  0.77860497033E+02 0.  0.
         11    1    3    3    0    0 -0.52272616726E+02  0.21611656868E+02  0.19315763624E+03  0.20126937822E+03  0.00000000000E+00 0.  1.
        -11    1    3    3    0    0 -0.55049193885E+02 -0.75552279609E+02  0.67534540305E+03  0.68178440442E+03  0.00000000000E+00 0. -1.
          2    1    6    6  502    0 -0.27384119000E+03  0.21445789842E+02 -0.38184954311E+03  0.47038068925E+03  0.00000000000E+00 0. -1.
          1    1    5    5  503    0  0.31723858921E+03 -0.77519936804E+01  0.10372040861E+03  0.33385376897E+03  0.00000000000E+00 0. -1.
         -2    1    5    5    0  503  0.89213708931E+02  0.38395485991E+02  0.46593068768E+02  0.10772285395E+03  0.00000000000E+00 0.  1.
         -1    1    6    6    0  502 -0.25289297532E+02  0.18513405873E+01 -0.58892777748E+01  0.26031896288E+02  0.00000000000E+00 0.  1.
<mgrwt>
<rscale>  0 0.17081974E+04</rscale>
<asrwt>0</asrwt>
<pdfrwt beam="1">  1        1 0.18862467E+00 0.17081974E+04</pdfrwt>
<pdfrwt beam="2">  1       -1 0.91535792E-01 0.17081974E+04</pdfrwt>
<totfact> 0.11317279E+01</totfact>
</mgrwt>
</event>
<event>
12    1  0.1442183E-007  0.2405942E+04  0.7818608E-02  0.8437282E-01
         -1   -1    0    0    0  501 -0.00000000000E+00  0.00000000000E+00  0.62184030024E+03  0.62184030024E+03  0.00000000000E+00 0.  1.
          1   -1    0    0  501    0  0.00000000000E+00 -0.00000000000E+00 -0.23271874604E+04  0.23271874604E+04  0.00000000000E+00 0. -1.
         23    2    1    2    0    0  0.90225631060E+03  0.48780831017E+03 -0.59557895603E+03  0.11895645454E+04  0.91247560383E+02 0.  0.
        254    2    1    2    0    0 -0.90225631060E+03 -0.48780831017E+03 -0.11097682041E+04  0.17594632152E+04  0.90116698865E+03 0.  0.
        -24    2    4    4    0    0 -0.10043059344E+04 -0.61375940800E+03 -0.10080839203E+04  0.15517059879E+04  0.78913001378E+02 0.  0.
         24    2    4    4    0    0  0.10204962375E+03  0.12595109783E+03 -0.10168428377E+03  0.20775722733E+03  0.80904679637E+02 0.  0.
         13    1    3    3    0    0  0.59015763845E+03  0.29611952870E+03 -0.33775376283E+03  0.74165383960E+03  0.00000000000E+00 0.  1.
        -13    1    3    3    0    0  0.31209867215E+03  0.19168878147E+03 -0.25782519320E+03  0.44791070578E+03  0.00000000000E+00 0. -1.
          2    1    6    6  502    0  0.45373583557E+02  0.52955501145E+02 -0.91116491879E+02  0.11473997681E+03  0.00000000000E+00 0. -1.
          3    1    5    5  503    0 -0.62204119973E+02 -0.21131920812E+02 -0.71236879637E+02  0.96905127002E+02  0.00000000000E+00 0. -1.
         -4    1    5    5    0  503 -0.94210181438E+03 -0.59262748718E+03 -0.93684704070E+03  0.14548008609E+04  0.00000000000E+00 0.  1.
         -1    1    6    6    0  502  0.56676040198E+02  0.72995596684E+02 -0.10567791893E+02  0.93017250514E+02  0.00000000000E+00 0.  1.
<mgrwt>
<rscale>  0 0.24059418E+04</rscale>
<asrwt>0</asrwt>
<pdfrwt beam="1">  1        1 0.35802884E+00 0.24059418E+04</pdfrwt>
<pdfrwt beam="2">  1       -1 0.95667738E-01 0.24059418E+04</pdfrwt>
<totfact> 0.16826982E+00</totfact>
</mgrwt>
</event>
<event>
12    1  0.1442183E-007  0.2023568E+04  0.7818608E-02  0.8595681E-01
         -2   -1    0    0    0  501 -0.00000000000E+00  0.00000000000E+00  0.78949287004E+03  0.78949287004E+03  0.00000000000E+00 0. -1.
          2   -1    0    0  501    0  0.00000000000E+00 -0.00000000000E+00 -0.12966634262E+04  0.12966634262E+04  0.00000000000E+00 0.  1.
         23    2    1    2    0    0  0.39761428475E+03 -0.57952974264E+03  0.21041699484E+03  0.73922111876E+03  0.90668123747E+02 0.  0.
        254    2    1    2    0    0 -0.39761428475E+03  0.57952974264E+03 -0.71758755102E+03  0.13469351775E+04  0.89741330333E+03 0.  0.
        -24    2    4    4    0    0 -0.54597087873E+03  0.27563430785E+03 -0.81510720239E+02  0.62205813327E+03  0.79081297188E+02 0.  0.
         24    2    4    4    0    0  0.14835659398E+03  0.30389543479E+03 -0.63607683078E+03  0.72487704424E+03  0.80565999989E+02 0.  0.
         11    1    3    3    0    0  0.31569232298E+03 -0.39111201477E+03  0.13594010925E+03  0.52068221036E+03  0.00000000000E+00 0. -1.
        -11    1    3    3    0    0  0.81921961764E+02 -0.18841772787E+03  0.74476885590E+02  0.21853890840E+03  0.00000000000E+00 0.  1.
          2    1    6    6  502    0  0.10351695157E+03  0.15168213376E+03 -0.40352301089E+03  0.44334416572E+03  0.00000000000E+00 0. -1.
          3    1    5    5  503    0 -0.50111877259E+03  0.26249010270E+03 -0.55118518193E+02  0.56838290729E+03  0.00000000000E+00 0. -1.
         -2    1    5    5    0  503 -0.44852106141E+02  0.13144205146E+02 -0.26392202046E+02  0.53675225971E+02  0.00000000000E+00 0.  1.
         -1    1    6    6    0  502  0.44839642406E+02  0.15221330103E+03 -0.23255381989E+03  0.28153287852E+03  0.00000000000E+00 0.  1.
<mgrwt>
<rscale>  0 0.20235677E+04</rscale>
<asrwt>0</asrwt>
<pdfrwt beam="1">  1        2 0.19948668E+00 0.20235677E+04</pdfrwt>
<pdfrwt beam="2">  1       -2 0.12146044E+00 0.20235677E+04</pdfrwt>
<totfact> 0.79352001E+00</totfact>
</mgrwt>
</event>
<event>
12    1  0.1442183E-007  0.1577160E+04  0.7818608E-02  0.8834704E-01
          2   -1    0    0  501    0  0.00000000000E+00  0.00000000000E+00  0.62831784382E+03  0.62831784382E+03  0.00000000000E+00 0.  1.
         -2   -1    0    0    0  501 -0.00000000000E+00 -0.00000000000E+00 -0.98971910785E+03  0.98971910785E+03  0.00000000000E+00 0. -1.
         23    2    1    2    0    0  0.48005091039E+03  0.89844146594E+02  0.79092295511E+02  0.50341617741E+03  0.93012951905E+02 0.  0.
        254    2    1    2    0    0 -0.48005091039E+03 -0.89844146594E+02 -0.44049355955E+03  0.11146207743E+04  0.89990224312E+03 0.  0.
        -24    2    4    4    0    0 -0.11353625444E+03 -0.46094204090E+03 -0.11180243055E+03  0.49319103625E+03  0.73345542589E+02 0.  0.
         24    2    4    4    0    0 -0.36651465595E+03  0.37109789431E+03 -0.32869112900E+03  0.62142973801E+03  0.78041148274E+02 0.  0.
         13    1    3    3    0    0  0.60963193610E+02 -0.11500069434E+02  0.31653776734E+02  0.69647140312E+02  0.00000000000E+00 0. -1.
        -13    1    3    3    0    0  0.41908771678E+03  0.10134421603E+03  0.47438518777E+02  0.43376903710E+03  0.00000000000E+00 0.  1.
          4    1    6    6  502    0 -0.81341759745E+02  0.12256324734E+03 -0.11694678945E+03  0.18792227926E+03  0.00000000000E+00 0. -1.
          3    1    5    5  503    0 -0.11890717239E+03 -0.36016541162E+03 -0.83337359315E+02  0.38833381881E+03  0.00000000000E+00 0. -1.
         -4    1    5    5    0  503  0.53709179502E+01 -0.10077662928E+03 -0.28465071234E+02  0.10485721744E+03  0.00000000000E+00 0.  1.
         -3    1    6    6    0  502 -0.28517289620E+03  0.24853464696E+03 -0.21174433955E+03  0.43350745876E+03  0.00000000000E+00 0.  1.
<mgrwt>
<rscale>  0 0.15771597E+04</rscale>
<asrwt>0</asrwt>
<pdfrwt beam="1">  1        2 0.96664284E-01 0.15771597E+04</pdfrwt>
<pdfrwt beam="2">  1       -2 0.15226448E+00 0.15771597E+04</pdfrwt>
<totfact> 0.12957360E+01</totfact>
</mgrwt>
</event>
<event>
12    1  0.1442183E-007  0.1571013E+04  0.7818608E-02  0.8838556E-01
          1   -1    0    0  501    0  0.00000000000E+00  0.00000000000E+00  0.46054572642E+03  0.46054572642E+03  0.00000000000E+00 0. -1.
         -1   -1    0    0    0  501 -0.00000000000E+00 -0.00000000000E+00 -0.13397593624E+04  0.13397593624E+04  0.00000000000E+00 0.  1.
         23    2    1    2    0    0 -0.40300368557E+03 -0.29579818946E+03 -0.47143749449E+03  0.69337998559E+03  0.92811387962E+02 0.  0.
        254    2    1    2    0    0  0.40300368557E+03  0.29579818946E+03 -0.40777614149E+03  0.11069251032E+04  0.89949611623E+03 0.  0.
        -24    2    4    4    0    0  0.66539824115E+03  0.25666513276E+03 -0.16043180230E+03  0.73547448952E+03  0.80947834043E+02 0.  0.
         24    2    4    4    0    0 -0.26239455558E+03  0.39133056694E+02 -0.24734433919E+03  0.37145061371E+03  0.80087685534E+02 0.  0.
         13    1    3    3    0    0 -0.66499709402E+02 -0.66828703084E+02 -0.13847830112E+03  0.16752470501E+03  0.00000000000E+00 0.  1.
        -13    1    3    3    0    0 -0.33650397617E+03 -0.22896948637E+03 -0.33295919337E+03  0.52585528058E+03  0.00000000000E+00 0. -1.
          2    1    6    6  502    0 -0.13927747974E+03  0.60834850008E+02 -0.14119834392E+03  0.20745136216E+03  0.00000000000E+00 0. -1.
          3    1    5    5  503    0  0.34304152660E+03  0.90046054220E+02 -0.88586140878E+02  0.36555886695E+03  0.00000000000E+00 0. -1.
         -4    1    5    5    0  503  0.32235671455E+03  0.16661907854E+03 -0.71845661426E+02  0.36991562256E+03  0.00000000000E+00 0.  1.
         -1    1    6    6    0  502 -0.12311707584E+03 -0.21701793315E+02 -0.10614599527E+03  0.16399925155E+03  0.00000000000E+00 0.  1.
<mgrwt>
<rscale>  0 0.15710130E+04</rscale>
<asrwt>0</asrwt>
<pdfrwt beam="1">  1        1 0.70853188E-01 0.15710130E+04</pdfrwt>
<pdfrwt beam="2">  1       -1 0.20611683E+00 0.15710130E+04</pdfrwt>
<totfact> 0.65190744E+00</totfact>
</mgrwt>
</event>
<event>
12    1  0.1442183E-007  0.1331541E+04  0.7818608E-02  0.9004920E-01
          2   -1    0    0  501    0  0.00000000000E+00  0.00000000000E+00  0.87888237272E+03  0.87888237272E+03  0.00000000000E+00 0. -1.
         -2   -1    0    0    0  501 -0.00000000000E+00 -0.00000000000E+00 -0.50433440343E+03  0.50433440343E+03  0.00000000000E+00 0.  1.
         23    2    1    2    0    0 -0.80329883965E+02 -0.33662214556E+03  0.16773033760E+02  0.35829991917E+03  0.91269591179E+02 0.  0.
        254    2    1    2    0    0  0.80329883965E+02  0.33662214556E+03  0.35777493553E+03  0.10249168570E+04  0.89592650373E+03 0.  0.
        -24    2    4    4    0    0  0.76218297138E+02  0.57907461169E+03  0.49784188615E+01  0.58944956629E+03  0.79305559900E+02 0.  0.
         24    2    4    4    0    0  0.41115868269E+01 -0.24245246612E+03  0.35279651666E+03  0.43546729068E+03  0.79788944151E+02 0.  0.
         13    1    3    3    0    0 -0.56315898656E+01 -0.81067255375E+02  0.40873802484E+02  0.90963082775E+02  0.00000000000E+00 0.  1.
        -13    1    3    3    0    0 -0.74698294099E+02 -0.25555489019E+03 -0.24100768723E+02  0.26733683639E+03  0.00000000000E+00 0. -1.
          4    1    6    6  502    0  0.36485208872E+02 -0.99342603435E+02  0.17973422062E+03  0.20857735588E+03  0.00000000000E+00 0. -1.
          1    1    5    5  503    0 -0.10383855079E+02  0.16416024559E+03  0.17441331557E+02  0.16541043112E+03  0.00000000000E+00 0. -1.
         -2    1    5    5    0  503  0.86602152217E+02  0.41491436610E+03 -0.12462912695E+02  0.42403913517E+03  0.00000000000E+00 0.  1.
         -3    1    6    6    0  502 -0.32373622045E+02 -0.14310986269E+03  0.17306229604E+03  0.22688993480E+03  0.00000000000E+00 0.  1.
<mgrwt>
<rscale>  0 0.13315414E+04</rscale>
<asrwt>0</asrwt>
<pdfrwt beam="1">  1        2 0.13521267E+00 0.13315414E+04</pdfrwt>
<pdfrwt beam="2">  1       -2 0.77589908E-01 0.13315414E+04</pdfrwt>
<totfact> 0.43904367E+01</totfact>
</mgrwt>
</event>
<event>
12    1  0.1442183E-007  0.3101756E+04  0.7818608E-02  0.8215256E-01
          1   -1    0    0  501    0  0.00000000000E+00  0.00000000000E+00  0.14158967547E+04  0.14158967547E+04  0.00000000000E+00 0. -1.
         -1   -1    0    0    0  501 -0.00000000000E+00 -0.00000000000E+00 -0.16987271187E+04  0.16987271187E+04  0.00000000000E+00 0.  1.
         23    2    1    2    0    0 -0.11012087141E+04  0.20126086785E+03  0.74564450852E+03  0.13480021838E+04  0.89205300184E+02 0.  0.
        254    2    1    2    0    0  0.11012087141E+04 -0.20126086785E+03 -0.10284748725E+04  0.17666216896E+04  0.90001392311E+03 0.  0.
        -24    2    4    4    0    0  0.48504094077E+03 -0.23548663118E+03 -0.10056653347E+04  0.11437313701E+04  0.77717525156E+02 0.  0.
         24    2    4    4    0    0  0.61616777334E+03  0.34225763332E+02 -0.22809537807E+02  0.62289031954E+03  0.81473599299E+02 0.  0.
         11    1    3    3    0    0 -0.46359145525E+03  0.52160159245E+02  0.27425198658E+03  0.54115789908E+03  0.00000000000E+00 0.  1.
        -11    1    3    3    0    0 -0.63761725885E+03  0.14910070860E+03  0.47139252194E+03  0.80684428475E+03  0.00000000000E+00 0. -1.
          2    1    6    6  502    0  0.61623913643E+03  0.33351473921E+02 -0.17375084965E+02  0.61738552596E+03  0.00000000000E+00 0. -1.
          1    1    5    5  503    0  0.35055617954E+03 -0.14012360314E+03 -0.74730418349E+03  0.83725014293E+03  0.00000000000E+00 0. -1.
         -2    1    5    5    0  503  0.13448476122E+03 -0.95363028041E+02 -0.25836115123E+03  0.30648122713E+03  0.00000000000E+00 0.  1.
         -1    1    6    6    0  502 -0.71363094744E-01  0.87428941043E+00 -0.54344528425E+01  0.55047935803E+01  0.00000000000E+00 0.  1.
<mgrwt>
<rscale>  0 0.31017558E+04</rscale>
<asrwt>0</asrwt>
<pdfrwt beam="1">  1        1 0.21783027E+00 0.31017558E+04</pdfrwt>
<pdfrwt beam="2">  1       -1 0.26134263E+00 0.31017558E+04</pdfrwt>
<totfact> 0.37150496E-01</totfact>
</mgrwt>
</event>
<event>
12    1  0.1442183E-007  0.3371769E+04  0.7818608E-02  0.8144870E-01
          2   -1    0    0  501    0  0.00000000000E+00  0.00000000000E+00  0.10235640338E+04  0.10235640338E+04  0.00000000000E+00 0. -1.
         -2   -1    0    0    0  501 -0.00000000000E+00 -0.00000000000E+00 -0.27767751624E+04  0.27767751624E+04  0.00000000000E+00 0.  1.
         23    2    1    2    0    0 -0.16289177539E+02  0.28067228793E+03  0.91918957159E+03  0.96562211904E+03  0.92056166239E+02 0.  0.
        254    2    1    2    0    0  0.16289177539E+02 -0.28067228793E+03 -0.26724007002E+04  0.28347170772E+04  0.90269215967E+03 0.  0.
        -24    2    4    4    0    0  0.16239870297E+03 -0.15414806568E+03 -0.26063930036E+04  0.26171872291E+04  0.79054019108E+02 0.  0.
         24    2    4    4    0    0 -0.14610952544E+03 -0.12652422225E+03 -0.66007696555E+02  0.21752984814E+03  0.74872201688E+02 0.  0.
         11    1    3    3    0    0 -0.30986331375E+02  0.17760848787E+03  0.44492725223E+03  0.48006789881E+03  0.00000000000E+00 0. -1.
        -11    1    3    3    0    0  0.14697153836E+02  0.10306380006E+03  0.47426231936E+03  0.48555422023E+03  0.00000000000E+00 0.  1.
          2    1    6    6  502    0 -0.13689529191E+03 -0.78109843098E+02 -0.55819883882E+02  0.16720444962E+03  0.00000000000E+00 0. -1.
          3    1    5    5  503    0  0.37062403205E+02 -0.20374974134E+02 -0.23947604381E+03  0.24318210637E+03  0.00000000000E+00 0. -1.
         -4    1    5    5    0  503  0.12533629977E+03 -0.13377309154E+03 -0.23669169598E+04  0.23740051227E+04  0.00000000000E+00 0.  1.
         -1    1    6    6    0  502 -0.92142335221E+01 -0.48414379157E+02 -0.10187812672E+02  0.50325398514E+02  0.00000000000E+00 0.  1.
<mgrwt>
<rscale>  0 0.33717694E+04</rscale>
<asrwt>0</asrwt>
<pdfrwt beam="1">  1        2 0.15747140E+00 0.33717694E+04</pdfrwt>
<pdfrwt beam="2">  1       -2 0.42719616E+00 0.33717694E+04</pdfrwt>
<totfact> 0.99156633E-02</totfact>
</mgrwt>
</event>
<event>
12    1  0.1442183E-007  0.1315054E+04  0.7818608E-02  0.9017711E-01
         -2   -1    0    0    0  501 -0.00000000000E+00  0.00000000000E+00  0.17848002270E+04  0.17848002270E+04  0.00000000000E+00 0.  1.
          2   -1    0    0  501    0  0.00000000000E+00 -0.00000000000E+00 -0.24223548511E+03  0.24223548511E+03  0.00000000000E+00 0. -1.
         23    2    1    2    0    0 -0.29756048829E+03  0.13637308137E+03  0.28899105363E+03  0.44562434853E+03  0.89024543894E+02 0.  0.
        254    2    1    2    0    0  0.29756048829E+03 -0.13637308137E+03  0.12535736882E+04  0.15814113635E+04  0.90679382852E+03 0.  0.
        -24    2    4    4    0    0  0.42093109094E+01  0.27440215918E+02  0.12322597104E+04  0.12351521521E+04  0.79788227473E+02 0.  0.
         24    2    4    4    0    0  0.29335117738E+03 -0.16381329729E+03  0.21313977807E+02  0.34625921142E+03  0.80941004491E+02 0.  0.
         13    1    3    3    0    0 -0.26366424144E+03  0.97380572695E+02  0.20843784096E+03  0.34992590887E+03  0.00000000000E+00 0.  1.
        -13    1    3    3    0    0 -0.33896246845E+02  0.38992508674E+02  0.80553212667E+02  0.95698439663E+02  0.00000000000E+00 0. -1.
          4    1    6    6  502    0  0.26775038610E+03 -0.15490269871E+03  0.41989552425E+02  0.31216700312E+03  0.00000000000E+00 0. -1.
          3    1    5    5  503    0  0.17375463513E+01  0.26883972870E+02  0.12323233377E+04  0.12326177735E+04  0.00000000000E+00 0. -1.
         -4    1    5    5    0  503  0.24717645581E+01  0.55624304813E+00 -0.63627267872E-01  0.25343785804E+01  0.00000000000E+00 0.  1.
         -3    1    6    6    0  502  0.25600791274E+02 -0.89105985721E+01 -0.20675574617E+02  0.34092208297E+02  0.00000000000E+00 0.  1.
<mgrwt>
<rscale>  0 0.13150543E+04</rscale>
<asrwt>0</asrwt>
<pdfrwt beam="1">  1        2 0.37266999E-01 0.13150543E+04</pdfrwt>
<pdfrwt beam="2">  1       -2 0.27458464E+00 0.13150543E+04</pdfrwt>
<totfact> 0.62271445E+00</totfact>
</mgrwt>
</event>
<event>
12    1  0.1442183E-007  0.1112980E+04  0.7818608E-02  0.9192632E-01
         -2   -1    0    0    0  501 -0.00000000000E+00  0.00000000000E+00  0.25964609698E+03  0.25964609698E+03  0.00000000000E+00 0. -1.
          2   -1    0    0  501    0  0.00000000000E+00 -0.00000000000E+00 -0.11927057496E+04  0.11927057496E+04  0.00000000000E+00 0.  1.
         23    2    1    2    0    0  0.12003415688E+03  0.12224918673E+03 -0.98194065570E+02  0.21722853928E+03  0.90515751603E+02 0.  0.
        254    2    1    2    0    0 -0.12003415688E+03 -0.12224918673E+03 -0.83486558704E+03  0.12351233073E+04  0.89396642739E+03 0.  0.
        -24    2    4    4    0    0 -0.28199926270E+03 -0.16054550630E+03  0.43957693254E+02  0.33706926718E+03  0.79905996836E+02 0.  0.
         24    2    4    4    0    0  0.16196510581E+03  0.38296319565E+02 -0.87882328030E+03  0.89805404010E+03  0.80444995877E+02 0.  0.
         11    1    3    3    0    0  0.55775548405E+02  0.29034807584E+02  0.62549086587E+01  0.63190630109E+02  0.00000000000E+00 0. -1.
        -11    1    3    3    0    0  0.64258608479E+02  0.93214379147E+02 -0.10444897423E+03  0.15403790917E+03  0.00000000000E+00 0.  1.
          4    1    6    6  502    0  0.98581235876E+02  0.44735046150E+02 -0.37805785514E+03  0.39325211538E+03  0.00000000000E+00 0. -1.
          1    1    5    5  503    0  0.27228293896E+01  0.34097387060E+00  0.75281391243E+01  0.80126738197E+01  0.00000000000E+00 0. -1.
         -2    1    5    5    0  503 -0.28472209209E+03 -0.16088648017E+03  0.36429554129E+02  0.32905659336E+03  0.00000000000E+00 0.  1.
         -3    1    6    6    0  502  0.63383869936E+02 -0.64387265849E+01 -0.50076542516E+03  0.50480192472E+03  0.00000000000E+00 0.  1.
<mgrwt>
<rscale>  0 0.11129805E+04</rscale>
<asrwt>0</asrwt>
<pdfrwt beam="1">  1        2 0.18349319E+00 0.11129805E+04</pdfrwt>
<pdfrwt beam="2">  1       -2 0.39945553E-01 0.11129805E+04</pdfrwt>
<totfact> 0.11247311E+02</totfact>
</mgrwt>
</event>
<event>
12    1  0.1442183E-007  0.1098283E+04  0.7818608E-02  0.9206867E-01
          1   -1    0    0  501    0  0.00000000000E+00  0.00000000000E+00  0.12809734446E+04  0.12809734446E+04  0.00000000000E+00 0. -1.
         -1   -1    0    0    0  501 -0.00000000000E+00 -0.00000000000E+00 -0.23541201493E+03  0.23541201493E+03  0.00000000000E+00 0.  1.
         23    2    1    2    0    0 -0.65320585915E+01  0.36101470700E+02  0.33665758627E+03  0.35128981835E+03  0.93382129470E+02 0.  0.
        254    2    1    2    0    0  0.65320585915E+01 -0.36101470700E+02  0.70890384344E+03  0.11650956412E+04  0.92388159955E+03 0.  0.
        -24    2    4    4    0    0  0.29760284550E+03  0.32161053449E+03  0.25421222436E+03  0.51268003923E+03  0.78842742653E+02 0.  0.
         24    2    4    4    0    0 -0.29107078691E+03 -0.35771200518E+03  0.45469161908E+03  0.65241560200E+03  0.78876914373E+02 0.  0.
         13    1    3    3    0    0  0.71916804995E+01  0.11918911830E+02  0.44314289761E+00  0.13927566308E+02  0.00000000000E+00 0.  1.
        -13    1    3    3    0    0 -0.13723739091E+02  0.24182558869E+02  0.33621444337E+03  0.33736225204E+03  0.00000000000E+00 0. -1.
          2    1    6    6  502    0 -0.55556847560E+02 -0.11918809848E+03  0.14933643115E+03  0.19898174740E+03  0.00000000000E+00 0. -1.
          3    1    5    5  503    0  0.80037850859E+02  0.86426814631E+02  0.11060538314E+03  0.16158342315E+03  0.00000000000E+00 0. -1.
         -4    1    5    5    0  503  0.21756499464E+03  0.23518371985E+03  0.14360684122E+03  0.35109661608E+03  0.00000000000E+00 0.  1.
         -1    1    6    6    0  502 -0.23551393935E+03 -0.23852390670E+03  0.30535518794E+03  0.45343385460E+03  0.00000000000E+00 0.  1.
<mgrwt>
<rscale>  0 0.10982833E+04</rscale>
<asrwt>0</asrwt>
<pdfrwt beam="1">  1        1 0.19707283E+00 0.10982833E+04</pdfrwt>
<pdfrwt beam="2">  1       -1 0.36217234E-01 0.10982833E+04</pdfrwt>
<totfact> 0.67830448E+01</totfact>
</mgrwt>
</event>
<event>
12    1  0.1467584E-007  0.1387710E+04  0.7818608E-02  0.8962763E-01
         -1   -1    0    0    0  501 -0.00000000000E+00  0.00000000000E+00  0.37769526279E+03  0.37769526279E+03  0.00000000000E+00 0.  1.
          1   -1    0    0  501    0  0.00000000000E+00 -0.00000000000E+00 -0.12746650003E+04  0.12746650003E+04  0.00000000000E+00 0. -1.
         23    2    1    2    0    0 -0.32343603147E+02 -0.21463460784E+03  0.12677436747E+03  0.26790666693E+03  0.92672101456E+02 0.  0.
        254    2    1    2    0    0  0.32343603147E+02  0.21463460784E+03 -0.10237441049E+04  0.13844535961E+04  0.90639155111E+03 0.  0.
        -24    2    4    4    0    0  0.30280916726E+03 -0.24059561917E+03 -0.47359164002E+03  0.61664275638E+03  0.79872421828E+02 0.  0.
         24    2    4    4    0    0 -0.27046556411E+03  0.45523022701E+03 -0.55015246493E+03  0.76781083976E+03  0.80495776489E+02 0.  0.
         11    1    3    3    0    0 -0.35702231462E+02 -0.21502189665E+03  0.13679150208E+03  0.25733437471E+03  0.00000000000E+00 0.  1.
        -11    1    3    3    0    0  0.33586283141E+01  0.38728880369E+00 -0.10017134612E+02  0.10572292211E+02  0.00000000000E+00 0. -1.
          4    1    6    6  502    0 -0.21363562762E+03  0.28866875598E+03 -0.35369477762E+03  0.50405339775E+03  0.00000000000E+00 0. -1.
          1    1    5    5  503    0  0.27457735188E+03 -0.18935613133E+03 -0.42715973596E+03  0.54195378646E+03  0.00000000000E+00 0. -1.
         -2    1    5    5    0  503  0.28231815381E+02 -0.51239487839E+02 -0.46431904062E+02  0.74688969926E+02  0.00000000000E+00 0.  1.
         -3    1    6    6    0  502 -0.56829936493E+02  0.16656147103E+03 -0.19645768732E+03  0.26375744202E+03  0.00000000000E+00 0.  1.
<mgrwt>
<rscale>  0 0.13877102E+04</rscale>
<asrwt>0</asrwt>
<pdfrwt beam="1">  1        1 0.19610231E+00 0.13877102E+04</pdfrwt>
<pdfrwt beam="2">  1       -1 0.58106964E-01 0.13877102E+04</pdfrwt>
<totfact> 0.27621769E+01</totfact>
</mgrwt>
</event>
<event>
12    1  0.1442183E-007  0.1195838E+04  0.7818608E-02  0.9116507E-01
          1   -1    0    0  501    0  0.00000000000E+00  0.00000000000E+00  0.71411668075E+03  0.71411668075E+03  0.00000000000E+00 0.  1.
         -1   -1    0    0    0  501 -0.00000000000E+00 -0.00000000000E+00 -0.50062858612E+03  0.50062858612E+03  0.00000000000E+00 0. -1.
         23    2    1    2    0    0 -0.72406243314E+02 -0.13014827278E+03  0.26285972784E+03  0.31566027107E+03  0.91460008931E+02 0.  0.
        254    2    1    2    0    0  0.72406243314E+02  0.13014827278E+03 -0.49371633214E+02  0.89908499579E+03  0.88528810820E+03 0.  0.
        -24    2    4    4    0    0  0.38408374041E+03  0.14910790851E+03  0.22478735030E+03  0.47607084991E+03  0.79753452911E+02 0.  0.
         24    2    4    4    0    0 -0.31167749710E+03 -0.18959635726E+02 -0.27415898352E+03  0.42301414588E+03  0.79217986509E+02 0.  0.
         11    1    3    3    0    0  0.14308534460E+02 -0.14065095363E+02  0.63312832488E+01  0.21039159050E+02  0.00000000000E+00 0. -1.
        -11    1    3    3    0    0 -0.86714777774E+02 -0.11608317742E+03  0.25652844459E+03  0.29462111202E+03  0.00000000000E+00 0.  1.
          4    1    6    6  502    0 -0.83055106885E+02 -0.32205523475E+02 -0.10843736112E+03  0.14033534056E+03  0.00000000000E+00 0. -1.
          3    1    5    5  503    0  0.26137350647E+02  0.22178346618E+02  0.43083452615E+02  0.55056553169E+02  0.00000000000E+00 0. -1.
         -4    1    5    5    0  503  0.35794638977E+03  0.12692956189E+03  0.18170389769E+03  0.42101429674E+03  0.00000000000E+00 0.  1.
         -3    1    6    6    0  502 -0.22862239022E+03  0.13245887749E+02 -0.16572162239E+03  0.28267880532E+03  0.00000000000E+00 0.  1.
<mgrwt>
<rscale>  0 0.11958382E+04</rscale>
<asrwt>0</asrwt>
<pdfrwt beam="1">  1        1 0.10986410E+00 0.11958382E+04</pdfrwt>
<pdfrwt beam="2">  1       -1 0.77019783E-01 0.11958382E+04</pdfrwt>
<totfact> 0.44251583E+01</totfact>
</mgrwt>
</event>
<event>
12    1  0.1442183E-007  0.1605516E+04  0.7818608E-02  0.8817166E-01
          2   -1    0    0  501    0  0.00000000000E+00  0.00000000000E+00  0.12841613779E+04  0.12841613779E+04  0.00000000000E+00 0.  1.
         -2   -1    0    0    0  501 -0.00000000000E+00 -0.00000000000E+00 -0.50182218567E+03  0.50182218567E+03  0.00000000000E+00 0. -1.
         23    2    1    2    0    0 -0.31168617422E+03  0.30231381402E+03  0.63990243872E+03  0.77869187928E+03  0.91345489389E+02 0.  0.
        254    2    1    2    0    0  0.31168617422E+03 -0.30231381402E+03  0.14243675350E+03  0.10072916843E+04  0.89766719619E+03 0.  0.
        -24    2    4    4    0    0 -0.27785336384E+02 -0.46103805428E+03  0.33708877100E+03  0.57733331496E+03  0.79729571750E+02 0.  0.
         24    2    4    4    0    0  0.33947151060E+03  0.15872424026E+03 -0.19465201751E+03  0.42995836932E+03  0.80873360687E+02 0.  0.
         13    1    3    3    0    0 -0.10290900776E+03  0.15644102041E+03  0.23713632562E+03  0.30215508216E+03  0.00000000000E+00 0. -1.
        -13    1    3    3    0    0 -0.20877716646E+03  0.14587279361E+03  0.40276611310E+03  0.47653679713E+03  0.00000000000E+00 0.  1.
          4    1    6    6  502    0  0.19193394386E+03  0.75497180420E+02 -0.14925044991E+03  0.25458625229E+03  0.00000000000E+00 0. -1.
          3    1    5    5  503    0  0.20953945916E+01 -0.24331834155E+03  0.22141952829E+03  0.32899059792E+03  0.00000000000E+00 0. -1.
         -4    1    5    5    0  503 -0.29880730976E+02 -0.21771971273E+03  0.11566924272E+03  0.24834271704E+03  0.00000000000E+00 0.  1.
         -3    1    6    6    0  502  0.14753756675E+03  0.83227059835E+02 -0.45401567598E+02  0.17537211703E+03  0.00000000000E+00 0.  1.
<mgrwt>
<rscale>  0 0.16055163E+04</rscale>
<asrwt>0</asrwt>
<pdfrwt beam="1">  1        2 0.19756329E+00 0.16055163E+04</pdfrwt>
<pdfrwt beam="2">  1       -2 0.77203413E-01 0.16055163E+04</pdfrwt>
<totfact> 0.24236221E+01</totfact>
</mgrwt>
</event>
<event>
12    1  0.1442183E-007  0.1636905E+04  0.7818608E-02  0.8798191E-01
         -1   -1    0    0    0  501 -0.00000000000E+00  0.00000000000E+00  0.10739671204E+04  0.10739671204E+04  0.00000000000E+00 0.  1.
          1   -1    0    0  501    0  0.00000000000E+00 -0.00000000000E+00 -0.62372904562E+03  0.62372904562E+03  0.00000000000E+00 0. -1.
         23    2    1    2    0    0 -0.39640784547E+03  0.35515110826E+03 -0.54896795200E+02  0.54217426686E+03  0.87565905910E+02 0.  0.
        254    2    1    2    0    0  0.39640784547E+03 -0.35515110826E+03  0.50513487002E+03  0.11555218992E+04  0.89263549838E+03 0.  0.
        -24    2    4    4    0    0  0.17470950802E+03 -0.13124599478E+03  0.72605631493E+03  0.76242304837E+03  0.79888728181E+02 0.  0.
         24    2    4    4    0    0  0.22169833744E+03 -0.22390511347E+03 -0.22092144491E+03  0.39309885083E+03  0.80229477332E+02 0.  0.
         11    1    3    3    0    0 -0.22663336739E+03  0.22538622469E+03  0.69963887693E+01  0.31970389886E+03  0.00000000000E+00 0. -1.
        -11    1    3    3    0    0 -0.16977447808E+03  0.12976488357E+03 -0.61893183969E+02  0.22247036800E+03  0.00000000000E+00 0.  1.
          2    1    6    6  502    0  0.92055285070E+02 -0.14856571176E+03 -0.10882916960E+03  0.20588767417E+03  0.00000000000E+00 0. -1.
          1    1    5    5  503    0  0.12430500863E+03 -0.12368802282E+03  0.62649695371E+03  0.65057581816E+03  0.00000000000E+00 0. -1.
         -2    1    5    5    0  503  0.50404499397E+02 -0.75579719630E+01  0.99559361220E+02  0.11184723021E+03  0.00000000000E+00 0.  1.
         -1    1    6    6    0  502  0.12964305237E+03 -0.75339401714E+02 -0.11209227531E+03  0.18721117665E+03  0.00000000000E+00 0.  1.
<mgrwt>
<rscale>  0 0.16369050E+04</rscale>
<asrwt>0</asrwt>
<pdfrwt beam="1">  1        1 0.95958315E-01 0.16369050E+04</pdfrwt>
<pdfrwt beam="2">  1       -1 0.16522571E+00 0.16369050E+04</pdfrwt>
<totfact> 0.82651864E+00</totfact>
</mgrwt>
</event>
<event>
12    1  0.1442183E-007  0.2261648E+04  0.7818608E-02  0.8493198E-01
         -1   -1    0    0    0  501 -0.00000000000E+00  0.00000000000E+00  0.14363565857E+04  0.14363565857E+04  0.00000000000E+00 0.  1.
          1   -1    0    0  501    0  0.00000000000E+00 -0.00000000000E+00 -0.89028250314E+03  0.89028250314E+03  0.00000000000E+00 0. -1.
         23    2    1    2    0    0 -0.64784219218E+03 -0.54526806031E+03 -0.20960575408E+03  0.87713132157E+03  0.91695253808E+02 0.  0.
        254    2    1    2    0    0  0.64784219218E+03  0.54526806031E+03  0.75567983660E+03  0.14495077672E+04  0.90166733792E+03 0.  0.
        -24    2    4    4    0    0 -0.11525299923E+03 -0.14377189803E+03  0.76640590972E+02  0.21467254944E+03  0.79100637181E+02 0.  0.
         24    2    4    4    0    0  0.76309519141E+03  0.68903995834E+03  0.67903924563E+03  0.12348352178E+04  0.81445581049E+02 0.  0.
         11    1    3    3    0    0 -0.12007259553E+03 -0.59980070495E+02 -0.44413747100E+02  0.14137757242E+03  0.00000000000E+00 0.  1.
        -11    1    3    3    0    0 -0.52776959665E+03 -0.48528798981E+03 -0.16519200698E+03  0.73575374914E+03  0.00000000000E+00 0. -1.
          2    1    6    6  502    0  0.48112182301E+03  0.38951348815E+03  0.38160099836E+03  0.72719893288E+03  0.00000000000E+00 0. -1.
          1    1    5    5  503    0 -0.83661914908E+02 -0.13197260698E+03  0.33312996808E+02  0.15976808428E+03  0.00000000000E+00 0. -1.
         -2    1    5    5    0  503 -0.31591084317E+02 -0.11799291053E+02  0.43327594164E+02  0.54904465153E+02  0.00000000000E+00 0.  1.
         -1    1    6    6    0  502  0.28197336839E+03  0.29952647019E+03  0.29743824728E+03  0.50763628492E+03  0.00000000000E+00 0.  1.
<mgrwt>
<rscale>  0 0.22616482E+04</rscale>
<asrwt>0</asrwt>
<pdfrwt beam="1">  1        1 0.13696654E+00 0.22616482E+04</pdfrwt>
<pdfrwt beam="2">  1       -1 0.22097794E+00 0.22616482E+04</pdfrwt>
<totfact> 0.18220034E+00</totfact>
</mgrwt>
</event>
<event>
12    1  0.1442183E-007  0.1607803E+04  0.7818608E-02  0.8815769E-01
         -1   -1    0    0    0  501 -0.00000000000E+00  0.00000000000E+00  0.41622479310E+03  0.41622479310E+03  0.00000000000E+00 0.  1.
          1   -1    0    0  501    0  0.00000000000E+00 -0.00000000000E+00 -0.15526648763E+04  0.15526648763E+04  0.00000000000E+00 0. -1.
         23    2    1    2    0    0 -0.21273434054E+03 -0.23173252887E+03 -0.93437262209E+03  0.99133690616E+03  0.10363783100E+03 0.  0.
        254    2    1    2    0    0  0.21273434054E+03  0.23173252887E+03 -0.20206746108E+03  0.97755276321E+03  0.90322880902E+03 0.  0.
        -24    2    4    4    0    0  0.32552865357E+03  0.35030520197E+03 -0.45529389938E+03  0.66514883403E+03  0.80298180416E+02 0.  0.
         24    2    4    4    0    0 -0.11279431303E+03 -0.11857267310E+03  0.25322643829E+03  0.31240392918E+03  0.81795782641E+02 0.  0.
         13    1    3    3    0    0 -0.21338612095E+03 -0.23286455255E+03 -0.84730571728E+03  0.90426020314E+03  0.00000000000E+00 0. -1.
        -13    1    3    3    0    0  0.65178040084E+00  0.11320236784E+01 -0.87066904812E+02  0.87076703020E+02  0.00000000000E+00 0.  1.
          4    1    6    6  502    0 -0.93042018163E+02 -0.12355036743E+03  0.24640116909E+03  0.29092103149E+03  0.00000000000E+00 0. -1.
          1    1    5    5  503    0  0.21499528827E+03  0.17433707201E+03 -0.27163465660E+03  0.38781667747E+03  0.00000000000E+00 0. -1.
         -2    1    5    5    0  503  0.11053336531E+03  0.17596812996E+03 -0.18365924277E+03  0.27733215657E+03  0.00000000000E+00 0.  1.
         -3    1    6    6    0  502 -0.19752294867E+02  0.49776943267E+01  0.68252692014E+01  0.21482897686E+02  0.00000000000E+00 0.  1.
<mgrwt>
<rscale>  0 0.16078030E+04</rscale>
<asrwt>0</asrwt>
<pdfrwt beam="1">  1        1 0.23887152E+00 0.16078030E+04</pdfrwt>
<pdfrwt beam="2">  1       -1 0.64034583E-01 0.16078030E+04</pdfrwt>
<totfact> 0.14264744E+01</totfact>
</mgrwt>
</event>
<event>
12    1  0.1442183E-007  0.1907717E+04  0.7818608E-02  0.8651024E-01
          1   -1    0    0  501    0  0.00000000000E+00  0.00000000000E+00  0.15900524182E+04  0.15900524182E+04  0.00000000000E+00 0. -1.
         -1   -1    0    0    0  501 -0.00000000000E+00 -0.00000000000E+00 -0.57221153583E+03  0.57221153583E+03  0.00000000000E+00 0.  1.
         23    2    1    2    0    0  0.12283722221E+03  0.39131307650E+03  0.11015552770E+04  0.11789392044E+04  0.90877457922E+02 0.  0.
        254    2    1    2    0    0 -0.12283722221E+03 -0.39131307650E+03 -0.83714394645E+02  0.98332474963E+03  0.88977781292E+03 0.  0.
        -24    2    4    4    0    0  0.13567552283E+03 -0.57839057318E+03 -0.20280407275E+03  0.63290515953E+03  0.80597434207E+02 0.  0.
         24    2    4    4    0    0 -0.25851274504E+03  0.18707749668E+03  0.11908967811E+03  0.35041959010E+03  0.82369342488E+02 0.  0.
         13    1    3    3    0    0  0.48342127240E+02  0.29177683736E+03  0.77866022501E+03  0.83293603002E+03  0.00000000000E+00 0. -1.
        -13    1    3    3    0    0  0.74495094967E+02  0.99536239136E+02  0.32289505196E+03  0.34600317434E+03  0.00000000000E+00 0.  1.
          2    1    6    6  502    0 -0.18069261485E+03  0.92705803379E+02  0.10084794125E+03  0.22674764452E+03  0.00000000000E+00 0. -1.
          1    1    5    5  503    0  0.11297211218E+03 -0.30600321805E+03 -0.11213177900E+03  0.34492637396E+03  0.00000000000E+00 0. -1.
         -2    1    5    5    0  503  0.22703410652E+02 -0.27238735513E+03 -0.90672293750E+02  0.28797878558E+03  0.00000000000E+00 0.  1.
         -1    1    6    6    0  502 -0.77820130187E+02  0.94371693304E+02  0.18241736854E+02  0.12367194558E+03  0.00000000000E+00 0.  1.
<mgrwt>
<rscale>  0 0.19077173E+04</rscale>
<asrwt>0</asrwt>
<pdfrwt beam="1">  1        1 0.24462345E+00 0.19077173E+04</pdfrwt>
<pdfrwt beam="2">  1       -1 0.88032545E-01 0.19077173E+04</pdfrwt>
<totfact> 0.67213343E+00</totfact>
</mgrwt>
</event>
<event>
12    1  0.1442183E-007  0.1937690E+04  0.7818608E-02  0.8636320E-01
         -2   -1    0    0    0  501 -0.00000000000E+00  0.00000000000E+00  0.41450262751E+03  0.41450262751E+03  0.00000000000E+00 0.  1.
          2   -1    0    0  501    0  0.00000000000E+00 -0.00000000000E+00 -0.22645468689E+04  0.22645468689E+04  0.00000000000E+00 0. -1.
         23    2    1    2    0    0 -0.28209578581E+03 -0.62844927864E+03 -0.11390227311E+04  0.13340768788E+04  0.88666838721E+02 0.  0.
        254    2    1    2    0    0  0.28209578581E+03  0.62844927864E+03 -0.71102151023E+03  0.13449726176E+04  0.91042475026E+03 0.  0.
        -24    2    4    4    0    0 -0.23305481133E+03  0.53173171094E+02 -0.46851693562E+03  0.53193574707E+03  0.79407737903E+02 0.  0.
         24    2    4    4    0    0  0.51515059714E+03  0.57527610755E+03 -0.24250457461E+03  0.81303687053E+03  0.76796786968E+02 0.  0.
         11    1    3    3    0    0 -0.28121161106E+03 -0.62722499936E+03 -0.11407132829E+04  0.13318100330E+04  0.00000000000E+00 0. -1.
        -11    1    3    3    0    0 -0.88417474597E+00 -0.12242792865E+01  0.16905517878E+01  0.22668458483E+01  0.00000000000E+00 0.  1.
          2    1    6    6  502    0  0.49384476808E+03  0.52200638960E+03 -0.22180361142E+03  0.75204399324E+03  0.00000000000E+00 0. -1.
          1    1    5    5  503    0 -0.20250407477E+03  0.19897226161E+02 -0.34654291434E+03  0.40186538963E+03  0.00000000000E+00 0. -1.
         -2    1    5    5    0  503 -0.30550736557E+02  0.33275944933E+02 -0.12197402128E+03  0.13007035743E+03  0.00000000000E+00 0.  1.
         -1    1    6    6    0  502  0.21305829061E+02  0.53269717954E+02 -0.20700963189E+02  0.60992877288E+02  0.00000000000E+00 0.  1.
<mgrwt>
<rscale>  0 0.19376900E+04</rscale>
<asrwt>0</asrwt>
<pdfrwt beam="1">  1        2 0.34839182E+00 0.19376900E+04</pdfrwt>
<pdfrwt beam="2">  1       -2 0.63769635E-01 0.19376900E+04</pdfrwt>
<totfact> 0.10086926E+01</totfact>
</mgrwt>
</event>
<event>
12    1  0.1442183E-007  0.1116981E+04  0.7818608E-02  0.9188797E-01
          1   -1    0    0  501    0  0.00000000000E+00  0.00000000000E+00  0.15897289173E+04  0.15897289173E+04  0.00000000000E+00 0. -1.
         -1   -1    0    0    0  501 -0.00000000000E+00 -0.00000000000E+00 -0.19620442226E+03  0.19620442226E+03  0.00000000000E+00 0.  1.
         23    2    1    2    0    0 -0.13663896609E+03 -0.54432312430E+02  0.82997942939E+02  0.19158455141E+03  0.90459372739E+02 0.  0.
        254    2    1    2    0    0  0.13663896609E+03  0.54432312430E+02  0.13105265521E+04  0.15943487881E+04  0.89601067561E+03 0.  0.
        -24    2    4    4    0    0 -0.61192603668E+02  0.43281143541E+02  0.13682348512E+04  0.13725388108E+04  0.78602717640E+02 0.  0.
         24    2    4    4    0    0  0.19783156976E+03  0.11151168889E+02 -0.57708299077E+02  0.22180997728E+03  0.81288004515E+02 0.  0.
         11    1    3    3    0    0 -0.14213499797E+03 -0.66125745693E+02  0.65654496674E+02  0.16995730295E+03  0.00000000000E+00 0.  1.
        -11    1    3    3    0    0  0.54960318764E+01  0.11693433263E+02  0.17343446265E+02  0.21627248466E+02  0.00000000000E+00 0. -1.
          4    1    6    6  502    0  0.14758076031E+03  0.19594529017E+02 -0.56777945609E+01  0.14898410564E+03  0.00000000000E+00 0. -1.
          3    1    5    5  503    0 -0.76258927976E+02  0.28190992201E+02  0.12283802575E+04  0.12310679157E+04  0.00000000000E+00 0. -1.
         -4    1    5    5    0  503  0.15066324308E+02  0.15090151341E+02  0.13985459366E+03  0.14147089511E+03  0.00000000000E+00 0.  1.
         -3    1    6    6    0  502  0.50250809448E+02 -0.84433601284E+01 -0.52030504516E+02  0.72825871644E+02  0.00000000000E+00 0.  1.
<mgrwt>
<rscale>  0 0.11169814E+04</rscale>
<asrwt>0</asrwt>
<pdfrwt beam="1">  1        1 0.24457367E+00 0.11169814E+04</pdfrwt>
<pdfrwt beam="2">  1       -1 0.30185297E-01 0.11169814E+04</pdfrwt>
<totfact> 0.56988053E+01</totfact>
</mgrwt>
</event>
<event>
12    1  0.1442183E-007  0.2556409E+04  0.7818608E-02  0.8383161E-01
          1   -1    0    0  501    0  0.00000000000E+00  0.00000000000E+00  0.13372555512E+04  0.13372555512E+04  0.00000000000E+00 0. -1.
         -1   -1    0    0    0  501 -0.00000000000E+00 -0.00000000000E+00 -0.12217606927E+04  0.12217606927E+04  0.00000000000E+00 0.  1.
         23    2    1    2    0    0  0.84652587327E+03 -0.16006483551E+03 -0.66069246329E+03  0.10894925486E+04  0.90844244056E+02 0.  0.
        254    2    1    2    0    0 -0.84652587327E+03  0.16006483551E+03  0.77618732176E+03  0.14695236953E+04  0.90266623224E+03 0.  0.
        -24    2    4    4    0    0 -0.50536896104E+03  0.52448651470E+03  0.36820869625E+03  0.81978557949E+03  0.77374811511E+02 0.  0.
         24    2    4    4    0    0 -0.34115691223E+03 -0.36442167919E+03  0.40797862550E+03  0.64973811578E+03  0.80758041093E+02 0.  0.
         11    1    3    3    0    0  0.70641685689E+03 -0.12364074715E+03 -0.58858044948E+03  0.92776007435E+03  0.00000000000E+00 0.  1.
        -11    1    3    3    0    0  0.14010901638E+03 -0.36424088358E+02 -0.72112013817E+02  0.16173247423E+03  0.00000000000E+00 0. -1.
          4    1    6    6  502    0 -0.23214701823E+03 -0.25002655152E+03  0.32525582981E+03  0.47137762925E+03  0.00000000000E+00 0. -1.
          3    1    5    5  503    0 -0.47698166186E+03  0.48740673087E+03  0.32226511729E+03  0.75427556826E+03  0.00000000000E+00 0. -1.
         -2    1    5    5    0  503 -0.28387299178E+02  0.37079783833E+02  0.45943578961E+02  0.65510011231E+02  0.00000000000E+00 0.  1.
         -3    1    6    6    0  502 -0.10900989400E+03 -0.11439512768E+03  0.82722795692E+02  0.17836048652E+03  0.00000000000E+00 0.  1.
<mgrwt>
<rscale>  0 0.25564086E+04</rscale>
<asrwt>0</asrwt>
<pdfrwt beam="1">  1        1 0.20573162E+00 0.25564086E+04</pdfrwt>
<pdfrwt beam="2">  1       -1 0.18796318E+00 0.25564086E+04</pdfrwt>
<totfact> 0.13739135E+00</totfact>
</mgrwt>
</event>
<event>
12    1  0.1442183E-007  0.1511183E+04  0.7818608E-02  0.8877050E-01
         -2   -1    0    0    0  501 -0.00000000000E+00  0.00000000000E+00  0.46073168294E+03  0.46073168294E+03  0.00000000000E+00 0.  1.
          2   -1    0    0  501    0  0.00000000000E+00 -0.00000000000E+00 -0.12391555599E+04  0.12391555599E+04  0.00000000000E+00 0. -1.
         23    2    1    2    0    0 -0.18002003283E+03 -0.37285125330E+03  0.31195185201E+02  0.42539526608E+03  0.92534985342E+02 0.  0.
        254    2    1    2    0    0  0.18002003283E+03  0.37285125330E+03 -0.80961906216E+03  0.12744919768E+04  0.89298460442E+03 0.  0.
        -24    2    4    4    0    0  0.33660536244E+03  0.32597253438E+03 -0.32896169658E+02  0.47662226105E+03  0.80779691497E+02 0.  0.
         24    2    4    4    0    0 -0.15658532961E+03  0.46878718918E+02 -0.77672289250E+03  0.79786971572E+03  0.81123682021E+02 0.  0.
         11    1    3    3    0    0 -0.63151774477E+02 -0.18932244746E+03 -0.23748325458E+02  0.20098536935E+03  0.00000000000E+00 0. -1.
        -11    1    3    3    0    0 -0.11686825836E+03 -0.18352880584E+03  0.54943510659E+02  0.22440989673E+03  0.00000000000E+00 0.  1.
          2    1    6    6  502    0 -0.48828965212E+02 -0.17234103230E+02 -0.32367211877E+03  0.32778792325E+03  0.00000000000E+00 0. -1.
          1    1    5    5  503    0  0.28921736671E+02  0.61216177474E+02  0.10040942255E+02  0.68444924998E+02  0.00000000000E+00 0. -1.
         -2    1    5    5    0  503  0.30768362577E+03  0.26475635691E+03 -0.42937111913E+02  0.40817733606E+03  0.00000000000E+00 0.  1.
         -1    1    6    6    0  502 -0.10775636439E+03  0.64112822148E+02 -0.45305077373E+03  0.47008179247E+03  0.00000000000E+00 0.  1.
<mgrwt>
<rscale>  0 0.15111826E+04</rscale>
<asrwt>0</asrwt>
<pdfrwt beam="1">  1        2 0.19063931E+00 0.15111826E+04</pdfrwt>
<pdfrwt beam="2">  1       -2 0.70881800E-01 0.15111826E+04</pdfrwt>
<totfact> 0.31345251E+01</totfact>
</mgrwt>
</event>
<event>
12    1  0.1442183E-007  0.1508660E+04  0.7818608E-02  0.8878715E-01
         -1   -1    0    0    0  501 -0.00000000000E+00  0.00000000000E+00  0.12886037765E+04  0.12886037765E+04  0.00000000000E+00 0.  1.
          1   -1    0    0  501    0  0.00000000000E+00 -0.00000000000E+00 -0.44157378746E+03  0.44157378746E+03  0.00000000000E+00 0. -1.
         23    2    1    2    0    0  0.37664217716E+03  0.26844811688E+03  0.38405042755E+03  0.60707943793E+03  0.84421513762E+02 0.  0.
        254    2    1    2    0    0 -0.37664217716E+03 -0.26844811688E+03  0.46297956150E+03  0.11230981260E+04  0.91272975478E+03 0.  0.
        -24    2    4    4    0    0 -0.25911007061E+03  0.46533094191E+02 -0.22391355087E+03  0.35464156060E+03  0.79561301488E+02 0.  0.
         24    2    4    4    0    0 -0.11753210655E+03 -0.31498121107E+03  0.68689311237E+03  0.76845656543E+03  0.75341792703E+02 0.  0.
         11    1    3    3    0    0  0.96224097796E+02  0.34222572272E+02  0.11183780456E+03  0.15145281767E+03  0.00000000000E+00 0. -1.
        -11    1    3    3    0    0  0.28041807936E+03  0.23422554461E+03  0.27221262299E+03  0.45562662027E+03  0.00000000000E+00 0.  1.
          2    1    6    6  502    0 -0.15311416342E+02 -0.11382915107E+03  0.17873112418E+03  0.21245312390E+03  0.00000000000E+00 0. -1.
          3    1    5    5  503    0 -0.11451888305E+02  0.21441137470E+02 -0.94822951198E+01  0.26091800292E+02  0.00000000000E+00 0. -1.
         -4    1    5    5    0  503 -0.24765818231E+03  0.25091956721E+02 -0.21443125575E+03  0.32854976031E+03  0.00000000000E+00 0.  1.
         -1    1    6    6    0  502 -0.10222069020E+03 -0.20115206000E+03  0.50816198819E+03  0.55600344153E+03  0.00000000000E+00 0.  1.
<mgrwt>
<rscale>  0 0.15086599E+04</rscale>
<asrwt>0</asrwt>
<pdfrwt beam="1">  1        1 0.67934429E-01 0.15086599E+04</pdfrwt>
<pdfrwt beam="2">  1       -1 0.19824673E+00 0.15086599E+04</pdfrwt>
<totfact> 0.78579603E+00</totfact>
</mgrwt>
</event>
<event>
12    1  0.1442183E-007  0.2035428E+04  0.7818608E-02  0.8590234E-01
          2   -1    0    0  501    0  0.00000000000E+00  0.00000000000E+00  0.20102723891E+04  0.20102723891E+04  0.00000000000E+00 0.  1.
         -2   -1    0    0    0  501 -0.00000000000E+00 -0.00000000000E+00 -0.51522465007E+03  0.51522465007E+03  0.00000000000E+00 0. -1.
         23    2    1    2    0    0  0.40145028509E+03  0.10312095338E+03 -0.23271739203E+03  0.48467824334E+03  0.94653856687E+02 0.  0.
        254    2    1    2    0    0 -0.40145028509E+03 -0.10312095338E+03  0.17277651310E+04  0.20408187958E+04  0.10039784594E+04 0.  0.
        -24    2    4    4    0    0  0.73830191665E+02  0.38309677336E+03  0.56623932891E+03  0.69215637183E+03  0.78990065774E+02 0.  0.
         24    2    4    4    0    0 -0.47528047676E+03 -0.48621772674E+03  0.11615258021E+04  0.13486624240E+04  0.86307215656E+02 0.  0.
         11    1    3    3    0    0  0.25481171731E+03  0.11179111397E+03 -0.15141271143E+03  0.31678395418E+03  0.00000000000E+00 0. -1.
        -11    1    3    3    0    0  0.14663856778E+03 -0.86701605868E+01 -0.81304680596E+02  0.16789428916E+03  0.00000000000E+00 0.  1.
          2    1    6    6  502    0 -0.30020793279E+03 -0.35336088272E+03  0.73949348872E+03  0.87283408286E+03  0.00000000000E+00 0. -1.
          3    1    5    5  503    0  0.31096205823E+02  0.21973095445E+03  0.38545955687E+03  0.44477830021E+03  0.00000000000E+00 0. -1.
         -4    1    5    5    0  503  0.42733985842E+02  0.16336581891E+03  0.18077977205E+03  0.24737807161E+03  0.00000000000E+00 0.  1.
         -1    1    6    6    0  502 -0.17507254397E+03 -0.13285684402E+03  0.42203231341E+03  0.47582834112E+03  0.00000000000E+00 0.  1.
<mgrwt>
<rscale>  0 0.20354281E+04</rscale>
<asrwt>0</asrwt>
<pdfrwt beam="1">  1        2 0.30927267E+00 0.20354281E+04</pdfrwt>
<pdfrwt beam="2">  1       -2 0.79265332E-01 0.20354281E+04</pdfrwt>
<totfact> 0.86200462E+00</totfact>
</mgrwt>
</event>
<event>
12    1  0.1442183E-007  0.1476293E+04  0.7818608E-02  0.8900373E-01
          2   -1    0    0  501    0  0.00000000000E+00  0.00000000000E+00  0.24142685786E+04  0.24142685786E+04  0.00000000000E+00 0. -1.
         -2   -1    0    0    0  501 -0.00000000000E+00 -0.00000000000E+00 -0.22568324431E+03  0.22568324431E+03  0.00000000000E+00 0.  1.
         23    2    1    2    0    0  0.49395030398E+02 -0.44163565564E+03  0.87764460515E+03  0.98818958286E+03  0.93683922634E+02 0.  0.
        254    2    1    2    0    0 -0.49395030398E+02  0.44163565564E+03  0.13109407291E+04  0.16517622400E+04  0.90126077299E+03 0.  0.
        -24    2    4    4    0    0 -0.46238725141E+03  0.14980248382E+03  0.60303378220E+03  0.77857277421E+03  0.79265804996E+02 0.  0.
         24    2    4    4    0    0  0.41299222102E+03  0.29183317182E+03  0.70790694690E+03  0.87318946579E+03  0.74822609600E+02 0.  0.
         13    1    3    3    0    0  0.23375348084E+02 -0.17661840475E+03  0.25580816653E+03  0.31173431934E+03  0.00000000000E+00 0.  1.
        -13    1    3    3    0    0  0.26019682314E+02 -0.26501725089E+03  0.62183643862E+03  0.67645526351E+03  0.00000000000E+00 0. -1.
          2    1    6    6  502    0  0.29242267124E+03  0.17593258948E+03  0.51589233183E+03  0.61855330630E+03  0.00000000000E+00 0. -1.
          3    1    5    5  503    0 -0.43039468522E+03  0.13315838987E+03  0.51983776235E+03  0.68789682440E+03  0.00000000000E+00 0. -1.
         -2    1    5    5    0  503 -0.31992566198E+02  0.16644093954E+02  0.83196019854E+02  0.90675949817E+02  0.00000000000E+00 0.  1.
         -1    1    6    6    0  502  0.12056954978E+03  0.11590058234E+03  0.19201461507E+03  0.25463615949E+03  0.00000000000E+00 0.  1.
<mgrwt>
<rscale>  0 0.14762926E+04</rscale>
<asrwt>0</asrwt>
<pdfrwt beam="1">  1        2 0.37142592E+00 0.14762926E+04</pdfrwt>
<pdfrwt beam="2">  1       -2 0.34720501E-01 0.14762926E+04</pdfrwt>
<totfact> 0.29445064E+01</totfact>
</mgrwt>
</event>
<event>
12    1  0.1442183E-007  0.1439949E+04  0.7818608E-02  0.8925398E-01
         -1   -1    0    0    0  501 -0.00000000000E+00  0.00000000000E+00  0.63772269616E+03  0.63772269616E+03  0.00000000000E+00 0.  1.
          1   -1    0    0  501    0  0.00000000000E+00 -0.00000000000E+00 -0.81283484139E+03  0.81283484139E+03  0.00000000000E+00 0. -1.
         23    2    1    2    0    0  0.27517045641E+03  0.29576779125E+03  0.10385424699E+03  0.42688089214E+03  0.90797714907E+02 0.  0.
        254    2    1    2    0    0 -0.27517045641E+03 -0.29576779125E+03 -0.27896639222E+03  0.10236766454E+04  0.89827293177E+03 0.  0.
        -24    2    4    4    0    0 -0.57160716242E+03 -0.17541750167E+03 -0.19178610639E+02  0.60351258122E+03  0.79709275238E+02 0.  0.
         24    2    4    4    0    0  0.29643670601E+03 -0.12035028958E+03 -0.25978778158E+03  0.42016406419E+03  0.81787752802E+02 0.  0.
         11    1    3    3    0    0  0.98424218407E+02  0.11515223241E+03 -0.53698744438E+01  0.15157901883E+03  0.00000000000E+00 0. -1.
        -11    1    3    3    0    0  0.17674623801E+03  0.18061555883E+03  0.10922412143E+03  0.27530187330E+03  0.00000000000E+00 0.  1.
          4    1    6    6  502    0  0.39288506916E+02 -0.31854317330E+02 -0.11390169080E+02  0.51846120973E+02  0.00000000000E+00 0. -1.
          1    1    5    5  503    0 -0.15596129715E+03 -0.36138099762E+02  0.28344620744E+02  0.16258322788E+03  0.00000000000E+00 0. -1.
         -2    1    5    5    0  503 -0.41564586527E+03 -0.13927940191E+03 -0.47523231383E+02  0.44092935334E+03  0.00000000000E+00 0.  1.
         -1    1    6    6    0  502  0.25714819909E+03 -0.88495972248E+02 -0.24839761250E+03  0.36831794322E+03  0.00000000000E+00 0.  1.
<mgrwt>
<rscale>  0 0.14399489E+04</rscale>
<asrwt>0</asrwt>
<pdfrwt beam="1">  1        1 0.12505151E+00 0.14399489E+04</pdfrwt>
<pdfrwt beam="2">  1       -1 0.98111184E-01 0.14399489E+04</pdfrwt>
<totfact> 0.20859257E+01</totfact>
</mgrwt>
</event>
<event>
12    1  0.1442183E-007  0.2469459E+04  0.7818608E-02  0.8413948E-01
         -1   -1    0    0    0  501 -0.00000000000E+00  0.00000000000E+00  0.14523493264E+04  0.14523493264E+04  0.00000000000E+00 0.  1.
          1   -1    0    0  501    0  0.00000000000E+00 -0.00000000000E+00 -0.10497175264E+04  0.10497175264E+04  0.00000000000E+00 0. -1.
         23    2    1    2    0    0  0.10012331916E+04 -0.35179205490E+03  0.74294138067E+02  0.10677265701E+04  0.91076099349E+02 0.  0.
        254    2    1    2    0    0 -0.10012331916E+04  0.35179205490E+03  0.32833766188E+03  0.14343402827E+04  0.90735928521E+03 0.  0.
        -24    2    4    4    0    0  0.47516696127E+02 -0.16176703957E+03 -0.65718710352E+02  0.19931505841E+03  0.83553169407E+02 0.  0.
         24    2    4    4    0    0 -0.10487498877E+04  0.51355909447E+03  0.39405637223E+03  0.12350252242E+04  0.79922522324E+02 0.  0.
         11    1    3    3    0    0  0.99741075752E+03 -0.35186661419E+03  0.80197706928E+02  0.10606931722E+04  0.00000000000E+00 0. -1.
        -11    1    3    3    0    0  0.38224340379E+01  0.74559290466E-01 -0.59035688606E+01  0.70333979238E+01  0.00000000000E+00 0.  1.
          2    1    6    6  502    0 -0.78159895377E+03  0.38991939814E+03  0.25828259093E+03  0.91084793372E+03  0.00000000000E+00 0. -1.
          1    1    5    5  503    0  0.31292278181E+02 -0.15481815668E+03 -0.79588339463E+02  0.17686766830E+03  0.00000000000E+00 0. -1.
         -2    1    5    5    0  503  0.16224417946E+02 -0.69488828858E+01  0.13869629111E+02  0.22447390109E+02  0.00000000000E+00 0.  1.
         -1    1    6    6    0  502 -0.26715093392E+03  0.12363969633E+03  0.13577378130E+03  0.32417729052E+03  0.00000000000E+00 0.  1.
<mgrwt>
<rscale>  0 0.24694587E+04</rscale>
<asrwt>0</asrwt>
<pdfrwt beam="1">  1        1 0.16149500E+00 0.24694587E+04</pdfrwt>
<pdfrwt beam="2">  1       -1 0.22343836E+00 0.24694587E+04</pdfrwt>
<totfact> 0.12872440E+00</totfact>
</mgrwt>
</event>
<event>
12    1  0.1442183E-007  0.1349206E+04  0.7818608E-02  0.8991429E-01
          2   -1    0    0  501    0  0.00000000000E+00  0.00000000000E+00  0.52488969202E+03  0.52488969202E+03  0.00000000000E+00 0. -1.
         -2   -1    0    0    0  501 -0.00000000000E+00 -0.00000000000E+00 -0.86701899864E+03  0.86701899864E+03  0.00000000000E+00 0.  1.
         23    2    1    2    0    0 -0.32989364226E+03 -0.15443039318E+03 -0.61008294292E+02  0.38045235981E+03  0.91342348165E+02 0.  0.
        254    2    1    2    0    0  0.32989364226E+03  0.15443039318E+03 -0.28112101232E+03  0.10114563309E+04  0.90074209634E+03 0.  0.
        -24    2    4    4    0    0  0.44330123687E+03  0.21613304345E+03 -0.52479275304E+03  0.72451846060E+03  0.79310068924E+02 0.  0.
         24    2    4    4    0    0 -0.11340759461E+03 -0.61702650268E+02  0.24367174071E+03  0.28693787026E+03  0.79302740188E+02 0.  0.
         11    1    3    3    0    0 -0.28494932895E+03 -0.11335413789E+03 -0.20564277284E+02  0.30735674736E+03  0.00000000000E+00 0. -1.
        -11    1    3    3    0    0 -0.44944313308E+02 -0.41076255285E+02 -0.40444017008E+02  0.73095612445E+02  0.00000000000E+00 0.  1.
          2    1    6    6  502    0 -0.34218622177E+02 -0.18709535805E+02  0.16128681020E+02  0.42203023413E+02  0.00000000000E+00 0. -1.
          1    1    5    5  503    0  0.17230512942E+03  0.77316455622E+02 -0.14714102818E+03  0.23941047201E+03  0.00000000000E+00 0. -1.
         -2    1    5    5    0  503  0.27099610745E+03  0.13881658783E+03 -0.37765172485E+03  0.48510798859E+03  0.00000000000E+00 0.  1.
         -3    1    6    6    0  502 -0.79188972428E+02 -0.42993114463E+02  0.22754305969E+03  0.24473484684E+03  0.00000000000E+00 0.  1.
<mgrwt>
<rscale>  0 0.13492062E+04</rscale>
<asrwt>0</asrwt>
<pdfrwt beam="1">  1        2 0.80752261E-01 0.13492062E+04</pdfrwt>
<pdfrwt beam="2">  1       -2 0.13338754E+00 0.13492062E+04</pdfrwt>
<totfact> 0.23105051E+01</totfact>
</mgrwt>
</event>
<event>
12    1  0.1442183E-007  0.1943650E+04  0.7818608E-02  0.8633429E-01
         -2   -1    0    0    0  501 -0.00000000000E+00  0.00000000000E+00  0.69471816962E+03  0.69471816962E+03  0.00000000000E+00 0.  1.
          2   -1    0    0  501    0  0.00000000000E+00 -0.00000000000E+00 -0.13594638511E+04  0.13594638511E+04  0.00000000000E+00 0. -1.
         23    2    1    2    0    0 -0.12232716506E+03 -0.44276169753E+03 -0.90044602363E+03  0.10150363533E+04  0.92162362208E+02 0.  0.
        254    2    1    2    0    0  0.12232716506E+03  0.44276169753E+03  0.23570034217E+03  0.10391456674E+04  0.90181329031E+03 0.  0.
        -24    2    4    4    0    0 -0.87709696789E+02  0.26873201264E+02 -0.30014924682E+03  0.32395561247E+03  0.80265239220E+02 0.  0.
         24    2    4    4    0    0  0.21003686184E+03  0.41588849627E+03  0.53584958899E+03  0.71519005489E+03  0.85342298596E+02 0.  0.
         11    1    3    3    0    0 -0.31545000945E+02 -0.38896282890E+02 -0.59791247657E+02  0.77993597196E+02  0.00000000000E+00 0.  1.
        -11    1    3    3    0    0 -0.90782164111E+02 -0.40386541464E+03 -0.84065477598E+03  0.93704275614E+03  0.00000000000E+00 0. -1.
          4    1    6    6  502    0  0.10579463566E+03  0.29830880425E+03  0.36119444315E+03  0.48025209358E+03  0.00000000000E+00 0. -1.
          3    1    5    5  503    0 -0.46661947816E+02 -0.21551439773E+02 -0.18993475493E+03  0.19676639210E+03  0.00000000000E+00 0. -1.
         -4    1    5    5    0  503 -0.41047748972E+02  0.48424641037E+02 -0.11021449189E+03  0.12718922037E+03  0.00000000000E+00 0.  1.
         -3    1    6    6    0  502  0.10424222618E+03  0.11757969202E+03  0.17465514584E+03  0.23493796131E+03  0.00000000000E+00 0.  1.
<mgrwt>
<rscale>  0 0.19436504E+04</rscale>
<asrwt>0</asrwt>
<pdfrwt beam="1">  1        2 0.20914828E+00 0.19436504E+04</pdfrwt>
<pdfrwt beam="2">  1       -2 0.10687972E+00 0.19436504E+04</pdfrwt>
<totfact> 0.10038640E+01</totfact>
</mgrwt>
</event>
<event>
12    1  0.1442183E-007  0.1669312E+04  0.7818608E-02  0.8779063E-01
          2   -1    0    0  501    0  0.00000000000E+00  0.00000000000E+00  0.19495186050E+04  0.19495186050E+04  0.00000000000E+00 0. -1.
         -2   -1    0    0    0  501 -0.00000000000E+00 -0.00000000000E+00 -0.35734483727E+03  0.35734483727E+03  0.00000000000E+00 0.  1.
         23    2    1    2    0    0  0.34377380428E+03 -0.20255832276E+03  0.11471080877E+04  0.12198305638E+04  0.11366326126E+03 0.  0.
        254    2    1    2    0    0 -0.34377380428E+03  0.20255832276E+03  0.44506568003E+03  0.10870328784E+04  0.90793541436E+03 0.  0.
        -24    2    4    4    0    0 -0.52552835474E+03  0.49721768638E+02 -0.45353489039E+02  0.53580154525E+03  0.79837654079E+02 0.  0.
         24    2    4    4    0    0  0.18175455046E+03  0.15283655412E+03  0.49041916907E+03  0.55123133320E+03  0.83374411074E+02 0.  0.
         13    1    3    3    0    0  0.20241020729E+02  0.45486343062E+01  0.14748555185E+03  0.14893749360E+03  0.00000000000E+00 0. -1.
        -13    1    3    3    0    0  0.32353278355E+03 -0.20710695707E+03  0.99962253583E+03  0.10708930702E+04  0.00000000000E+00 0.  1.
          4    1    6    6  502    0  0.51994614342E+02  0.56261824235E+01  0.71069217792E+02  0.88237903232E+02  0.00000000000E+00 0. -1.
          1    1    5    5  503    0 -0.89095749429E+02 -0.15517905557E+02 -0.25979726113E+02  0.94094655152E+02  0.00000000000E+00 0. -1.
         -2    1    5    5    0  503 -0.43643260531E+03  0.65239674195E+02 -0.19373762925E+02  0.44170689009E+03  0.00000000000E+00 0.  1.
         -3    1    6    6    0  502  0.12975993611E+03  0.14721037170E+03  0.41934995128E+03  0.46299342997E+03  0.00000000000E+00 0.  1.
<mgrwt>
<rscale>  0 0.16693117E+04</rscale>
<asrwt>0</asrwt>
<pdfrwt beam="1">  1        2 0.29992593E+00 0.16693117E+04</pdfrwt>
<pdfrwt beam="2">  1       -2 0.54976130E-01 0.16693117E+04</pdfrwt>
<totfact> 0.21156296E+01</totfact>
</mgrwt>
</event>
<event>
12    1  0.1442183E-007  0.2285389E+04  0.7818608E-02  0.8483705E-01
         -1   -1    0    0    0  501 -0.00000000000E+00  0.00000000000E+00  0.87092561086E+03  0.87092561086E+03  0.00000000000E+00 0.  1.
          1   -1    0    0  501    0  0.00000000000E+00 -0.00000000000E+00 -0.14992671568E+04  0.14992671568E+04  0.00000000000E+00 0. -1.
         23    2    1    2    0    0 -0.92328318792E+03 -0.27332370922E+03 -0.38073147472E+03  0.10401136059E+04  0.98601025393E+02 0.  0.
        254    2    1    2    0    0  0.92328318792E+03  0.27332370922E+03 -0.24761007119E+03  0.13300791617E+04  0.88353954863E+03 0.  0.
        -24    2    4    4    0    0 -0.12398041666E+03  0.40046681680E+02 -0.20311913877E+03  0.25328247699E+03  0.76939899857E+02 0.  0.
         24    2    4    4    0    0  0.10472636046E+04  0.23327702754E+03 -0.44490932422E+02  0.10767966847E+04  0.79576555232E+02 0.  0.
         13    1    3    3    0    0 -0.18014540215E+03 -0.44053730573E+02 -0.11525154244E+03  0.21834838019E+03  0.00000000000E+00 0.  1.
        -13    1    3    3    0    0 -0.74313778577E+03 -0.22926997865E+03 -0.26547993228E+03  0.82176522571E+03  0.00000000000E+00 0. -1.
          2    1    6    6  502    0  0.20117458091E+03  0.13064589981E+02 -0.75526919350E+01  0.20173977959E+03  0.00000000000E+00 0. -1.
          3    1    5    5  503    0 -0.85083129141E+02 -0.46671485378E+01 -0.15526026113E+03  0.17710637997E+03  0.00000000000E+00 0. -1.
         -2    1    5    5    0  503 -0.38897287515E+02  0.44713830217E+02 -0.47858877634E+02  0.76176097020E+02  0.00000000000E+00 0.  1.
         -1    1    6    6    0  502  0.84608902367E+03  0.22021243756E+03 -0.36938240487E+02  0.87505690514E+03  0.00000000000E+00 0.  1.
<mgrwt>
<rscale>  0 0.22853885E+04</rscale>
<asrwt>0</asrwt>
<pdfrwt beam="1">  1        1 0.23065648E+00 0.22853885E+04</pdfrwt>
<pdfrwt beam="2">  1       -1 0.13398856E+00 0.22853885E+04</pdfrwt>
<totfact> 0.27835668E+00</totfact>
</mgrwt>
</event>
<event>
12    1  0.1442183E-007  0.2893794E+04  0.7818608E-02  0.8274726E-01
          2   -1    0    0  501    0  0.00000000000E+00  0.00000000000E+00  0.26202509440E+04  0.26202509440E+04  0.00000000000E+00 0. -1.
         -2   -1    0    0    0  501 -0.00000000000E+00 -0.00000000000E+00 -0.79897326069E+03  0.79897326069E+03  0.00000000000E+00 0.  1.
         23    2    1    2    0    0 -0.69753171115E+02  0.12770582974E+04  0.50663533794E+03  0.13785198582E+04  0.88849500820E+02 0.  0.
        254    2    1    2    0    0  0.69753171115E+02 -0.12770582974E+04  0.13146423454E+04  0.20407043465E+04  0.89467666436E+03 0.  0.
        -24    2    4    4    0    0  0.41902259484E+00 -0.12811449947E+04  0.79335160239E+03  0.15091679886E+04  0.82756146525E+02 0.  0.
         24    2    4    4    0    0  0.69334148520E+02  0.40866972251E+01  0.52129074299E+03  0.53153635796E+03  0.77220048300E+02 0.  0.
         11    1    3    3    0    0 -0.27512202847E+02  0.62679000684E+03  0.29574890750E+03  0.69360655292E+03  0.00000000000E+00 0. -1.
        -11    1    3    3    0    0 -0.42240968268E+02  0.65026829060E+03  0.21088643044E+03  0.68491330525E+03  0.00000000000E+00 0.  1.
          4    1    6    6  502    0  0.79837485965E+02  0.14670649329E+02  0.49217898528E+03  0.49882803216E+03  0.00000000000E+00 0. -1.
          3    1    5    5  503    0 -0.34936006318E+02 -0.78277372728E+03  0.50756588991E+03  0.93358361450E+03  0.00000000000E+00 0. -1.
         -4    1    5    5    0  503  0.35355028913E+02 -0.49837126738E+03  0.28578571248E+03  0.57558437407E+03  0.00000000000E+00 0.  1.
         -3    1    6    6    0  502 -0.10503337445E+02 -0.10583952104E+02  0.29111757712E+02  0.32708325801E+02  0.00000000000E+00 0.  1.
<mgrwt>
<rscale>  0 0.28937937E+04</rscale>
<asrwt>0</asrwt>
<pdfrwt beam="1">  1        2 0.40311553E+00 0.28937937E+04</pdfrwt>
<pdfrwt beam="2">  1       -2 0.12291896E+00 0.28937937E+04</pdfrwt>
<totfact> 0.12782079E+00</totfact>
</mgrwt>
</event>
<event>
12    1  0.1442183E-007  0.1335721E+04  0.7818608E-02  0.9001708E-01
          1   -1    0    0  501    0  0.00000000000E+00  0.00000000000E+00  0.12863702440E+04  0.12863702440E+04  0.00000000000E+00 0. -1.
         -1   -1    0    0    0  501 -0.00000000000E+00 -0.00000000000E+00 -0.34674122685E+03  0.34674122685E+03  0.00000000000E+00 0.  1.
         23    2    1    2    0    0 -0.12058892412E+02  0.25069352041E+03 -0.65813239727E+02  0.27490966475E+03  0.90836574083E+02 0.  0.
        254    2    1    2    0    0  0.12058892412E+02 -0.25069352041E+03  0.10054422568E+04  0.13582018061E+04  0.87795521304E+03 0.  0.
        -24    2    4    4    0    0 -0.24153187295E+03 -0.46383894357E+03  0.80376228091E+03  0.96229592544E+03  0.80594247136E+02 0.  0.
         24    2    4    4    0    0  0.25359076536E+03  0.21314542316E+03  0.20167997592E+03  0.39590588062E+03  0.79544993133E+02 0.  0.
         13    1    3    3    0    0 -0.43917408590E+02  0.65916020311E+02 -0.24492305933E+02  0.82906776326E+02  0.00000000000E+00 0. -1.
        -13    1    3    3    0    0  0.31858516178E+02  0.18477750009E+03 -0.41320933794E+02  0.19200288843E+03  0.00000000000E+00 0.  1.
          2    1    6    6  502    0  0.24982324085E+02 -0.12314383135E+01  0.38946154101E+01  0.25314047211E+02  0.00000000000E+00 0. -1.
          1    1    5    5  503    0 -0.17567291882E+02 -0.55432336198E+02  0.52431133796E+02  0.78296726825E+02  0.00000000000E+00 0. -1.
         -2    1    5    5    0  503 -0.22396458107E+03 -0.40840660737E+03  0.75133114712E+03  0.88399919861E+03  0.00000000000E+00 0.  1.
         -1    1    6    6    0  502  0.22860844127E+03  0.21437686148E+03  0.19778536051E+03  0.37059183341E+03  0.00000000000E+00 0.  1.
<mgrwt>
<rscale>  0 0.13357209E+04</rscale>
<asrwt>0</asrwt>
<pdfrwt beam="1">  1        1 0.19790311E+00 0.13357209E+04</pdfrwt>
<pdfrwt beam="2">  1       -1 0.53344805E-01 0.13357209E+04</pdfrwt>
<totfact> 0.32130709E+01</totfact>
</mgrwt>
</event>
<event>
12    1  0.1442183E-007  0.1177392E+04  0.7818608E-02  0.9132878E-01
          1   -1    0    0  501    0  0.00000000000E+00  0.00000000000E+00  0.13177253106E+04  0.13177253106E+04  0.00000000000E+00 0. -1.
         -1   -1    0    0    0  501 -0.00000000000E+00 -0.00000000000E+00 -0.26300109673E+03  0.26300109673E+03  0.00000000000E+00 0.  1.
         23    2    1    2    0    0  0.18441845240E+03 -0.11116692900E+03  0.10458269746E+03  0.25882091547E+03  0.98399562953E+02 0.  0.
        254    2    1    2    0    0 -0.18441845240E+03  0.11116692900E+03  0.95014151641E+03  0.13219054919E+04  0.89347466475E+03 0.  0.
        -24    2    4    4    0    0  0.85439852715E+02 -0.35361403154E+03  0.44589554080E+03  0.58074762687E+03  0.78116074393E+02 0.  0.
         24    2    4    4    0    0 -0.26985830511E+03  0.46478096054E+03  0.50424597561E+03  0.74115786500E+03  0.78778999810E+02 0.  0.
         13    1    3    3    0    0 -0.12155898907E+02 -0.55086043889E+01  0.33294469604E+01  0.13754847059E+02  0.00000000000E+00 0. -1.
        -13    1    3    3    0    0  0.19657435130E+03 -0.10565832461E+03  0.10125325050E+03  0.24506606841E+03  0.00000000000E+00 0.  1.
          4    1    6    6  502    0 -0.13237963715E+03  0.15560337840E+03  0.20573464191E+03  0.28993710108E+03  0.00000000000E+00 0. -1.
          3    1    5    5  503    0  0.22162618723E+02 -0.15182019437E+02  0.43869540964E+02  0.51441345309E+02  0.00000000000E+00 0. -1.
         -4    1    5    5    0  503  0.63277233992E+02 -0.33843201211E+03  0.40202599984E+03  0.52930628157E+03  0.00000000000E+00 0.  1.
         -3    1    6    6    0  502 -0.13747866796E+03  0.30917758214E+03  0.29851133370E+03  0.45122076392E+03  0.00000000000E+00 0.  1.
<mgrwt>
<rscale>  0 0.11773924E+04</rscale>
<asrwt>0</asrwt>
<pdfrwt beam="1">  1        1 0.20272697E+00 0.11773924E+04</pdfrwt>
<pdfrwt beam="2">  1       -1 0.40461708E-01 0.11773924E+04</pdfrwt>
<totfact> 0.51917171E+01</totfact>
</mgrwt>
</event>
<event>
12    1  0.1442183E-007  0.1498522E+04  0.7818608E-02  0.8885437E-01
          2   -1    0    0  501    0  0.00000000000E+00  0.00000000000E+00  0.10026029025E+04  0.10026029025E+04  0.00000000000E+00 0. -1.
         -2   -1    0    0    0  501 -0.00000000000E+00 -0.00000000000E+00 -0.55993436702E+03  0.55993436702E+03  0.00000000000E+00 0.  1.
         23    2    1    2    0    0 -0.44944507046E+03 -0.25106749434E+02  0.28882500080E+03  0.54398084223E+03  0.99317951045E+02 0.  0.
        254    2    1    2    0    0  0.44944507046E+03  0.25106749434E+02  0.15384353466E+03  0.10185564273E+04  0.90064318247E+03 0.  0.
        -24    2    4    4    0    0  0.34049309494E+03 -0.41224301852E+03  0.14746017260E+03  0.56033408881E+03  0.79686476659E+02 0.  0.
         24    2    4    4    0    0  0.10895197552E+03  0.43734976795E+03  0.63833620614E+01  0.45822233846E+03  0.82350541271E+02 0.  0.
         11    1    3    3    0    0 -0.11649268045E+03  0.19195611065E+02  0.11889196242E+03  0.16755391613E+03  0.00000000000E+00 0.  1.
        -11    1    3    3    0    0 -0.33295239001E+03 -0.44302360499E+02  0.16993303837E+03  0.37642692610E+03  0.00000000000E+00 0. -1.
          4    1    6    6  502    0  0.10958529736E+03  0.43275803371E+03  0.16892017225E+02  0.44673682787E+03  0.00000000000E+00 0. -1.
          3    1    5    5  503    0  0.31063958315E+03 -0.40210918973E+03  0.13085403084E+03  0.52470137075E+03  0.00000000000E+00 0. -1.
         -4    1    5    5    0  503  0.29853511790E+02 -0.10133828792E+02  0.16606141758E+02  0.35632718059E+02  0.00000000000E+00 0.  1.
         -3    1    6    6    0  502 -0.63332183124E+00  0.45917342493E+01 -0.10508655164E+02  0.11485510581E+02  0.00000000000E+00 0.  1.
<mgrwt>
<rscale>  0 0.14985217E+04</rscale>
<asrwt>0</asrwt>
<pdfrwt beam="1">  1        2 0.15424660E+00 0.14985217E+04</pdfrwt>
<pdfrwt beam="2">  1       -2 0.86143749E-01 0.14985217E+04</pdfrwt>
<totfact> 0.28343103E+01</totfact>
</mgrwt>
</event>
<event>
12    1  0.1442183E-007  0.2337937E+04  0.7818608E-02  0.8463112E-01
         -2   -1    0    0    0  501 -0.00000000000E+00  0.00000000000E+00  0.15498785258E+04  0.15498785258E+04  0.00000000000E+00 0.  1.
          2   -1    0    0  501    0  0.00000000000E+00 -0.00000000000E+00 -0.88167355262E+03  0.88167355262E+03  0.00000000000E+00 0. -1.
         23    2    1    2    0    0 -0.93435665843E+03  0.16368839511E+03 -0.27073819491E+02  0.95359300932E+03  0.93757025718E+02 0.  0.
        254    2    1    2    0    0  0.93435665843E+03 -0.16368839511E+03  0.69527879264E+03  0.14779590691E+04  0.89506097807E+03 0.  0.
        -24    2    4    4    0    0  0.10059082378E+04 -0.18764661047E+03  0.30307466081E+03  0.10702557717E+04  0.80811716885E+02 0.  0.
         24    2    4    4    0    0 -0.71551579346E+02  0.23958215367E+02  0.39220413184E+03  0.40770329736E+03  0.81879625402E+02 0.  0.
         13    1    3    3    0    0 -0.93530102100E+03  0.16178167528E+03 -0.23556381784E+02  0.94948207643E+03  0.00000000000E+00 0.  1.
        -13    1    3    3    0    0  0.94436256975E+00  0.19067198313E+01 -0.35174377078E+01  0.41109328876E+01  0.00000000000E+00 0. -1.
          2    1    6    6  502    0 -0.10233147349E+02  0.40600002610E+02  0.22441188597E+03  0.22828441051E+03  0.00000000000E+00 0. -1.
          1    1    5    5  503    0  0.69632552151E+03 -0.91750219380E+02  0.20930371969E+03  0.73286791561E+03  0.00000000000E+00 0. -1.
         -2    1    5    5    0  503  0.30958271628E+03 -0.95896391095E+02  0.93770941120E+02  0.33738785609E+03  0.00000000000E+00 0.  1.
         -1    1    6    6    0  502 -0.61318431997E+02 -0.16641787243E+02  0.16779224587E+03  0.17941888685E+03  0.00000000000E+00 0.  1.
<mgrwt>
<rscale>  0 0.23379366E+04</rscale>
<asrwt>0</asrwt>
<pdfrwt beam="1">  1        2 0.13564209E+00 0.23379366E+04</pdfrwt>
<pdfrwt beam="2">  1       -2 0.23844285E+00 0.23379366E+04</pdfrwt>
<totfact> 0.20653008E+00</totfact>
</mgrwt>
</event>
<event>
12    1  0.1442183E-007  0.1695772E+04  0.7818608E-02  0.8763779E-01
         -1   -1    0    0    0  501 -0.00000000000E+00  0.00000000000E+00  0.33294705823E+03  0.33294705823E+03  0.00000000000E+00 0.  1.
          1   -1    0    0  501    0  0.00000000000E+00 -0.00000000000E+00 -0.21592340534E+04  0.21592340534E+04  0.00000000000E+00 0. -1.
         23    2    1    2    0    0 -0.43137515531E+03  0.23962949099E+03 -0.11656231971E+04  0.12689755628E+04  0.90081761045E+02 0.  0.
        254    2    1    2    0    0  0.43137515531E+03 -0.23962949099E+03 -0.66066379806E+03  0.12232055489E+04  0.90346463303E+03 0.  0.
        -24    2    4    4    0    0  0.27272152562E+03  0.21263902390E+03 -0.64808873989E+03  0.73849972242E+03  0.75963413783E+02 0.  0.
         24    2    4    4    0    0  0.15865362970E+03 -0.45226851489E+03 -0.12575058179E+02  0.48470582645E+03  0.71160539115E+02 0.  0.
         13    1    3    3    0    0 -0.10401371638E+03  0.91310359389E+02 -0.39815370045E+03  0.42152438139E+03  0.00000000000E+00 0.  1.
        -13    1    3    3    0    0 -0.32736143894E+03  0.14831913160E+03 -0.76746949666E+03  0.84745118137E+03  0.00000000000E+00 0. -1.
          2    1    6    6  502    0  0.15147698073E+03 -0.36954968104E+03 -0.27540794437E+02  0.40033827922E+03  0.00000000000E+00 0. -1.
          1    1    5    5  503    0  0.24813086612E+03  0.17090011890E+03 -0.51231074211E+03  0.59433834963E+03  0.00000000000E+00 0. -1.
         -2    1    5    5    0  503  0.24590659493E+02  0.41738904997E+02 -0.13577799778E+03  0.14416137279E+03  0.00000000000E+00 0.  1.
         -1    1    6    6    0  502  0.71766489640E+01 -0.82718833849E+02  0.14965736258E+02  0.84367547229E+02  0.00000000000E+00 0.  1.
<mgrwt>
<rscale>  0 0.16957719E+04</rscale>
<asrwt>0</asrwt>
<pdfrwt beam="1">  1        1 0.33218986E+00 0.16957719E+04</pdfrwt>
<pdfrwt beam="2">  1       -1 0.51222624E-01 0.16957719E+04</pdfrwt>
<totfact> 0.84787078E+00</totfact>
</mgrwt>
</event>
<event>
12    1  0.1912495E-007  0.2783227E+04  0.7818608E-02  0.8308495E-01
          2   -1    0    0  501    0  0.00000000000E+00  0.00000000000E+00  0.14628601886E+04  0.14628601886E+04  0.00000000000E+00 0. -1.
         -2   -1    0    0    0  501 -0.00000000000E+00 -0.00000000000E+00 -0.13238365868E+04  0.13238365868E+04  0.00000000000E+00 0.  1.
         23    2    1    2    0    0 -0.91166300061E+03 -0.59529641224E+03  0.66340008061E+03  0.12788884262E+04  0.99743142693E+02 0.  0.
        254    2    1    2    0    0  0.91166300061E+03  0.59529641224E+03 -0.52437647881E+03  0.15078083492E+04  0.90166960760E+03 0.  0.
        -24    2    4    4    0    0  0.81727638341E+03  0.36626833287E+03  0.25227000070E+02  0.89972589344E+03  0.82323163515E+02 0.  0.
         24    2    4    4    0    0  0.94386617206E+02  0.22902807937E+03 -0.54960347888E+03  0.60808245576E+03  0.79609009304E+02 0.  0.
         13    1    3    3    0    0 -0.65136956854E+03 -0.46925405555E+03  0.45908328998E+03  0.92479140925E+03  0.00000000000E+00 0. -1.
        -13    1    3    3    0    0 -0.26029343207E+03 -0.12604235669E+03  0.20431679063E+03  0.35409701692E+03  0.00000000000E+00 0.  1.
          4    1    6    6  502    0  0.95469851203E+02  0.23518600149E+03 -0.53336893694E+03  0.59068550911E+03  0.00000000000E+00 0. -1.
          3    1    5    5  503    0  0.79223787495E+03  0.33850995753E+03  0.29938274201E+02  0.86204764492E+03  0.00000000000E+00 0. -1.
         -2    1    5    5    0  503  0.25038508455E+02  0.27758375341E+02 -0.47112741303E+01  0.37678248515E+02  0.00000000000E+00 0.  1.
         -3    1    6    6    0  502 -0.10832339965E+01 -0.61579221186E+01 -0.16234541940E+02  0.17396946649E+02  0.00000000000E+00 0.  1.
<mgrwt>
<rscale>  0 0.27832268E+04</rscale>
<asrwt>0</asrwt>
<pdfrwt beam="1">  1        2 0.22505541E+00 0.27832268E+04</pdfrwt>
<pdfrwt beam="2">  1       -2 0.20366717E+00 0.27832268E+04</pdfrwt>
<totfact> 0.14612225E+00</totfact>
</mgrwt>
</event>
<event>
12    1  0.1442183E-007  0.2601731E+04  0.7818608E-02  0.8367614E-01
         -1   -1    0    0    0  501 -0.00000000000E+00  0.00000000000E+00  0.95325136712E+03  0.95325136712E+03  0.00000000000E+00 0.  1.
          1   -1    0    0  501    0  0.00000000000E+00 -0.00000000000E+00 -0.17752409289E+04  0.17752409289E+04  0.00000000000E+00 0. -1.
         23    2    1    2    0    0  0.42980942368E+03  0.11161939017E+01  0.74577477451E+03  0.86561306157E+03  0.91479896594E+02 0.  0.
        254    2    1    2    0    0 -0.42980942368E+03 -0.11161939017E+01 -0.15677643363E+04  0.18628792344E+04  0.90977834742E+03 0.  0.
        -24    2    4    4    0    0  0.18808376964E+03 -0.25899643705E+03 -0.57343823590E+03  0.66148981358E+03  0.79263511552E+02 0.  0.
         24    2    4    4    0    0 -0.61789319332E+03  0.25788024315E+03 -0.99432610035E+03  0.12013894208E+04  0.79736619692E+02 0.  0.
         11    1    3    3    0    0  0.36069834847E+03 -0.19424681857E+02  0.66900664982E+03  0.76029633325E+03  0.00000000000E+00 0.  1.
        -11    1    3    3    0    0  0.69111075213E+02  0.20540875759E+02  0.76768124693E+02  0.10531672831E+03  0.00000000000E+00 0. -1.
          2    1    6    6  502    0 -0.31665822008E+03  0.98083385509E+02 -0.53383538143E+03  0.62838920529E+03  0.00000000000E+00 0. -1.
          3    1    5    5  503    0  0.10837682970E+03 -0.84602310557E+02 -0.25791392720E+03  0.29227158947E+03  0.00000000000E+00 0. -1.
         -4    1    5    5    0  503  0.79706939936E+02 -0.17439412649E+03 -0.31552430870E+03  0.36921822410E+03  0.00000000000E+00 0.  1.
         -1    1    6    6    0  502 -0.30123497325E+03  0.15979685764E+03 -0.46049071893E+03  0.57300021556E+03  0.00000000000E+00 0.  1.
<mgrwt>
<rscale>  0 0.26017308E+04</rscale>
<asrwt>0</asrwt>
<pdfrwt beam="1">  1        1 0.27311399E+00 0.26017308E+04</pdfrwt>
<pdfrwt beam="2">  1       -1 0.14665406E+00 0.26017308E+04</pdfrwt>
<totfact> 0.13824713E+00</totfact>
</mgrwt>
</event>
<event>
12    1  0.1442183E-007  0.1670608E+04  0.7818608E-02  0.8778307E-01
         -2   -1    0    0    0  501 -0.00000000000E+00  0.00000000000E+00  0.64573491269E+03  0.64573491269E+03  0.00000000000E+00 0.  1.
          2   -1    0    0  501    0  0.00000000000E+00 -0.00000000000E+00 -0.10805254430E+04  0.10805254430E+04  0.00000000000E+00 0. -1.
         23    2    1    2    0    0 -0.31393824793E+03  0.27012772385E+03 -0.57823806953E+03  0.71707797149E+03  0.91188493958E+02 0.  0.
        254    2    1    2    0    0  0.31393824793E+03 -0.27012772385E+03  0.14344753924E+03  0.10091823842E+04  0.90903557540E+03 0.  0.
        -24    2    4    4    0    0  0.12065883251E+03 -0.59512690008E+03  0.76628103713E+02  0.61692372993E+03  0.77385019290E+02 0.  0.
         24    2    4    4    0    0  0.19327941542E+03  0.32499917623E+03  0.66819435526E+02  0.39225865426E+03  0.80128758284E+02 0.  0.
         11    1    3    3    0    0 -0.75581285757E+02  0.53080086982E+02 -0.19865486659E+03  0.21907483290E+03  0.00000000000E+00 0. -1.
        -11    1    3    3    0    0 -0.23835696217E+03  0.21704763686E+03 -0.37958320294E+03  0.49800313858E+03  0.00000000000E+00 0.  1.
          4    1    6    6  502    0  0.15670570359E+03  0.30759510341E+03  0.67499666422E+02  0.35174938542E+03  0.00000000000E+00 0. -1.
          3    1    5    5  503    0  0.10665215419E+03 -0.33948815533E+03  0.35399191358E+02  0.35760312128E+03  0.00000000000E+00 0. -1.
         -4    1    5    5    0  503  0.14006678320E+02 -0.25563874475E+03  0.41228912355E+02  0.25932060865E+03  0.00000000000E+00 0.  1.
         -3    1    6    6    0  502  0.36573711831E+02  0.17404072824E+02 -0.68023089657E+00  0.40509268841E+02  0.00000000000E+00 0.  1.
<mgrwt>
<rscale>  0 0.16706083E+04</rscale>
<asrwt>0</asrwt>
<pdfrwt beam="1">  1        2 0.16623468E+00 0.16706083E+04</pdfrwt>
<pdfrwt beam="2">  1       -2 0.99343833E-01 0.16706083E+04</pdfrwt>
<totfact> 0.17927535E+01</totfact>
</mgrwt>
</event>
<event>
12    1  0.1442183E-007  0.1290467E+04  0.7818608E-02  0.9037159E-01
          1   -1    0    0  501    0  0.00000000000E+00  0.00000000000E+00  0.13071809022E+04  0.13071809022E+04  0.00000000000E+00 0. -1.
         -1   -1    0    0    0  501 -0.00000000000E+00 -0.00000000000E+00 -0.31849188668E+03  0.31849188668E+03  0.00000000000E+00 0.  1.
         23    2    1    2    0    0 -0.18176060588E+03  0.26524089909E+03  0.23908832946E+03  0.41013245724E+03  0.87497147405E+02 0.  0.
        254    2    1    2    0    0  0.18176060588E+03 -0.26524089909E+03  0.74960068608E+03  0.12155403317E+04  0.90124772227E+03 0.  0.
        -24    2    4    4    0    0  0.21953004270E+03 -0.48604718877E+03  0.80663156887E+03  0.97036195404E+03  0.80700214392E+02 0.  0.
         24    2    4    4    0    0 -0.37769436823E+02  0.22080628968E+03 -0.57030882791E+02  0.24517837761E+03  0.81718830964E+02 0.  0.
         13    1    3    3    0    0 -0.17576817411E+03  0.20145063909E+03  0.17514902953E+03  0.31961538380E+03  0.00000000000E+00 0.  1.
        -13    1    3    3    0    0 -0.59924317735E+01  0.63790259999E+02  0.63939299928E+02  0.90517073443E+02  0.00000000000E+00 0. -1.
          4    1    6    6  502    0  0.22010493340E+02  0.68141575165E+02 -0.35159716952E+02  0.79774317792E+02  0.00000000000E+00 0. -1.
          1    1    5    5  503    0  0.17092617396E+02 -0.58796386937E+02  0.14285401337E+03  0.15542342752E+03  0.00000000000E+00 0. -1.
         -2    1    5    5    0  503  0.20243742531E+03 -0.42725080183E+03  0.66377755550E+03  0.81493852653E+03  0.00000000000E+00 0.  1.
         -3    1    6    6    0  502 -0.59779930163E+02  0.15266471451E+03 -0.21871165839E+02  0.16540405981E+03  0.00000000000E+00 0.  1.
<mgrwt>
<rscale>  0 0.12904674E+04</rscale>
<asrwt>0</asrwt>
<pdfrwt beam="1">  1        1 0.20110475E+00 0.12904674E+04</pdfrwt>
<pdfrwt beam="2">  1       -1 0.48998752E-01 0.12904674E+04</pdfrwt>
<totfact> 0.36655587E+01</totfact>
</mgrwt>
</event>
<event>
12    1  0.1442183E-007  0.1595214E+04  0.7818608E-02  0.8823494E-01
          1   -1    0    0  501    0  0.00000000000E+00  0.00000000000E+00  0.96925932336E+03  0.96925932336E+03  0.00000000000E+00 0. -1.
         -1   -1    0    0    0  501 -0.00000000000E+00 -0.00000000000E+00 -0.65635354443E+03  0.65635354443E+03  0.00000000000E+00 0.  1.
         23    2    1    2    0    0  0.13431982263E+02  0.16784081848E+03  0.62358845362E+03  0.65242119693E+03  0.91868929549E+02 0.  0.
        254    2    1    2    0    0 -0.13431982263E+02 -0.16784081848E+03 -0.31068267469E+03  0.97319167086E+03  0.90676752555E+03 0.  0.
        -24    2    4    4    0    0 -0.23118236423E+03  0.15221274807E+03  0.18242155599E+03  0.34128516068E+03  0.81141423497E+02 0.  0.
         24    2    4    4    0    0  0.21775038197E+03 -0.32005356654E+03 -0.49310423068E+03  0.63190651018E+03  0.79401139685E+02 0.  0.
         13    1    3    3    0    0  0.49734947459E+02  0.78976179825E+02  0.35984523506E+03  0.37175179243E+03  0.00000000000E+00 0. -1.
        -13    1    3    3    0    0 -0.36302965196E+02  0.88864638651E+02  0.26374321856E+03  0.28066940449E+03  0.00000000000E+00 0.  1.
          2    1    6    6  502    0  0.57184353141E+02 -0.15007779069E+03 -0.18199905934E+03  0.24272834838E+03  0.00000000000E+00 0. -1.
          1    1    5    5  503    0 -0.39574769861E+02 -0.28249284508E+01  0.41294246056E+02  0.57265673729E+02  0.00000000000E+00 0. -1.
         -2    1    5    5    0  503 -0.19160759437E+03  0.15503767652E+03  0.14112730994E+03  0.28401948696E+03  0.00000000000E+00 0.  1.
         -1    1    6    6    0  502  0.16056602883E+03 -0.16997577585E+03 -0.31110517134E+03  0.38917816180E+03  0.00000000000E+00 0.  1.
<mgrwt>
<rscale>  0 0.15952138E+04</rscale>
<asrwt>0</asrwt>
<pdfrwt beam="1">  1        1 0.14911682E+00 0.15952138E+04</pdfrwt>
<pdfrwt beam="2">  1       -1 0.10097747E+00 0.15952138E+04</pdfrwt>
<totfact> 0.14317694E+01</totfact>
</mgrwt>
</event>
<event>
12    1  0.1442183E-007  0.2470213E+04  0.7818608E-02  0.8413675E-01
         -1   -1    0    0    0  501 -0.00000000000E+00  0.00000000000E+00  0.45508796498E+03  0.45508796498E+03  0.00000000000E+00 0. -1.
          1   -1    0    0  501    0  0.00000000000E+00 -0.00000000000E+00 -0.33520723092E+04  0.33520723092E+04  0.00000000000E+00 0.  1.
         23    2    1    2    0    0 -0.12684173491E+03  0.10468716712E+04 -0.96677862856E+03  0.14336220110E+04  0.92639257983E+02 0.  0.
        254    2    1    2    0    0  0.12684173491E+03 -0.10468716712E+04 -0.19302057157E+04  0.23735382632E+04  0.89216627386E+03 0.  0.
        -24    2    4    4    0    0  0.36803803182E+03 -0.56974638202E+03 -0.15997633323E+04  0.17399077585E+04  0.89293650972E+02 0.  0.
         24    2    4    4    0    0 -0.24119629691E+03 -0.47712528921E+03 -0.33044238340E+03  0.63363050467E+03  0.80444095267E+02 0.  0.
         11    1    3    3    0    0 -0.10571208476E+03  0.91651840786E+03 -0.88412602226E+03  0.12778340503E+04  0.00000000000E+00 0. -1.
        -11    1    3    3    0    0 -0.21129650146E+02  0.13035326336E+03 -0.82652606304E+02  0.15578796075E+03  0.00000000000E+00 0.  1.
          2    1    6    6  502    0 -0.15346226725E+03 -0.35852506140E+03 -0.26932243291E+03  0.47394668475E+03  0.00000000000E+00 0. -1.
          1    1    5    5  503    0  0.22677199969E+03 -0.27039284418E+03 -0.84756714055E+03  0.91810015127E+03  0.00000000000E+00 0. -1.
         -2    1    5    5    0  503  0.14126603213E+03 -0.29935353783E+03 -0.75219619175E+03  0.82180760725E+03  0.00000000000E+00 0.  1.
         -1    1    6    6    0  502 -0.87734029661E+02 -0.11860022781E+03 -0.61119950488E+02  0.15968381992E+03  0.00000000000E+00 0.  1.
<mgrwt>
<rscale>  0 0.24702128E+04</rscale>
<asrwt>0</asrwt>
<pdfrwt beam="1">  1        1 0.51570343E+00 0.24702128E+04</pdfrwt>
<pdfrwt beam="2">  1       -1 0.70013533E-01 0.24702128E+04</pdfrwt>
<totfact> 0.59891271E-01</totfact>
</mgrwt>
</event>
<event>
12    1  0.1442183E-007  0.1570243E+04  0.7818608E-02  0.8839040E-01
          1   -1    0    0  501    0  0.00000000000E+00  0.00000000000E+00  0.14629585005E+04  0.14629585005E+04  0.00000000000E+00 0. -1.
         -1   -1    0    0    0  501 -0.00000000000E+00 -0.00000000000E+00 -0.42134901268E+03  0.42134901268E+03  0.00000000000E+00 0.  1.
         23    2    1    2    0    0  0.39462583699E+03  0.32105661330E+03  0.44107151343E+03  0.67918660214E+03  0.89126092668E+02 0.  0.
        254    2    1    2    0    0 -0.39462583699E+03 -0.32105661330E+03  0.60053797437E+03  0.12051209110E+04  0.91261363751E+03 0.  0.
        -24    2    4    4    0    0 -0.52138128430E+03 -0.52461289982E+03  0.27493929197E+03  0.79303070748E+03  0.79050303377E+02 0.  0.
         24    2    4    4    0    0  0.12675544731E+03  0.20355628652E+03  0.32559868239E+03  0.41209020355E+03  0.79383428245E+02 0.  0.
         11    1    3    3    0    0  0.36994891776E+03  0.28469809395E+03  0.42804537091E+03  0.63335459737E+03  0.00000000000E+00 0. -1.
        -11    1    3    3    0    0  0.24676919233E+02  0.36358519347E+02  0.13026142523E+02  0.45832004768E+02  0.00000000000E+00 0.  1.
          4    1    6    6  502    0  0.26371282989E+02  0.67232620248E+02  0.15869418919E+03  0.17435456827E+03  0.00000000000E+00 0. -1.
          3    1    5    5  503    0 -0.39353829663E+03 -0.39559497044E+03  0.17028782996E+03  0.58340870458E+03  0.00000000000E+00 0. -1.
         -4    1    5    5    0  503 -0.12784298767E+03 -0.12901792938E+03  0.10465146201E+03  0.20962200290E+03  0.00000000000E+00 0.  1.
         -3    1    6    6    0  502  0.10038416432E+03  0.13632366627E+03  0.16690449320E+03  0.23773563528E+03  0.00000000000E+00 0.  1.
<mgrwt>
<rscale>  0 0.15702434E+04</rscale>
<asrwt>0</asrwt>
<pdfrwt beam="1">  1        1 0.22507054E+00 0.15702434E+04</pdfrwt>
<pdfrwt beam="2">  1       -1 0.64822926E-01 0.15702434E+04</pdfrwt>
<totfact> 0.16109801E+01</totfact>
</mgrwt>
</event>
<event>
12    1  0.1442183E-007  0.3892953E+04  0.7818608E-02  0.8026496E-01
         -2   -1    0    0    0  501 -0.00000000000E+00  0.00000000000E+00  0.11918918415E+04  0.11918918415E+04  0.00000000000E+00 0.  1.
          2   -1    0    0  501    0  0.00000000000E+00 -0.00000000000E+00 -0.31787869759E+04  0.31787869759E+04  0.00000000000E+00 0. -1.
         23    2    1    2    0    0 -0.12042720988E+04 -0.30940766665E+03 -0.24661640364E+04  0.27636175790E+04  0.98044258032E+02 0.  0.
        254    2    1    2    0    0  0.12042720988E+04  0.30940766665E+03  0.47926890199E+03  0.16070612384E+04  0.89829992290E+03 0.  0.
        -24    2    4    4    0    0  0.71248549719E+03 -0.26963841734E+03  0.29971306722E+03  0.82249233118E+03  0.79531455277E+02 0.  0.
         24    2    4    4    0    0  0.49178660156E+03  0.57904608399E+03  0.17955583477E+03  0.78456890720E+03  0.78483396266E+02 0.  0.
         11    1    3    3    0    0 -0.79777415934E+03 -0.15765574784E+03 -0.16278207098E+04  0.18196426043E+04  0.00000000000E+00 0. -1.
        -11    1    3    3    0    0 -0.40649793941E+03 -0.15175191881E+03 -0.83834332656E+03  0.94397497467E+03  0.00000000000E+00 0.  1.
          2    1    6    6  502    0  0.65969121541E+01  0.11995099793E+02  0.15075825947E+02  0.20363747125E+02  0.00000000000E+00 0. -1.
          1    1    5    5  503    0  0.15490429903E+03 -0.39295262202E+02  0.34546017679E+02  0.16350194747E+03  0.00000000000E+00 0. -1.
         -2    1    5    5    0  503  0.55758119816E+03 -0.23034315513E+03  0.26516704954E+03  0.65899038371E+03  0.00000000000E+00 0.  1.
         -1    1    6    6    0  502  0.48518968941E+03  0.56705098419E+03  0.16448000882E+03  0.76420516007E+03  0.00000000000E+00 0.  1.
<mgrwt>
<rscale>  0 0.38929527E+04</rscale>
<asrwt>0</asrwt>
<pdfrwt beam="1">  1        2 0.48904414E+00 0.38929527E+04</pdfrwt>
<pdfrwt beam="2">  1       -2 0.18336798E+00 0.38929527E+04</pdfrwt>
<totfact> 0.18294394E-01</totfact>
</mgrwt>
</event>
<event>
12    1  0.1442183E-007  0.1192491E+04  0.7818608E-02  0.9119455E-01
          2   -1    0    0  501    0  0.00000000000E+00  0.00000000000E+00  0.24086080771E+04  0.24086080771E+04  0.00000000000E+00 0. -1.
         -2   -1    0    0    0  501 -0.00000000000E+00 -0.00000000000E+00 -0.14759924566E+03  0.14759924566E+03  0.00000000000E+00 0.  1.
         23    2    1    2    0    0  0.65951306682E+02 -0.60170696193E+01 -0.98080483414E+01  0.11367741119E+03  0.91872607576E+02 0.  0.
        254    2    1    2    0    0 -0.65951306682E+02  0.60170696193E+01  0.22708168798E+04  0.24425299115E+04  0.89719411915E+03 0.  0.
        -24    2    4    4    0    0 -0.19805517962E+03  0.58370706251E+02  0.22688344389E+04  0.22797300213E+04  0.83224186053E+02 0.  0.
         24    2    4    4    0    0  0.13210387293E+03 -0.52353636632E+02  0.19824408533E+01  0.16279989029E+03  0.79420008144E+02 0.  0.
         11    1    3    3    0    0  0.81863706471E+02 -0.21309970850E+02  0.84789622990E+01  0.85015728524E+02  0.00000000000E+00 0.  1.
        -11    1    3    3    0    0 -0.15912399789E+02  0.15292901231E+02 -0.18287010640E+02  0.28661682666E+02  0.00000000000E+00 0. -1.
          4    1    6    6  502    0  0.41184211326E+02  0.20737877498E+02  0.17267682368E+01  0.46143044484E+02  0.00000000000E+00 0. -1.
          1    1    5    5  503    0 -0.53457722443E+02 -0.21061359585E+02  0.62749809927E+03  0.63012314157E+03  0.00000000000E+00 0. -1.
         -2    1    5    5    0  503 -0.14459745717E+03  0.79432065836E+02  0.16413363396E+04  0.16496068797E+04  0.00000000000E+00 0.  1.
         -3    1    6    6    0  502  0.90919661609E+02 -0.73091514130E+02  0.25567261652E+00  0.11665684581E+03  0.00000000000E+00 0.  1.
<mgrwt>
<rscale>  0 0.11924911E+04</rscale>
<asrwt>0</asrwt>
<pdfrwt beam="1">  1        2 0.37055506E+00 0.11924911E+04</pdfrwt>
<pdfrwt beam="2">  1       -2 0.22707578E-01 0.11924911E+04</pdfrwt>
<totfact> 0.66565558E+01</totfact>
</mgrwt>
</event>
<event>
12    1  0.1442183E-007  0.1138978E+04  0.7818608E-02  0.9168013E-01
         -2   -1    0    0    0  501 -0.00000000000E+00  0.00000000000E+00  0.22004042095E+03  0.22004042095E+03  0.00000000000E+00 0.  1.
          2   -1    0    0  501    0  0.00000000000E+00 -0.00000000000E+00 -0.14738994207E+04  0.14738994207E+04  0.00000000000E+00 0. -1.
         23    2    1    2    0    0  0.11108199397E+03  0.15855205609E+03 -0.32173370074E+03  0.38603133742E+03  0.89608344485E+02 0.  0.
        254    2    1    2    0    0 -0.11108199397E+03 -0.15855205609E+03 -0.93212529900E+03  0.13079085042E+04  0.89682167598E+03 0.  0.
        -24    2    4    4    0    0  0.34920804297E+03 -0.10446110862E+03 -0.16433025129E+03  0.40746685009E+03  0.78526568372E+02 0.  0.
         24    2    4    4    0    0 -0.46029003694E+03 -0.54090947470E+02 -0.76779504771E+03  0.90044165413E+03  0.80580323318E+02 0.  0.
         11    1    3    3    0    0  0.24583341748E+02  0.39024463706E+02 -0.16263798479E+03  0.16905136366E+03  0.00000000000E+00 0. -1.
        -11    1    3    3    0    0  0.86498652224E+02  0.11952759238E+03 -0.15909571595E+03  0.21697997375E+03  0.00000000000E+00 0.  1.
          4    1    6    6  502    0  0.20472324394E+01 -0.27954581103E+01 -0.15992694793E+02  0.16363741425E+02  0.00000000000E+00 0. -1.
          3    1    5    5  503    0  0.47299325945E+02 -0.36905237658E+02 -0.70446289218E+01  0.60405708324E+02  0.00000000000E+00 0. -1.
         -4    1    5    5    0  503  0.30190871703E+03 -0.67555870963E+02 -0.15728562237E+03  0.34706114176E+03  0.00000000000E+00 0.  1.
         -3    1    6    6    0  502 -0.46233726938E+03 -0.51295489360E+02 -0.75180235292E+03  0.88407791271E+03  0.00000000000E+00 0.  1.
<mgrwt>
<rscale>  0 0.11389775E+04</rscale>
<asrwt>0</asrwt>
<pdfrwt beam="1">  1        2 0.22675376E+00 0.11389775E+04</pdfrwt>
<pdfrwt beam="2">  1       -2 0.33852372E-01 0.11389775E+04</pdfrwt>
<totfact> 0.10613527E+02</totfact>
</mgrwt>
</event>
<event>
12    1  0.1442183E-007  0.1988457E+04  0.7818608E-02  0.8612036E-01
         -2   -1    0    0    0  501 -0.00000000000E+00  0.00000000000E+00  0.46388576537E+03  0.46388576537E+03  0.00000000000E+00 0.  1.
          2   -1    0    0  501    0  0.00000000000E+00 -0.00000000000E+00 -0.21308924071E+04  0.21308924071E+04  0.00000000000E+00 0. -1.
         23    2    1    2    0    0  0.68851049946E+03  0.83957137133E+02 -0.11715758525E+04  0.13652594558E+04  0.10123188548E+03 0.  0.
        254    2    1    2    0    0 -0.68851049946E+03 -0.83957137133E+02 -0.49543078923E+03  0.12295187167E+04  0.88609768033E+03 0.  0.
        -24    2    4    4    0    0 -0.43316077809E+03  0.31578107879E+03 -0.39113931759E+01  0.54172898863E+03  0.78160403884E+02 0.  0.
         24    2    4    4    0    0 -0.25534972137E+03 -0.39973821592E+03 -0.49151939605E+03  0.68778972807E+03  0.80431783967E+02 0.  0.
         11    1    3    3    0    0  0.28765449931E+03  0.50049067790E+01 -0.56323023268E+03  0.63245431066E+03  0.00000000000E+00 0. -1.
        -11    1    3    3    0    0  0.40085600014E+03  0.78952230354E+02 -0.60834561984E+03  0.73280514511E+03  0.00000000000E+00 0.  1.
          2    1    6    6  502    0 -0.90378722796E+02 -0.88009285013E+02 -0.10117409019E+03  0.16171006249E+03  0.00000000000E+00 0. -1.
          3    1    5    5  503    0 -0.59263463146E+02  0.68791616761E+02  0.20020487724E+02  0.92979914656E+02  0.00000000000E+00 0. -1.
         -4    1    5    5    0  503 -0.37389731494E+03  0.24698946203E+03 -0.23931880899E+02  0.44874907398E+03  0.00000000000E+00 0.  1.
         -1    1    6    6    0  502 -0.16497099858E+03 -0.31172893091E+03 -0.39034530586E+03  0.52607966559E+03  0.00000000000E+00 0.  1.
<mgrwt>
<rscale>  0 0.19884573E+04</rscale>
<asrwt>0</asrwt>
<pdfrwt beam="1">  1        2 0.32782960E+00 0.19884573E+04</pdfrwt>
<pdfrwt beam="2">  1       -2 0.71367040E-01 0.19884573E+04</pdfrwt>
<totfact> 0.93556834E+00</totfact>
</mgrwt>
</event>
<event>
12    1  0.1442183E-007  0.2142404E+04  0.7818608E-02  0.8542791E-01
          2   -1    0    0  501    0  0.00000000000E+00  0.00000000000E+00  0.14056304683E+04  0.14056304683E+04  0.00000000000E+00 0. -1.
         -2   -1    0    0    0  501 -0.00000000000E+00 -0.00000000000E+00 -0.81634085505E+03  0.81634085505E+03  0.00000000000E+00 0.  1.
         23    2    1    2    0    0 -0.61252814780E+03  0.61875983277E+03  0.11135065170E+03  0.88261089310E+03  0.92458414869E+02 0.  0.
        254    2    1    2    0    0  0.61252814780E+03 -0.61875983277E+03  0.47793896152E+03  0.13393604302E+04  0.89855787159E+03 0.  0.
        -24    2    4    4    0    0  0.28893641683E+02 -0.28558402716E+03  0.58343686165E+03  0.65441222168E+03  0.73916880735E+02 0.  0.
         24    2    4    4    0    0  0.58363450612E+03 -0.33317580561E+03 -0.10549790012E+03  0.68494820854E+03  0.79930515287E+02 0.  0.
         11    1    3    3    0    0 -0.55986405344E+03  0.57787686453E+03  0.78905195167E+02  0.80846487785E+03  0.00000000000E+00 0.  1.
        -11    1    3    3    0    0 -0.52664094365E+02  0.40882968240E+02  0.32445456538E+02  0.74146015250E+02  0.00000000000E+00 0. -1.
          2    1    6    6  502    0  0.40195615027E+03 -0.25212016074E+03 -0.10521721395E+03  0.48600821423E+03  0.00000000000E+00 0. -1.
          1    1    5    5  503    0 -0.92809996669E+01 -0.10884109009E+03  0.28815878569E+03  0.30816879403E+03  0.00000000000E+00 0. -1.
         -2    1    5    5    0  503  0.38174641350E+02 -0.17674293707E+03  0.29527807596E+03  0.34624342765E+03  0.00000000000E+00 0.  1.
         -1    1    6    6    0  502  0.18167835586E+03 -0.81055644867E+02 -0.28068617517E+00  0.19893999431E+03  0.00000000000E+00 0.  1.
<mgrwt>
<rscale>  0 0.21424039E+04</rscale>
<asrwt>0</asrwt>
<pdfrwt beam="1">  1        2 0.21625084E+00 0.21424039E+04</pdfrwt>
<pdfrwt beam="2">  1       -2 0.12559090E+00 0.21424039E+04</pdfrwt>
<totfact> 0.62514381E+00</totfact>
</mgrwt>
</event>
<event>
12    1  0.1442183E-007  0.2290725E+04  0.7818608E-02  0.8481587E-01
         -2   -1    0    0    0  501 -0.00000000000E+00  0.00000000000E+00  0.65803143363E+03  0.65803143363E+03  0.00000000000E+00 0.  1.
          2   -1    0    0  501    0  0.00000000000E+00 -0.00000000000E+00 -0.19936052928E+04  0.19936052928E+04  0.00000000000E+00 0. -1.
         23    2    1    2    0    0 -0.97189332775E+03  0.20936465991E+02 -0.66037522954E+03  0.11786012394E+04  0.89389381278E+02 0.  0.
        254    2    1    2    0    0  0.97189332775E+03 -0.20936465991E+02 -0.67519862964E+03  0.14730354871E+04  0.87688390374E+03 0.  0.
        -24    2    4    4    0    0  0.77640529343E+03 -0.28540717541E+03 -0.14363181883E+03  0.84330516274E+03  0.79190041573E+02 0.  0.
         24    2    4    4    0    0  0.19548803432E+03  0.26447070942E+03 -0.53156681081E+03  0.62973032435E+03  0.76398163284E+02 0.  0.
         13    1    3    3    0    0 -0.75167045692E+03  0.74083892267E+00 -0.55026565649E+03  0.93155854210E+03  0.00000000000E+00 0. -1.
        -13    1    3    3    0    0 -0.22022287083E+03  0.20195627068E+02 -0.11010957305E+03  0.24704269725E+03  0.00000000000E+00 0.  1.
          2    1    6    6  502    0  0.11026982462E+02  0.65058529800E+02 -0.10286600229E+03  0.12221137864E+03  0.00000000000E+00 0. -1.
          3    1    5    5  503    0  0.17330905483E+03 -0.51354332455E+02 -0.62792723913E+02  0.19135365720E+03  0.00000000000E+00 0. -1.
         -4    1    5    5    0  503  0.60309623860E+03 -0.23405284295E+03 -0.80839094917E+02  0.65195150554E+03  0.00000000000E+00 0.  1.
         -1    1    6    6    0  502  0.18446105185E+03  0.19941217962E+03 -0.42870080852E+03  0.50751894571E+03  0.00000000000E+00 0.  1.
<mgrwt>
<rscale>  0 0.22907247E+04</rscale>
<asrwt>0</asrwt>
<pdfrwt beam="1">  1        2 0.30670850E+00 0.22907247E+04</pdfrwt>
<pdfrwt beam="2">  1       -2 0.10123561E+00 0.22907247E+04</pdfrwt>
<totfact> 0.49026453E+00</totfact>
</mgrwt>
</event>
<event>
12    1  0.1442183E-007  0.1350499E+04  0.7818608E-02  0.8990450E-01
          2   -1    0    0  501    0  0.00000000000E+00  0.00000000000E+00  0.80917408229E+03  0.80917408229E+03  0.00000000000E+00 0.  1.
         -2   -1    0    0    0  501 -0.00000000000E+00 -0.00000000000E+00 -0.56349055795E+03  0.56349055795E+03  0.00000000000E+00 0. -1.
         23    2    1    2    0    0 -0.27118825159E+03 -0.24513471273E+02  0.31945645260E+03  0.42965039775E+03  0.91668212063E+02 0.  0.
        254    2    1    2    0    0  0.27118825159E+03  0.24513471273E+02 -0.73772928254E+02  0.94301424249E+03  0.89982744930E+03 0.  0.
        -24    2    4    4    0    0  0.51322243528E+03 -0.23875738228E+03 -0.70686881245E+02  0.57612652631E+03  0.80763750986E+02 0.  0.
         24    2    4    4    0    0 -0.24203418368E+03  0.26327085356E+03 -0.30860470090E+01  0.36688771618E+03  0.81883967860E+02 0.  0.
         11    1    3    3    0    0  0.46277221309E+01 -0.78712557394E+01  0.31733568689E+01  0.96665750322E+01  0.00000000000E+00 0. -1.
        -11    1    3    3    0    0 -0.27581597372E+03 -0.16642215534E+02  0.31628309573E+03  0.41998382272E+03  0.00000000000E+00 0.  1.
          4    1    6    6  502    0 -0.19702394093E+03  0.18160978473E+03  0.25994425073E+02  0.26921414775E+03  0.00000000000E+00 0. -1.
          3    1    5    5  503    0  0.24200119099E+03 -0.10375627042E+03 -0.72698072876E+02  0.27315737202E+03  0.00000000000E+00 0. -1.
         -4    1    5    5    0  503  0.27122124429E+03 -0.13500111187E+03  0.20111916308E+01  0.30296915429E+03  0.00000000000E+00 0.  1.
         -3    1    6    6    0  502 -0.45010242751E+02  0.81661068822E+02 -0.29080472082E+02  0.97673568431E+02  0.00000000000E+00 0.  1.
<mgrwt>
<rscale>  0 0.13504991E+04</rscale>
<asrwt>0</asrwt>
<pdfrwt beam="1">  1        2 0.12448832E+00 0.13504991E+04</pdfrwt>
<pdfrwt beam="2">  1       -2 0.86690855E-01 0.13504991E+04</pdfrwt>
<totfact> 0.38183126E+01</totfact>
</mgrwt>
</event>
<event>
12    1  0.1442183E-007  0.1549600E+04  0.7818608E-02  0.8852123E-01
          4   -1    0    0  501    0  0.00000000000E+00  0.00000000000E+00  0.24842518957E+03  0.24842518957E+03  0.00000000000E+00 0. -1.
         -4   -1    0    0    0  501 -0.00000000000E+00 -0.00000000000E+00 -0.24164830971E+04  0.24164830971E+04  0.00000000000E+00 0.  1.
         23    2    1    2    0    0 -0.11682064679E+03  0.48557468483E+03 -0.61369852912E+03  0.79657809922E+03  0.92092048756E+02 0.  0.
        254    2    1    2    0    0  0.11682064679E+03 -0.48557468483E+03 -0.15543593784E+04  0.18683301874E+04  0.90840231947E+03 0.  0.
        -24    2    4    4    0    0 -0.12095101332E+03 -0.58249043413E+03 -0.14680639802E+04  0.15860588924E+04  0.80291386144E+02 0.  0.
         24    2    4    4    0    0  0.23777166011E+03  0.96915749299E+02 -0.86295398132E+02  0.28227129499E+03  0.79386166452E+02 0.  0.
         11    1    3    3    0    0 -0.78977832572E+02  0.20970031151E+03 -0.33146090814E+03  0.40009755349E+03  0.00000000000E+00 0.  1.
        -11    1    3    3    0    0 -0.37842814223E+02  0.27587437332E+03 -0.28223762098E+03  0.39648054573E+03  0.00000000000E+00 0. -1.
          2    1    6    6  502    0  0.12579608142E+03  0.15239755123E+02 -0.18769072183E+02  0.12809833061E+03  0.00000000000E+00 0. -1.
          3    1    5    5  503    0 -0.70984755735E+02 -0.42862446490E+03 -0.11473372347E+04  0.12268416759E+04  0.00000000000E+00 0. -1.
         -4    1    5    5    0  503 -0.49966257582E+02 -0.15386596922E+03 -0.32072674552E+03  0.35921721656E+03  0.00000000000E+00 0.  1.
         -3    1    6    6    0  502  0.11197557870E+03  0.81675994176E+02 -0.67526325949E+02  0.15417296438E+03  0.00000000000E+00 0.  1.
<mgrwt>
<rscale>  0 0.15496003E+04</rscale>
<asrwt>0</asrwt>
<pdfrwt beam="1">  1        4 0.38219258E-01 0.15496003E+04</pdfrwt>
<pdfrwt beam="2">  1       -4 0.37176665E+00 0.15496003E+04</pdfrwt>
<totfact> 0.13857250E-01</totfact>
</mgrwt>
</event>
<event>
12    1  0.1442183E-007  0.2538412E+04  0.7818608E-02  0.8389427E-01
          1   -1    0    0  501    0  0.00000000000E+00  0.00000000000E+00  0.47004801499E+03  0.47004801499E+03  0.00000000000E+00 0. -1.
         -1   -1    0    0    0  501 -0.00000000000E+00 -0.00000000000E+00 -0.34270631790E+04  0.34270631790E+04  0.00000000000E+00 0.  1.
         23    2    1    2    0    0  0.47788109296E+03 -0.41370664530E+03 -0.26904369691E+04  0.27651485155E+04  0.89842643612E+02 0.  0.
        254    2    1    2    0    0 -0.47788109296E+03  0.41370664530E+03 -0.26657819486E+03  0.11319626785E+04  0.90041770533E+03 0.  0.
        -24    2    4    4    0    0 -0.14491209599E+03  0.55554252366E+03 -0.43481107367E+03  0.72453602768E+03  0.79150328304E+02 0.  0.
         24    2    4    4    0    0 -0.33296899697E+03 -0.14183587836E+03  0.16823287881E+03  0.40742665077E+03  0.81904852812E+02 0.  0.
         11    1    3    3    0    0  0.55271750062E+02 -0.38068496433E+02 -0.18775309005E+03  0.19938756130E+03  0.00000000000E+00 0. -1.
        -11    1    3    3    0    0  0.42260934290E+03 -0.37563814886E+03 -0.25026838791E+04  0.25657609542E+04  0.00000000000E+00 0.  1.
          2    1    6    6  502    0 -0.29515881486E+03 -0.15050679293E+03  0.14123224183E+03  0.36016325026E+03  0.00000000000E+00 0. -1.
          3    1    5    5  503    0 -0.12460060303E+03  0.40661929117E+03 -0.35714732573E+03  0.55535463490E+03  0.00000000000E+00 0. -1.
         -4    1    5    5    0  503 -0.20311492961E+02  0.14892323249E+03 -0.77663747939E+02  0.16918139279E+03  0.00000000000E+00 0.  1.
         -1    1    6    6    0  502 -0.37810182115E+02  0.86709145663E+01  0.27000636980E+02  0.47263400516E+02  0.00000000000E+00 0.  1.
<mgrwt>
<rscale>  0 0.25384123E+04</rscale>
<asrwt>0</asrwt>
<pdfrwt beam="1">  1        1 0.72315080E-01 0.25384123E+04</pdfrwt>
<pdfrwt beam="2">  1       -1 0.52724049E+00 0.25384123E+04</pdfrwt>
<totfact> 0.42809612E-02</totfact>
</mgrwt>
</event>
<event>
12    1  0.1442183E-007  0.1862418E+04  0.7818608E-02  0.8673793E-01
         -1   -1    0    0    0  501 -0.00000000000E+00  0.00000000000E+00  0.13551458930E+04  0.13551458930E+04  0.00000000000E+00 0.  1.
          1   -1    0    0  501    0  0.00000000000E+00 -0.00000000000E+00 -0.63989457538E+03  0.63989457538E+03  0.00000000000E+00 0. -1.
         23    2    1    2    0    0  0.25118986757E+03  0.16006462591E+02  0.10195817398E+04  0.10560252412E+04  0.11085950369E+03 0.  0.
        254    2    1    2    0    0 -0.25118986757E+03 -0.16006462591E+02 -0.30433042216E+03  0.93901522717E+03  0.85192724724E+03 0.  0.
        -24    2    4    4    0    0 -0.27320161297E+03  0.19741927908E+03  0.18926770411E+03  0.39496119009E+03  0.80985089855E+02 0.  0.
         24    2    4    4    0    0  0.22011745402E+02 -0.21342574167E+03 -0.49359812627E+03  0.54405403708E+03  0.79502332403E+02 0.  0.
         13    1    3    3    0    0  0.17848434906E+02  0.79956813049E+01  0.27502349997E+03  0.27571801371E+03  0.00000000000E+00 0. -1.
        -13    1    3    3    0    0  0.23334143266E+03  0.80107812861E+01  0.74455823980E+03  0.78030722748E+03  0.00000000000E+00 0.  1.
          2    1    6    6  502    0 -0.26899440882E+02 -0.70102263091E+02 -0.12909285314E+03  0.14934146089E+03  0.00000000000E+00 0. -1.
          1    1    5    5  503    0 -0.19709514103E+03  0.18179191925E+03  0.15792255033E+03  0.31118214669E+03  0.00000000000E+00 0. -1.
         -2    1    5    5    0  503 -0.76106471945E+02  0.15627359833E+02  0.31345153782E+02  0.83779043399E+02  0.00000000000E+00 0.  1.
         -1    1    6    6    0  502  0.48911186283E+02 -0.14332347858E+03 -0.36450527313E+03  0.39471257618E+03  0.00000000000E+00 0.  1.
<mgrwt>
<rscale>  0 0.18624183E+04</rscale>
<asrwt>0</asrwt>
<pdfrwt beam="1">  1        1 0.98445319E-01 0.18624183E+04</pdfrwt>
<pdfrwt beam="2">  1       -1 0.20848398E+00 0.18624183E+04</pdfrwt>
<totfact> 0.38509989E+00</totfact>
</mgrwt>
</event>
<event>
12    1  0.1442183E-007  0.1280140E+04  0.7818608E-02  0.9045465E-01
          2   -1    0    0  501    0  0.00000000000E+00  0.00000000000E+00  0.33104644937E+04  0.33104644937E+04  0.00000000000E+00 0. -1.
         -2   -1    0    0    0  501 -0.00000000000E+00 -0.00000000000E+00 -0.12375587075E+03  0.12375587075E+03  0.00000000000E+00 0.  1.
         23    2    1    2    0    0  0.29614263939E+03  0.42912751309E+01  0.14242240373E+04  0.14577907704E+04  0.94978650390E+02 0.  0.
        254    2    1    2    0    0 -0.29614263939E+03 -0.42912751309E+01  0.17624845857E+04  0.19764295940E+04  0.84392129228E+03 0.  0.
        -24    2    4    4    0    0  0.14356961311E+03  0.11824560509E+02  0.92999786430E+01  0.16710378361E+03  0.84173219341E+02 0.  0.
         24    2    4    4    0    0 -0.43971225250E+03 -0.16115835640E+02  0.17531846070E+04  0.18093258104E+04  0.79981477823E+02 0.  0.
         11    1    3    3    0    0  0.34212467983E+02 -0.30264551066E+02  0.16903457204E+03  0.17509746589E+03  0.00000000000E+00 0.  1.
        -11    1    3    3    0    0  0.26193017141E+03  0.34555826197E+02  0.12551894653E+04  0.12826933045E+04  0.00000000000E+00 0. -1.
          4    1    6    6  502    0 -0.29953901888E+03  0.17522630389E+02  0.12783782068E+04  0.13131189992E+04  0.00000000000E+00 0. -1.
          1    1    5    5  503    0  0.15377294461E+03  0.38807874649E+01  0.10059351899E+02  0.15415047702E+03  0.00000000000E+00 0. -1.
         -2    1    5    5    0  503 -0.10203331499E+02  0.79437730446E+01 -0.75937325605E+00  0.12953306589E+02  0.00000000000E+00 0.  1.
         -3    1    6    6    0  502 -0.14017323362E+03 -0.33638466030E+02  0.47480640019E+03  0.49620681120E+03  0.00000000000E+00 0.  1.
<mgrwt>
<rscale>  0 0.12801397E+04</rscale>
<asrwt>0</asrwt>
<pdfrwt beam="1">  1        2 0.50930216E+00 0.12801397E+04</pdfrwt>
<pdfrwt beam="2">  1       -2 0.19039367E-01 0.12801397E+04</pdfrwt>
<totfact> 0.25514533E+01</totfact>
</mgrwt>
</event>
<event>
12    1  0.1442183E-007  0.2135739E+04  0.7818608E-02  0.8545661E-01
         -2   -1    0    0    0  501 -0.00000000000E+00  0.00000000000E+00  0.37387278291E+03  0.37387278291E+03  0.00000000000E+00 0. -1.
          2   -1    0    0  501    0  0.00000000000E+00 -0.00000000000E+00 -0.30500902782E+04  0.30500902782E+04  0.00000000000E+00 0.  1.
         23    2    1    2    0    0  0.45735261919E+03  0.72987697842E+03 -0.12927705291E+04  0.15561098509E+04  0.91271053227E+02 0.  0.
        254    2    1    2    0    0 -0.45735261919E+03 -0.72987697842E+03 -0.13834469662E+04  0.18678532102E+04  0.91272026646E+03 0.  0.
        -24    2    4    4    0    0  0.66778864779E+02 -0.66105717012E+03 -0.10234206463E+04  0.12228660331E+04  0.80966145278E+02 0.  0.
         24    2    4    4    0    0 -0.52413148397E+03 -0.68819808303E+02 -0.36002631990E+03  0.64498717714E+03  0.83303836387E+02 0.  0.
         13    1    3    3    0    0  0.21485208167E+03  0.33927668112E+03 -0.68494559078E+03  0.79399026800E+03  0.00000000000E+00 0.  1.
        -13    1    3    3    0    0  0.24250053753E+03  0.39060029730E+03 -0.60782493831E+03  0.76211958286E+03  0.00000000000E+00 0. -1.
          2    1    6    6  502    0 -0.50040572410E+03 -0.58129777512E+02 -0.31859144322E+03  0.59605827520E+03  0.00000000000E+00 0. -1.
          3    1    5    5  503    0  0.44548993530E+02 -0.16250883376E+03 -0.29852864485E+03  0.34280181690E+03  0.00000000000E+00 0. -1.
         -4    1    5    5    0  503  0.22229871248E+02 -0.49854833635E+03 -0.72489200142E+03  0.88006421617E+03  0.00000000000E+00 0.  1.
         -1    1    6    6    0  502 -0.23725759874E+02 -0.10690030791E+02 -0.41434876683E+02  0.48928901946E+02  0.00000000000E+00 0.  1.
<mgrwt>
<rscale>  0 0.21357394E+04</rscale>
<asrwt>0</asrwt>
<pdfrwt beam="1">  1        2 0.46924466E+00 0.21357394E+04</pdfrwt>
<pdfrwt beam="2">  1       -2 0.57518889E-01 0.21357394E+04</pdfrwt>
<totfact> 0.42193286E+00</totfact>
</mgrwt>
</event>
<event>
12    1  0.1442183E-007  0.1846784E+04  0.7818608E-02  0.8681809E-01
         -2   -1    0    0    0  501 -0.00000000000E+00  0.00000000000E+00  0.67973542347E+03  0.67973542347E+03  0.00000000000E+00 0.  1.
          2   -1    0    0  501    0  0.00000000000E+00 -0.00000000000E+00 -0.12543888261E+04  0.12543888261E+04  0.00000000000E+00 0. -1.
         23    2    1    2    0    0 -0.38389010349E+02 -0.60225247179E+03 -0.60046943606E+03  0.85625078105E+03  0.91761105655E+02 0.  0.
        254    2    1    2    0    0  0.38389010349E+02  0.60225247179E+03  0.25816033402E+02  0.10778734685E+04  0.89272783687E+03 0.  0.
        -24    2    4    4    0    0 -0.68876291418E+02  0.65172401213E+03 -0.29787217995E+03  0.72434815339E+03  0.80400747636E+02 0.  0.
         24    2    4    4    0    0  0.10726530177E+03 -0.49471540340E+02  0.32368821335E+03  0.35352531516E+03  0.79074716134E+02 0.  0.
         13    1    3    3    0    0  0.40345364725E+01 -0.31623072131E+03 -0.36811002968E+03  0.48530726404E+03  0.00000000000E+00 0. -1.
        -13    1    3    3    0    0 -0.42423546821E+02 -0.28602175049E+03 -0.23235940638E+03  0.37094351701E+03  0.00000000000E+00 0.  1.
          4    1    6    6  502    0  0.11124059373E+03 -0.28050454792E+02  0.22616254054E+03  0.25359572640E+03  0.00000000000E+00 0. -1.
          3    1    5    5  503    0 -0.51025757268E+02  0.27799310802E+03 -0.91661813689E+02  0.29712906977E+03  0.00000000000E+00 0. -1.
         -4    1    5    5    0  503 -0.17850534150E+02  0.37373090411E+03 -0.20621036626E+03  0.42721908362E+03  0.00000000000E+00 0.  1.
         -3    1    6    6    0  502 -0.39752919608E+01 -0.21421085548E+02  0.97525672809E+02  0.99929588757E+02  0.00000000000E+00 0.  1.
<mgrwt>
<rscale>  0 0.18467837E+04</rscale>
<asrwt>0</asrwt>
<pdfrwt beam="1">  1        2 0.19298289E+00 0.18467837E+04</pdfrwt>
<pdfrwt beam="2">  1       -2 0.10457468E+00 0.18467837E+04</pdfrwt>
<totfact> 0.12277413E+01</totfact>
</mgrwt>
</event>
<event>
12    1  0.1442183E-007  0.1333057E+04  0.7818608E-02  0.9003754E-01
          1   -1    0    0  501    0  0.00000000000E+00  0.00000000000E+00  0.85874541354E+03  0.85874541354E+03  0.00000000000E+00 0. -1.
         -1   -1    0    0    0  501 -0.00000000000E+00 -0.00000000000E+00 -0.51733620377E+03  0.51733620377E+03  0.00000000000E+00 0.  1.
         23    2    1    2    0    0  0.56891190984E+00 -0.22720937553E+03 -0.18935658350E+03  0.30878710021E+03  0.88708136877E+02 0.  0.
        254    2    1    2    0    0 -0.56891190984E+00  0.22720937553E+03  0.53076579328E+03  0.10672945171E+04  0.89765295906E+03 0.  0.
        -24    2    4    4    0    0  0.14161509042E+03  0.50011608690E+03  0.10591534999E+03  0.53666634836E+03  0.81374282697E+02 0.  0.
         24    2    4    4    0    0 -0.14218400233E+03 -0.27290671137E+03  0.42485044328E+03  0.53062816873E+03  0.79837276191E+02 0.  0.
         13    1    3    3    0    0 -0.22780225698E+02 -0.97411493704E+02 -0.35519889678E+02  0.10615837391E+03  0.00000000000E+00 0. -1.
        -13    1    3    3    0    0  0.23349137608E+02 -0.12979788183E+03 -0.15383669383E+03  0.20262872630E+03  0.00000000000E+00 0.  1.
          2    1    6    6  502    0 -0.11764147299E+03 -0.14051297225E+03  0.24337509548E+03  0.30465529478E+03  0.00000000000E+00 0. -1.
          1    1    5    5  503    0  0.10736857262E+03  0.39455618809E+03  0.11652782982E+03  0.42518387912E+03  0.00000000000E+00 0. -1.
         -2    1    5    5    0  503  0.34246517806E+02  0.10555989881E+03 -0.10612479820E+02  0.11148246923E+03  0.00000000000E+00 0.  1.
         -1    1    6    6    0  502 -0.24542529348E+02 -0.13239373912E+03  0.18147534781E+03  0.22597287396E+03  0.00000000000E+00 0.  1.
<mgrwt>
<rscale>  0 0.13330568E+04</rscale>
<asrwt>0</asrwt>
<pdfrwt beam="1">  1        1 0.13211468E+00 0.13330568E+04</pdfrwt>
<pdfrwt beam="2">  1       -1 0.79590185E-01 0.13330568E+04</pdfrwt>
<totfact> 0.30446076E+01</totfact>
</mgrwt>
</event>
<event>
12    1  0.1442183E-007  0.1671325E+04  0.7818608E-02  0.8777890E-01
          2   -1    0    0  501    0  0.00000000000E+00  0.00000000000E+00  0.39913535833E+03  0.39913535833E+03  0.00000000000E+00 0. -1.
         -2   -1    0    0    0  501 -0.00000000000E+00 -0.00000000000E+00 -0.17496107276E+04  0.17496107276E+04  0.00000000000E+00 0.  1.
         23    2    1    2    0    0 -0.54979879899E+03 -0.86527840376E+02 -0.21368189168E+03  0.60309173736E+03  0.91070886227E+02 0.  0.
        254    2    1    2    0    0  0.54979879899E+03  0.86527840376E+02 -0.11367934776E+04  0.15456543486E+04  0.88712015424E+03 0.  0.
        -24    2    4    4    0    0  0.27825817500E+03 -0.22705469221E+03 -0.10523903992E+04  0.11149232384E+04  0.80912483369E+02 0.  0.
         24    2    4    4    0    0  0.27154062398E+03  0.31358253258E+03 -0.84403078438E+02  0.43073111023E+03  0.79605869487E+02 0.  0.
         11    1    3    3    0    0 -0.54147203759E+03 -0.77928309321E+02 -0.19472972347E+03  0.58067585974E+03  0.00000000000E+00 0. -1.
        -11    1    3    3    0    0 -0.83267614002E+01 -0.85995310547E+01 -0.18952168213E+02  0.22415877626E+02  0.00000000000E+00 0.  1.
          2    1    6    6  502    0  0.10469373358E+03  0.12265917659E+03 -0.72737304059E+02  0.17690892248E+03  0.00000000000E+00 0. -1.
          3    1    5    5  503    0  0.57856532119E+02 -0.10904281685E+02 -0.19228950517E+03  0.20110080921E+03  0.00000000000E+00 0. -1.
         -4    1    5    5    0  503  0.22040164289E+03 -0.21615041052E+03 -0.86010089401E+03  0.91382242916E+03  0.00000000000E+00 0.  1.
         -1    1    6    6    0  502  0.16684689040E+03  0.19092335599E+03 -0.11665774380E+02  0.25382218775E+03  0.00000000000E+00 0.  1.
<mgrwt>
<rscale>  0 0.16713246E+04</rscale>
<asrwt>0</asrwt>
<pdfrwt beam="1">  1        2 0.61405440E-01 0.16713246E+04</pdfrwt>
<pdfrwt beam="2">  1       -2 0.26917088E+00 0.16713246E+04</pdfrwt>
<totfact> 0.37311170E+00</totfact>
</mgrwt>
</event>
<event>
12    1  0.1442183E-007  0.2766962E+04  0.7818608E-02  0.8313599E-01
         -1   -1    0    0    0  501 -0.00000000000E+00  0.00000000000E+00  0.10683050698E+04  0.10683050698E+04  0.00000000000E+00 0.  1.
          1   -1    0    0  501    0  0.00000000000E+00 -0.00000000000E+00 -0.17916412554E+04  0.17916412554E+04  0.00000000000E+00 0. -1.
         23    2    1    2    0    0 -0.37795592510E+03  0.28012107574E+03  0.85808297739E+03  0.98341164471E+03  0.97332258096E+02 0.  0.
        254    2    1    2    0    0  0.37795592510E+03 -0.28012107574E+03 -0.15814191630E+04  0.18765346805E+04  0.89396719161E+03 0.  0.
        -24    2    4    4    0    0 -0.96965504798E+02  0.17527616654E+03 -0.73229355098E+02  0.22925410126E+03  0.84088410731E+02 0.  0.
         24    2    4    4    0    0  0.47492142990E+03 -0.45539724229E+03 -0.15081898079E+04  0.16472805793E+04  0.77199723101E+02 0.  0.
         11    1    3    3    0    0 -0.14771362857E+03  0.63409211781E+02  0.34704866906E+03  0.38246937512E+03  0.00000000000E+00 0. -1.
        -11    1    3    3    0    0 -0.23024229653E+03  0.21671186396E+03  0.51103430833E+03  0.60094226959E+03  0.00000000000E+00 0.  1.
          2    1    6    6  502    0  0.31306386947E+03 -0.25780585103E+03 -0.87030489422E+03  0.96015803496E+03  0.00000000000E+00 0. -1.
          1    1    5    5  503    0 -0.62921778971E+01 -0.94948002163E+01 -0.29562335929E+01  0.11767839687E+02  0.00000000000E+00 0. -1.
         -2    1    5    5    0  503 -0.90673326901E+02  0.18477096676E+03 -0.70273121505E+02  0.21748626158E+03  0.00000000000E+00 0.  1.
         -1    1    6    6    0  502  0.16185756043E+03 -0.19759139125E+03 -0.63788491371E+03  0.68712254431E+03  0.00000000000E+00 0.  1.
<mgrwt>
<rscale>  0 0.27669618E+04</rscale>
<asrwt>0</asrwt>
<pdfrwt beam="1">  1        1 0.27563711E+00 0.27669618E+04</pdfrwt>
<pdfrwt beam="2">  1       -1 0.16435463E+00 0.27669618E+04</pdfrwt>
<totfact> 0.97107301E-01</totfact>
</mgrwt>
</event>
<event>
12    1  0.1442183E-007  0.1232489E+04  0.7818608E-02  0.9084885E-01
          2   -1    0    0  501    0  0.00000000000E+00  0.00000000000E+00  0.49473361869E+03  0.49473361869E+03  0.00000000000E+00 0. -1.
         -2   -1    0    0    0  501 -0.00000000000E+00 -0.00000000000E+00 -0.76759988473E+03  0.76759988473E+03  0.00000000000E+00 0.  1.
         23    2    1    2    0    0  0.34801094170E+02 -0.10363796859E+03 -0.32841808628E+03  0.35815340175E+03  0.91997147219E+02 0.  0.
        254    2    1    2    0    0 -0.34801094170E+02  0.10363796859E+03  0.55551820239E+02  0.90418010167E+03  0.89582571231E+03 0.  0.
        -24    2    4    4    0    0  0.10937907846E+03 -0.32038141267E+03  0.22955131446E+03  0.41678011543E+03  0.80023910524E+02 0.  0.
         24    2    4    4    0    0 -0.14418017263E+03  0.42401938126E+03 -0.17399949422E+03  0.48739998624E+03  0.81869192867E+02 0.  0.
         13    1    3    3    0    0  0.32459686041E+02 -0.68444423423E+02 -0.30846341851E+03  0.31762863674E+03  0.00000000000E+00 0.  1.
        -13    1    3    3    0    0  0.23414081290E+01 -0.35193545163E+02 -0.19954667771E+02  0.40524765009E+02  0.00000000000E+00 0. -1.
          2    1    6    6  502    0 -0.45908403766E+02  0.25617957308E+03 -0.11118208092E+03  0.28301415215E+03  0.00000000000E+00 0. -1.
          1    1    5    5  503    0 -0.17558322279E+01 -0.66378874661E+02  0.71772253827E+02  0.97777780541E+02  0.00000000000E+00 0. -1.
         -2    1    5    5    0  503  0.11113491069E+03 -0.25400253801E+03  0.15777906063E+03  0.31900233488E+03  0.00000000000E+00 0.  1.
         -1    1    6    6    0  502 -0.98271768862E+02  0.16783980818E+03 -0.62817413301E+02  0.20438583409E+03  0.00000000000E+00 0.  1.
<mgrwt>
<rscale>  0 0.12324893E+04</rscale>
<asrwt>0</asrwt>
<pdfrwt beam="1">  1        2 0.76112864E-01 0.12324893E+04</pdfrwt>
<pdfrwt beam="2">  1       -2 0.11809229E+00 0.12324893E+04</pdfrwt>
<totfact> 0.33909038E+01</totfact>
</mgrwt>
</event>
<event>
12    1  0.1442183E-007  0.2025505E+04  0.7818608E-02  0.8594788E-01
         -2   -1    0    0    0  501 -0.00000000000E+00  0.00000000000E+00  0.74154842197E+03  0.74154842197E+03  0.00000000000E+00 0.  1.
          2   -1    0    0  501    0  0.00000000000E+00 -0.00000000000E+00 -0.13831426209E+04  0.13831426209E+04  0.00000000000E+00 0. -1.
         23    2    1    2    0    0 -0.48228880460E+03 -0.43360925199E+03  0.25207875010E+03  0.70173763730E+03  0.90953509540E+02 0.  0.
        254    2    1    2    0    0  0.48228880460E+03  0.43360925199E+03 -0.89367294906E+03  0.14229534056E+04  0.89751076882E+03 0.  0.
        -24    2    4    4    0    0  0.12870034921E+03 -0.22793657619E+03 -0.29403118205E+02  0.27580546656E+03  0.81763374285E+02 0.  0.
         24    2    4    4    0    0  0.35358845539E+03  0.66154582818E+03 -0.86426983085E+03  0.11471479390E+04  0.79488206291E+02 0.  0.
         11    1    3    3    0    0  0.47886120651E+00  0.35333482128E+01  0.20877463856E+01  0.41318933455E+01  0.00000000000E+00 0.  1.
        -11    1    3    3    0    0 -0.48276766581E+03 -0.43714260020E+03  0.24999100371E+03  0.69760574395E+03  0.00000000000E+00 0. -1.
          2    1    6    6  502    0  0.10179731507E+03  0.27217901116E+03 -0.33814411155E+03  0.44585372898E+03  0.00000000000E+00 0. -1.
          3    1    5    5  503    0  0.10663044781E+03 -0.22848083635E+03 -0.26147895687E+02  0.25349015253E+03  0.00000000000E+00 0. -1.
         -4    1    5    5    0  503  0.22069901397E+02  0.54426016216E+00 -0.32552225177E+01  0.22315314034E+02  0.00000000000E+00 0.  1.
         -3    1    6    6    0  502  0.25179114032E+03  0.38936681702E+03 -0.52612571931E+03  0.70129421005E+03  0.00000000000E+00 0.  1.
<mgrwt>
<rscale>  0 0.20255046E+04</rscale>
<asrwt>0</asrwt>
<pdfrwt beam="1">  1        2 0.21279117E+00 0.20255046E+04</pdfrwt>
<pdfrwt beam="2">  1       -2 0.11408437E+00 0.20255046E+04</pdfrwt>
<totfact> 0.82500380E+00</totfact>
</mgrwt>
</event>
<event>
12    1  0.1442183E-007  0.1889349E+04  0.7818608E-02  0.8660176E-01
         -2   -1    0    0    0  501 -0.00000000000E+00  0.00000000000E+00  0.39578781218E+03  0.39578781218E+03  0.00000000000E+00 0.  1.
          2   -1    0    0  501    0  0.00000000000E+00 -0.00000000000E+00 -0.22547683712E+04  0.22547683712E+04  0.00000000000E+00 0. -1.
         23    2    1    2    0    0 -0.32562914348E+03 -0.64986109794E+03 -0.72468673309E+03  0.10304124598E+04  0.90692836276E+02 0.  0.
        254    2    1    2    0    0  0.32562914348E+03  0.64986109794E+03 -0.11342938260E+04  0.16201437236E+04  0.89993856222E+03 0.  0.
        -24    2    4    4    0    0 -0.26904391857E+02 -0.20877695491E+03 -0.25346656583E+03  0.33800352759E+03  0.75428253769E+02 0.  0.
         24    2    4    4    0    0  0.35253353534E+03  0.85863805285E+03 -0.88082726013E+03  0.12821401960E+04  0.80545767468E+02 0.  0.
         13    1    3    3    0    0 -0.32148506548E+03 -0.60311634948E+03 -0.69575324033E+03  0.97528177967E+03  0.00000000000E+00 0. -1.
        -13    1    3    3    0    0 -0.41440780062E+01 -0.46744748460E+02 -0.28933492766E+02  0.55130680159E+02  0.00000000000E+00 0.  1.
          2    1    6    6  502    0  0.23022677834E+03  0.65129772699E+03 -0.64265879532E+03  0.94350592253E+03  0.00000000000E+00 0. -1.
          3    1    5    5  503    0 -0.76950024803E+00 -0.19303022059E+03 -0.22162153556E+03  0.29390026066E+03  0.00000000000E+00 0. -1.
         -4    1    5    5    0  503 -0.26134891609E+02 -0.15746734326E+02 -0.31845030269E+02  0.44103266933E+02  0.00000000000E+00 0.  1.
         -1    1    6    6    0  502  0.12230675700E+03  0.20734032587E+03 -0.23816846481E+03  0.33863427347E+03  0.00000000000E+00 0.  1.
<mgrwt>
<rscale>  0 0.18893489E+04</rscale>
<asrwt>0</asrwt>
<pdfrwt beam="1">  1        2 0.34688744E+00 0.18893489E+04</pdfrwt>
<pdfrwt beam="2">  1       -2 0.60890432E-01 0.18893489E+04</pdfrwt>
<totfact> 0.11319012E+01</totfact>
</mgrwt>
</event>
<event>
12    1  0.1442183E-007  0.1606825E+04  0.7818608E-02  0.8816366E-01
         -1   -1    0    0    0  501 -0.00000000000E+00  0.00000000000E+00  0.81751908888E+03  0.81751908888E+03  0.00000000000E+00 0.  1.
          1   -1    0    0  501    0  0.00000000000E+00 -0.00000000000E+00 -0.78954965412E+03  0.78954965412E+03  0.00000000000E+00 0. -1.
         23    2    1    2    0    0 -0.46704430179E+03 -0.26599970970E+03 -0.10135129619E+03  0.55626831129E+03  0.10137121637E+03 0.  0.
        254    2    1    2    0    0  0.46704430179E+03  0.26599970970E+03  0.12932073094E+03  0.10508004317E+04  0.89362826189E+03 0.  0.
        -24    2    4    4    0    0 -0.43006712927E+02  0.47607499973E+03  0.71201660993E+02  0.48979620330E+03  0.79584304445E+02 0.  0.
         24    2    4    4    0    0  0.51005101471E+03 -0.21007529003E+03  0.58119069951E+02  0.56100422842E+03  0.84049110142E+02 0.  0.
         11    1    3    3    0    0 -0.17561474095E+03 -0.13245908892E+03  0.30219848516E+00  0.21996826771E+03  0.00000000000E+00 0. -1.
        -11    1    3    3    0    0 -0.29142956083E+03 -0.13354062079E+03 -0.10165349467E+03  0.33630004357E+03  0.00000000000E+00 0.  1.
          2    1    6    6  502    0  0.39548731042E+02  0.56471540519E+01 -0.15333707369E+01  0.39979290910E+02  0.00000000000E+00 0. -1.
          1    1    5    5  503    0  0.22605553174E+02  0.17410781833E+03  0.27376186584E+02  0.17769073985E+03  0.00000000000E+00 0. -1.
         -2    1    5    5    0  503 -0.65612266101E+02  0.30196718140E+03  0.43825474408E+02  0.31210546345E+03  0.00000000000E+00 0.  1.
         -1    1    6    6    0  502  0.47050228367E+03 -0.21572244408E+03  0.59652440688E+02  0.52102493751E+03  0.00000000000E+00 0.  1.
<mgrwt>
<rscale>  0 0.16068253E+04</rscale>
<asrwt>0</asrwt>
<pdfrwt beam="1">  1        1 0.12146918E+00 0.16068253E+04</pdfrwt>
<pdfrwt beam="2">  1       -1 0.12577217E+00 0.16068253E+04</pdfrwt>
<totfact> 0.11936740E+01</totfact>
</mgrwt>
</event>
<event>
12    1  0.1713688E-007  0.2183693E+04  0.7818608E-02  0.8525246E-01
          1   -1    0    0  501    0  0.00000000000E+00  0.00000000000E+00  0.97307303756E+03  0.97307303756E+03  0.00000000000E+00 0. -1.
         -1   -1    0    0    0  501 -0.00000000000E+00 -0.00000000000E+00 -0.12251177961E+04  0.12251177961E+04  0.00000000000E+00 0.  1.
         23    2    1    2    0    0  0.96902308609E+01 -0.70220220459E+03 -0.65317237280E+03  0.96404286951E+03  0.97788900016E+02 0.  0.
        254    2    1    2    0    0 -0.96902308609E+01  0.70220220459E+03  0.40112761429E+03  0.12341479641E+04  0.93222100258E+03 0.  0.
        -24    2    4    4    0    0  0.14749135491E+03  0.18750808917E+03 -0.27076913010E+03  0.36959272509E+03  0.79811511380E+02 0.  0.
         24    2    4    4    0    0 -0.15718158577E+03  0.51469411542E+03  0.67189674440E+03  0.86455523901E+03  0.79965260050E+02 0.  0.
         11    1    3    3    0    0  0.10946199921E+02 -0.17050731212E+02 -0.38827225991E+02  0.43796120898E+02  0.00000000000E+00 0. -1.
        -11    1    3    3    0    0 -0.12559690597E+01 -0.68515147338E+03 -0.61434514681E+03  0.92024674862E+03  0.00000000000E+00 0.  1.
          4    1    6    6  502    0 -0.10981449882E+03  0.44573447620E+03  0.54518523333E+03  0.71271690457E+03  0.00000000000E+00 0. -1.
          3    1    5    5  503    0  0.15656994319E+03  0.18183682554E+03 -0.26475329644E+03  0.35731370840E+03  0.00000000000E+00 0. -1.
         -4    1    5    5    0  503 -0.90785882819E+01  0.56712636303E+01 -0.60158336607E+01  0.12279016695E+02  0.00000000000E+00 0.  1.
         -3    1    6    6    0  502 -0.47367086951E+02  0.68959639224E+02  0.12671151107E+03  0.15183833444E+03  0.00000000000E+00 0.  1.
<mgrwt>
<rscale>  0 0.21836933E+04</rscale>
<asrwt>0</asrwt>
<pdfrwt beam="1">  1        1 0.14970354E+00 0.21836933E+04</pdfrwt>
<pdfrwt beam="2">  1       -1 0.18847966E+00 0.21836933E+04</pdfrwt>
<totfact> 0.26271103E+00</totfact>
</mgrwt>
</event>
<event>
12    1  0.1442183E-007  0.2057601E+04  0.7818608E-02  0.8580154E-01
         -1   -1    0    0    0  501 -0.00000000000E+00  0.00000000000E+00  0.59024922447E+03  0.59024922447E+03  0.00000000000E+00 0.  1.
          1   -1    0    0  501    0  0.00000000000E+00 -0.00000000000E+00 -0.17931931925E+04  0.17931931925E+04  0.00000000000E+00 0. -1.
         23    2    1    2    0    0 -0.23321081720E+03  0.36619728092E+03 -0.13030680545E+04  0.13764938289E+04  0.90890991673E+02 0.  0.
        254    2    1    2    0    0  0.23321081720E+03 -0.36619728092E+03  0.10012408644E+03  0.10069485882E+04  0.90301322953E+03 0.  0.
        -24    2    4    4    0    0  0.24008144122E+03 -0.64546788707E+03  0.15690397514E+03  0.71055591467E+03  0.77478763568E+02 0.  0.
         24    2    4    4    0    0 -0.68706240246E+01  0.27927060615E+03 -0.56779888704E+02  0.29639267349E+03  0.81150380186E+02 0.  0.
         13    1    3    3    0    0 -0.73676251943E+02  0.10069779955E+03 -0.51107753973E+03  0.52608790953E+03  0.00000000000E+00 0.  1.
        -13    1    3    3    0    0 -0.15953456525E+03  0.26549948137E+03 -0.79199051478E+03  0.85040591932E+03  0.00000000000E+00 0. -1.
          4    1    6    6  502    0 -0.33447854911E+01  0.51429016720E+02 -0.44670075799E+02  0.68202250862E+02  0.00000000000E+00 0. -1.
          3    1    5    5  503    0  0.46338268274E+02 -0.14428971338E+03  0.28102063906E+01  0.15157392175E+03  0.00000000000E+00 0. -1.
         -4    1    5    5    0  503  0.19374317295E+03 -0.50117817368E+03  0.15409376875E+03  0.55898199292E+03  0.00000000000E+00 0.  1.
         -3    1    6    6    0  502 -0.35258385335E+01  0.22784158943E+03 -0.12109812905E+02  0.22819042263E+03  0.00000000000E+00 0.  1.
<mgrwt>
<rscale>  0 0.20576014E+04</rscale>
<asrwt>0</asrwt>
<pdfrwt beam="1">  1        1 0.27587588E+00 0.20576014E+04</pdfrwt>
<pdfrwt beam="2">  1       -1 0.90807573E-01 0.20576014E+04</pdfrwt>
<totfact> 0.45007889E+00</totfact>
</mgrwt>
</event>
<event>
12    1  0.1442183E-007  0.1601719E+04  0.7818608E-02  0.8819492E-01
         -1   -1    0    0    0  501 -0.00000000000E+00  0.00000000000E+00  0.21947976555E+03  0.21947976555E+03  0.00000000000E+00 0.  1.
          1   -1    0    0  501    0  0.00000000000E+00 -0.00000000000E+00 -0.29222570130E+04  0.29222570130E+04  0.00000000000E+00 0. -1.
         23    2    1    2    0    0  0.49094869743E+03 -0.10445037688E+03 -0.13488603010E+04  0.14421584301E+04  0.91958257184E+02 0.  0.
        254    2    1    2    0    0 -0.49094869743E+03  0.10445037688E+03 -0.13539169465E+04  0.16995783485E+04  0.89640111559E+03 0.  0.
        -24    2    4    4    0    0 -0.41918041505E+03  0.46569413967E+03 -0.68470096812E+03  0.93147140713E+03  0.78995661092E+02 0.  0.
         24    2    4    4    0    0 -0.71768282380E+02 -0.36124376279E+03 -0.66921597835E+03  0.76810694138E+03  0.80563671757E+02 0.  0.
         11    1    3    3    0    0  0.30255930111E+03 -0.64712263779E+02 -0.69987378427E+03  0.76521442856E+03  0.00000000000E+00 0.  1.
        -11    1    3    3    0    0  0.18838939633E+03 -0.39738113103E+02 -0.64898651672E+03  0.67694400150E+03  0.00000000000E+00 0. -1.
          4    1    6    6  502    0 -0.85355659801E+02 -0.33201946843E+03 -0.63103928796E+03  0.71814559737E+03  0.00000000000E+00 0. -1.
          1    1    5    5  503    0 -0.25086323892E+03  0.25757979434E+03 -0.33809011709E+03  0.49354294886E+03  0.00000000000E+00 0. -1.
         -2    1    5    5    0  503 -0.16831717613E+03  0.20811434533E+03 -0.34661085102E+03  0.43792845826E+03  0.00000000000E+00 0.  1.
         -3    1    6    6    0  502  0.13587377422E+02 -0.29224294354E+02 -0.38176690397E+02  0.49961344011E+02  0.00000000000E+00 0.  1.
<mgrwt>
<rscale>  0 0.16017194E+04</rscale>
<asrwt>0</asrwt>
<pdfrwt beam="1">  1        1 0.44957800E+00 0.16017194E+04</pdfrwt>
<pdfrwt beam="2">  1       -1 0.33766118E-01 0.16017194E+04</pdfrwt>
<totfact> 0.54287731E+00</totfact>
</mgrwt>
</event>
<event>
12    1  0.1442183E-007  0.1770033E+04  0.7818608E-02  0.8722400E-01
          2   -1    0    0  501    0  0.00000000000E+00  0.00000000000E+00  0.26173293635E+03  0.26173293635E+03  0.00000000000E+00 0. -1.
         -2   -1    0    0    0  501 -0.00000000000E+00 -0.00000000000E+00 -0.29925716868E+04  0.29925716868E+04  0.00000000000E+00 0.  1.
         23    2    1    2    0    0 -0.53122161637E+02 -0.40235179490E+03 -0.76744909235E+02  0.42297889308E+03  0.91172539614E+02 0.  0.
        254    2    1    2    0    0  0.53122161637E+02  0.40235179490E+03 -0.26540938412E+04  0.28313257300E+04  0.89860021190E+03 0.  0.
        -24    2    4    4    0    0  0.30384997369E+03 -0.16138268332E+03 -0.11693397041E+04  0.12215326785E+04  0.80109699805E+02 0.  0.
         24    2    4    4    0    0 -0.25072781205E+03  0.56373447822E+03 -0.14847541371E+04  0.16097930516E+04  0.79232717965E+02 0.  0.
         11    1    3    3    0    0  0.14154627088E+02 -0.18874539358E+02 -0.17019098720E+02  0.29090400912E+02  0.00000000000E+00 0.  1.
        -11    1    3    3    0    0 -0.67276788725E+02 -0.38347725554E+03 -0.59725810515E+02  0.39388849217E+03  0.00000000000E+00 0. -1.
          4    1    6    6  502    0 -0.19394643031E+03  0.48953255343E+03 -0.13045158075E+04  0.14067760414E+04  0.00000000000E+00 0. -1.
          1    1    5    5  503    0  0.21194579872E+03 -0.14231230773E+03 -0.93126499920E+03  0.96562327709E+03  0.00000000000E+00 0. -1.
         -2    1    5    5    0  503  0.91904174969E+02 -0.19070375596E+02 -0.23807470492E+03  0.25590940140E+03  0.00000000000E+00 0.  1.
         -3    1    6    6    0  502 -0.56781381739E+02  0.74201924790E+02 -0.18023832957E+03  0.20301701012E+03  0.00000000000E+00 0.  1.
<mgrwt>
<rscale>  0 0.17700334E+04</rscale>
<asrwt>0</asrwt>
<pdfrwt beam="1">  1        2 0.40266604E-01 0.17700334E+04</pdfrwt>
<pdfrwt beam="2">  1       -2 0.46039566E+00 0.17700334E+04</pdfrwt>
<totfact> 0.35975671E-01</totfact>
</mgrwt>
</event>
<event>
12    1  0.1442183E-007  0.1481527E+04  0.7818608E-02  0.8896831E-01
         -1   -1    0    0    0  501 -0.00000000000E+00  0.00000000000E+00  0.33558156196E+03  0.33558156196E+03  0.00000000000E+00 0.  1.
          1   -1    0    0  501    0  0.00000000000E+00 -0.00000000000E+00 -0.16351626206E+04  0.16351626206E+04  0.00000000000E+00 0. -1.
         23    2    1    2    0    0 -0.30615523659E+03 -0.47001809836E+02  0.41704815462E+02  0.32478567053E+03  0.88352935026E+02 0.  0.
        254    2    1    2    0    0  0.30615523659E+03  0.47001809836E+02 -0.13412858741E+04  0.16459585121E+04  0.90232556666E+03 0.  0.
        -24    2    4    4    0    0 -0.27084143351E+03  0.59976925847E+02 -0.16607530600E+03  0.33383109283E+03  0.83125673176E+02 0.  0.
         24    2    4    4    0    0  0.57699667010E+03 -0.12975116010E+02 -0.11752105681E+04  0.13121274192E+04  0.86400080384E+02 0.  0.
         13    1    3    3    0    0 -0.29487638745E+03 -0.23928747989E+02  0.33058316248E+02  0.29768695156E+03  0.00000000000E+00 0.  1.
        -13    1    3    3    0    0 -0.11278849138E+02 -0.23073061848E+02  0.86464992140E+01  0.27098718965E+02  0.00000000000E+00 0. -1.
          2    1    6    6  502    0  0.57134123264E+03 -0.16668853195E+02 -0.11291921043E+04  0.12656158434E+04  0.00000000000E+00 0. -1.
          1    1    5    5  503    0 -0.21868155204E+03  0.38986919884E+02 -0.16650143909E+03  0.27760462954E+03  0.00000000000E+00 0. -1.
         -2    1    5    5    0  503 -0.52159881466E+02  0.20990005963E+02  0.42613308591E+00  0.56226463292E+02  0.00000000000E+00 0.  1.
         -1    1    6    6    0  502  0.56554374567E+01  0.36937371850E+01 -0.46018463846E+02  0.46511575784E+02  0.00000000000E+00 0.  1.
<mgrwt>
<rscale>  0 0.14815268E+04</rscale>
<asrwt>0</asrwt>
<pdfrwt beam="1">  1        1 0.25156348E+00 0.14815268E+04</pdfrwt>
<pdfrwt beam="2">  1       -1 0.51627932E-01 0.14815268E+04</pdfrwt>
<totfact> 0.19305989E+01</totfact>
</mgrwt>
</event>
<event>
12    1  0.1442183E-007  0.1587044E+04  0.7818608E-02  0.8828547E-01
          2   -1    0    0  501    0  0.00000000000E+00  0.00000000000E+00  0.26959745835E+04  0.26959745835E+04  0.00000000000E+00 0. -1.
         -2   -1    0    0    0  501 -0.00000000000E+00 -0.00000000000E+00 -0.23356209135E+03  0.23356209135E+03  0.00000000000E+00 0.  1.
         23    2    1    2    0    0 -0.30880580999E+03  0.35932568427E+03  0.38960741427E+03  0.62016723219E+03  0.91309818548E+02 0.  0.
        254    2    1    2    0    0  0.30880580999E+03 -0.35932568427E+03  0.20728050779E+04  0.23093694427E+04  0.90121604302E+03 0.  0.
        -24    2    4    4    0    0 -0.20910826783E+02  0.13665614350E+03  0.13927840403E+04  0.14018901485E+04  0.79601767142E+02 0.  0.
         24    2    4    4    0    0  0.32971663678E+03 -0.49598182777E+03  0.68002103760E+03  0.90747929418E+03  0.79868790780E+02 0.  0.
         13    1    3    3    0    0 -0.30133752830E+03  0.34462635226E+03  0.39299161786E+03  0.60333576087E+03  0.00000000000E+00 0.  1.
        -13    1    3    3    0    0 -0.74682816941E+01  0.14699332013E+02 -0.33842035837E+01  0.16831471326E+02  0.00000000000E+00 0. -1.
          4    1    6    6  502    0  0.30354112023E+03 -0.40603428756E+03  0.58373058038E+03  0.77313805030E+03  0.00000000000E+00 0. -1.
          3    1    5    5  503    0 -0.47547044123E+02  0.64237293626E+02  0.83046614879E+03  0.83430280808E+03  0.00000000000E+00 0. -1.
         -4    1    5    5    0  503  0.26636217340E+02  0.72418849875E+02  0.56231789153E+03  0.56758734044E+03  0.00000000000E+00 0.  1.
         -3    1    6    6    0  502  0.26175516544E+02 -0.89947540212E+02  0.96290457219E+02  0.13434124388E+03  0.00000000000E+00 0.  1.
<mgrwt>
<rscale>  0 0.15870444E+04</rscale>
<asrwt>0</asrwt>
<pdfrwt beam="1">  1        2 0.41476530E+00 0.15870444E+04</pdfrwt>
<pdfrwt beam="2">  1       -2 0.35932632E-01 0.15870444E+04</pdfrwt>
<totfact> 0.18734419E+01</totfact>
</mgrwt>
</event>
<event>
12    1  0.1442183E-007  0.1452765E+04  0.7818608E-02  0.8916486E-01
          1   -1    0    0  501    0  0.00000000000E+00  0.00000000000E+00  0.12491079997E+04  0.12491079997E+04  0.00000000000E+00 0. -1.
         -1   -1    0    0    0  501 -0.00000000000E+00 -0.00000000000E+00 -0.42240675922E+03  0.42240675922E+03  0.00000000000E+00 0.  1.
         23    2    1    2    0    0  0.45292298792E+03  0.92308541117E+02  0.45661992687E+03  0.65757478661E+03  0.10120643566E+03 0.  0.
        254    2    1    2    0    0 -0.45292298792E+03 -0.92308541117E+02  0.37008131363E+03  0.10139399723E+04  0.82307593150E+03 0.  0.
        -24    2    4    4    0    0 -0.67514542356E+03 -0.80427722060E+02  0.36858145326E+03  0.77729636082E+03  0.77764924103E+02 0.  0.
         24    2    4    4    0    0  0.22222243564E+03 -0.11880819057E+02  0.14998603672E+01  0.23664361150E+03  0.80461074583E+02 0.  0.
         11    1    3    3    0    0  0.73381914830E+02 -0.21894361005E+02  0.66153226499E+02  0.10119544379E+03  0.00000000000E+00 0.  1.
        -11    1    3    3    0    0  0.37954107309E+03  0.11420290212E+03  0.39046670037E+03  0.55637934282E+03  0.00000000000E+00 0. -1.
          4    1    6    6  502    0  0.13750574585E+03  0.14478972969E+02  0.33604024133E+02  0.14229090357E+03  0.00000000000E+00 0. -1.
          1    1    5    5  503    0 -0.63492957896E+03 -0.73410971757E+02  0.32310812460E+03  0.71618684796E+03  0.00000000000E+00 0. -1.
         -2    1    5    5    0  503 -0.40215844604E+02 -0.70167503030E+01  0.45473328664E+02  0.61109512859E+02  0.00000000000E+00 0.  1.
         -3    1    6    6    0  502  0.84716689786E+02 -0.26359792027E+02 -0.32104163765E+02  0.94352707937E+02  0.00000000000E+00 0.  1.
<mgrwt>
<rscale>  0 0.14527652E+04</rscale>
<asrwt>0</asrwt>
<pdfrwt beam="1">  1        1 0.19217046E+00 0.14527652E+04</pdfrwt>
<pdfrwt beam="2">  1       -1 0.64985656E-01 0.14527652E+04</pdfrwt>
<totfact> 0.22942082E+01</totfact>
</mgrwt>
</event>
<event>
12    1  0.1442183E-007  0.4603834E+04  0.7818608E-02  0.7892707E-01
         -1   -1    0    0    0  501 -0.00000000000E+00  0.00000000000E+00  0.22913438427E+04  0.22913438427E+04  0.00000000000E+00 0.  1.
          1   -1    0    0  501    0  0.00000000000E+00 -0.00000000000E+00 -0.23125385511E+04  0.23125385511E+04  0.00000000000E+00 0. -1.
         23    2    1    2    0    0 -0.17541037000E+02 -0.32087513855E+03  0.21823460040E+04  0.22077772435E+04  0.91529958562E+02 0.  0.
        254    2    1    2    0    0  0.17541037000E+02  0.32087513855E+03 -0.22035407124E+04  0.23961051504E+04  0.88456750902E+03 0.  0.
        -24    2    4    4    0    0  0.21486315242E+03 -0.12671912975E+03 -0.19306361945E+03  0.32536011430E+03  0.79760458308E+02 0.  0.
         24    2    4    4    0    0 -0.19732211542E+03  0.44759426830E+03 -0.20104770929E+04  0.20707450361E+04  0.81793746560E+02 0.  0.
         13    1    3    3    0    0 -0.38204942271E+02 -0.29046529595E+03  0.18021727074E+04  0.18258302695E+04  0.00000000000E+00 0.  1.
        -13    1    3    3    0    0  0.20663905271E+02 -0.30409842605E+02  0.38017329655E+03  0.38194697396E+03  0.00000000000E+00 0. -1.
          2    1    6    6  502    0 -0.88858374442E+02  0.12015677759E+03 -0.53454750702E+03  0.55504459205E+03  0.00000000000E+00 0. -1.
          1    1    5    5  503    0  0.89789127378E+01 -0.22627217294E+02 -0.45203715520E+02  0.51341871151E+02  0.00000000000E+00 0. -1.
         -2    1    5    5    0  503  0.20588423968E+03 -0.10409191246E+03 -0.14785990393E+03  0.27401824315E+03  0.00000000000E+00 0.  1.
         -1    1    6    6    0  502 -0.10846374098E+03  0.32743749071E+03 -0.14759295859E+04  0.15157004440E+04  0.00000000000E+00 0.  1.
<mgrwt>
<rscale>  0 0.46038336E+04</rscale>
<asrwt>0</asrwt>
<pdfrwt beam="1">  1        1 0.35577516E+00 0.46038336E+04</pdfrwt>
<pdfrwt beam="2">  1       -1 0.35251444E+00 0.46038336E+04</pdfrwt>
<totfact> 0.20328666E-02</totfact>
</mgrwt>
</event>
<event>
12    1  0.1442183E-007  0.3303438E+04  0.7818608E-02  0.8162021E-01
          1   -1    0    0  501    0  0.00000000000E+00  0.00000000000E+00  0.19949162296E+04  0.19949162296E+04  0.00000000000E+00 0. -1.
         -1   -1    0    0    0  501 -0.00000000000E+00 -0.00000000000E+00 -0.13675642121E+04  0.13675642121E+04  0.00000000000E+00 0.  1.
         23    2    1    2    0    0 -0.24540645791E+03  0.41674780798E+03  0.17668049470E+04  0.18341029103E+04  0.91818840919E+02 0.  0.
        254    2    1    2    0    0  0.24540645791E+03 -0.41674780798E+03 -0.11394529296E+04  0.15283775314E+04  0.89648303648E+03 0.  0.
        -24    2    4    4    0    0  0.13792761402E+03  0.27277752967E+03 -0.33614072632E+03  0.46128842405E+03  0.79779789851E+02 0.  0.
         24    2    4    4    0    0  0.10747884388E+03 -0.68952533764E+03 -0.80331220325E+03  0.10670891073E+04  0.79823392377E+02 0.  0.
         11    1    3    3    0    0 -0.20323520320E+03  0.38852520268E+03  0.16377688128E+04  0.16954477477E+04  0.00000000000E+00 0. -1.
        -11    1    3    3    0    0 -0.42171254707E+02  0.28222605297E+02  0.12903613422E+03  0.13865516257E+03  0.00000000000E+00 0.  1.
          4    1    6    6  502    0  0.10062922139E+02 -0.19456061175E+02 -0.47642772336E+02  0.52436957142E+02  0.00000000000E+00 0. -1.
          1    1    5    5  503    0  0.30905597270E+02  0.68165267113E+02 -0.13813172575E+03  0.15710516619E+03  0.00000000000E+00 0. -1.
         -2    1    5    5    0  503  0.10702201675E+03  0.20461226255E+03 -0.19800900056E+03  0.30418325786E+03  0.00000000000E+00 0.  1.
         -3    1    6    6    0  502  0.97415921746E+02 -0.67006927647E+03 -0.75566943091E+03  0.10146521502E+04  0.00000000000E+00 0.  1.
<mgrwt>
<rscale>  0 0.33034382E+04</rscale>
<asrwt>0</asrwt>
<pdfrwt beam="1">  1        1 0.30691019E+00 0.33034382E+04</pdfrwt>
<pdfrwt beam="2">  1       -1 0.21039450E+00 0.33034382E+04</pdfrwt>
<totfact> 0.31832741E-01</totfact>
</mgrwt>
</event>
<event>
12    1  0.1442183E-007  0.1444550E+04  0.7818608E-02  0.8922187E-01
          1   -1    0    0  501    0  0.00000000000E+00  0.00000000000E+00  0.41245270277E+03  0.41245270277E+03  0.00000000000E+00 0. -1.
         -1   -1    0    0    0  501 -0.00000000000E+00 -0.00000000000E+00 -0.12648273601E+04  0.12648273601E+04  0.00000000000E+00 0.  1.
         23    2    1    2    0    0  0.39866350728E+03  0.17735910371E+03 -0.21681092769E+03  0.49530352765E+03  0.89049213569E+02 0.  0.
        254    2    1    2    0    0 -0.39866350728E+03 -0.17735910371E+03 -0.63556372969E+03  0.11819765353E+04  0.89595671307E+03 0.  0.
        -24    2    4    4    0    0 -0.49660646584E+03 -0.45879618298E+03 -0.37043665561E+03  0.77513733106E+03  0.80638990276E+02 0.  0.
         24    2    4    4    0    0  0.97942958561E+02  0.28143707927E+03 -0.26512707407E+03  0.40683920419E+03  0.80163083414E+02 0.  0.
         13    1    3    3    0    0  0.37878406072E+03  0.14300113709E+03 -0.18889197724E+03  0.44677384540E+03  0.00000000000E+00 0. -1.
        -13    1    3    3    0    0  0.19879446554E+02  0.34357966621E+02 -0.27918950447E+02  0.48529682254E+02  0.00000000000E+00 0.  1.
          2    1    6    6  502    0  0.94183875727E+02  0.15552168401E+03 -0.17086815196E+03  0.24950655703E+03  0.00000000000E+00 0. -1.
          1    1    5    5  503    0 -0.39689162548E+03 -0.32520102881E+03 -0.26051127899E+03  0.57545182075E+03  0.00000000000E+00 0. -1.
         -2    1    5    5    0  503 -0.99714840356E+02 -0.13359515416E+03 -0.10992537662E+03  0.19968551031E+03  0.00000000000E+00 0.  1.
         -1    1    6    6    0  502  0.37590828335E+01  0.12591539526E+03 -0.94258922112E+02  0.15733264717E+03  0.00000000000E+00 0.  1.
<mgrwt>
<rscale>  0 0.14445504E+04</rscale>
<asrwt>0</asrwt>
<pdfrwt beam="1">  1        1 0.63454263E-01 0.14445504E+04</pdfrwt>
<pdfrwt beam="2">  1       -1 0.19458882E+00 0.14445504E+04</pdfrwt>
<totfact> 0.91806141E+00</totfact>
</mgrwt>
</event>
<event>
12    1  0.1442183E-007  0.1600917E+04  0.7818608E-02  0.8819985E-01
         -2   -1    0    0    0  501 -0.00000000000E+00  0.00000000000E+00  0.10109561672E+04  0.10109561672E+04  0.00000000000E+00 0.  1.
          2   -1    0    0  501    0  0.00000000000E+00 -0.00000000000E+00 -0.63379001468E+03  0.63379001468E+03  0.00000000000E+00 0. -1.
         23    2    1    2    0    0  0.14776560753E+03  0.39752191921E+03  0.51011386298E+03  0.66855323614E+03  0.82999550171E+02 0.  0.
        254    2    1    2    0    0 -0.14776560753E+03 -0.39752191921E+03 -0.13294771049E+03  0.97619294570E+03  0.86914856180E+03 0.  0.
        -24    2    4    4    0    0  0.30799687931E+03 -0.36818984802E+03  0.23115887151E+02  0.48703853538E+03  0.79033846303E+02 0.  0.
         24    2    4    4    0    0 -0.45576248684E+03 -0.29332071193E+02 -0.15606359765E+03  0.48915441032E+03  0.79601355598E+02 0.  0.
         13    1    3    3    0    0  0.11708794703E+03  0.34412831200E+03  0.38728747939E+03  0.53115484950E+03  0.00000000000E+00 0.  1.
        -13    1    3    3    0    0  0.30677660500E+02  0.53393607212E+02  0.12282638359E+03  0.13739838664E+03  0.00000000000E+00 0. -1.
          4    1    6    6  502    0 -0.33001902805E+03 -0.52404638209E+02 -0.13078568275E+03  0.35883659205E+03  0.00000000000E+00 0. -1.
          1    1    5    5  503    0  0.25535883086E+03 -0.33995522041E+03  0.72769845251E+01  0.42524185928E+03  0.00000000000E+00 0. -1.
         -2    1    5    5    0  503  0.52638048446E+02 -0.28234627607E+02  0.15838902626E+02  0.61796676098E+02  0.00000000000E+00 0.  1.
         -3    1    6    6    0  502 -0.12574345879E+03  0.23072567017E+02 -0.25277914897E+02  0.13031781827E+03  0.00000000000E+00 0.  1.
<mgrwt>
<rscale>  0 0.16009171E+04</rscale>
<asrwt>0</asrwt>
<pdfrwt beam="1">  1        2 0.97506157E-01 0.16009171E+04</pdfrwt>
<pdfrwt beam="2">  1       -2 0.15553172E+00 0.16009171E+04</pdfrwt>
<totfact> 0.12089475E+01</totfact>
</mgrwt>
</event>
<event>
12    1  0.1442183E-007  0.3219818E+04  0.7818608E-02  0.8183603E-01
         -2   -1    0    0    0  501 -0.00000000000E+00  0.00000000000E+00  0.16246487536E+04  0.16246487536E+04  0.00000000000E+00 0.  1.
          2   -1    0    0  501    0  0.00000000000E+00 -0.00000000000E+00 -0.15953031212E+04  0.15953031212E+04  0.00000000000E+00 0. -1.
         23    2    1    2    0    0  0.19866670452E+03  0.24293119040E+02  0.14760908401E+04  0.14924173145E+04  0.91687825959E+02 0.  0.
        254    2    1    2    0    0 -0.19866670452E+03 -0.24293119040E+02 -0.14467452077E+04  0.17275345603E+04  0.92262958212E+03 0.  0.
        -24    2    4    4    0    0  0.67158296935E+02 -0.21742997939E+03 -0.13553147671E+04  0.13766321307E+04  0.80323547849E+02 0.  0.
         24    2    4    4    0    0 -0.26582500146E+03  0.19313686035E+03 -0.91430440569E+02  0.35090242962E+03  0.82511886575E+02 0.  0.
         13    1    3    3    0    0  0.22152265374E+02 -0.27850644228E+02  0.27881594741E+03  0.28107777176E+03  0.00000000000E+00 0. -1.
        -13    1    3    3    0    0  0.17651443915E+03  0.52143763268E+02  0.11972748927E+04  0.12113395428E+04  0.00000000000E+00 0.  1.
          4    1    6    6  502    0 -0.19228023376E+03  0.18130977439E+03 -0.70205993884E+02  0.27344799169E+03  0.00000000000E+00 0. -1.
          3    1    5    5  503    0  0.67212501991E+02 -0.18851535393E+03 -0.98130871684E+03  0.10015100383E+04  0.00000000000E+00 0. -1.
         -4    1    5    5    0  503 -0.54205056444E-01 -0.28914625460E+02 -0.37400605030E+03  0.37512209234E+03  0.00000000000E+00 0.  1.
         -3    1    6    6    0  502 -0.73544767696E+02  0.11827085963E+02 -0.21224446684E+02  0.77454437929E+02  0.00000000000E+00 0.  1.
<mgrwt>
<rscale>  0 0.32198181E+04</rscale>
<asrwt>0</asrwt>
<pdfrwt beam="1">  1        2 0.24543125E+00 0.32198181E+04</pdfrwt>
<pdfrwt beam="2">  1       -2 0.24994596E+00 0.32198181E+04</pdfrwt>
<totfact> 0.60661642E-01</totfact>
</mgrwt>
</event>
<event>
12    1  0.1442183E-007  0.1484828E+04  0.7818608E-02  0.8894605E-01
          2   -1    0    0  501    0  0.00000000000E+00  0.00000000000E+00  0.11598695126E+04  0.11598695126E+04  0.00000000000E+00 0. -1.
         -2   -1    0    0    0  501 -0.00000000000E+00 -0.00000000000E+00 -0.47520767814E+03  0.47520767814E+03  0.00000000000E+00 0.  1.
         23    2    1    2    0    0 -0.15512430916E+03 -0.21405196100E+03  0.74522423409E+03  0.79656589375E+03  0.96313398382E+02 0.  0.
        254    2    1    2    0    0  0.15512430916E+03  0.21405196100E+03 -0.60562399630E+02  0.83851129700E+03  0.79344287611E+03 0.  0.
        -24    2    4    4    0    0 -0.23777389985E+03 -0.15223471730E+03 -0.49187780605E+01  0.29304927503E+03  0.78369934393E+02 0.  0.
         24    2    4    4    0    0  0.39289820901E+03  0.36628667829E+03 -0.55643621570E+02  0.54546202197E+03  0.76796298377E+02 0.  0.
         13    1    3    3    0    0 -0.10155261261E+03 -0.18971583738E+03  0.49921991822E+03  0.54362262538E+03  0.00000000000E+00 0. -1.
        -13    1    3    3    0    0 -0.53571696555E+02 -0.24336123614E+02  0.24600431587E+03  0.25294326837E+03  0.00000000000E+00 0.  1.
          2    1    6    6  502    0  0.22279280853E+03  0.25629294655E+03 -0.24039218879E+02  0.34044176305E+03  0.00000000000E+00 0. -1.
          3    1    5    5  503    0 -0.19156797141E+03 -0.88617129192E+02 -0.23146872454E+02  0.21233713986E+03  0.00000000000E+00 0. -1.
         -4    1    5    5    0  503 -0.46205928438E+02 -0.63617588105E+02  0.18228094394E+02  0.80712135175E+02  0.00000000000E+00 0.  1.
         -1    1    6    6    0  502  0.17010540049E+03  0.10999373174E+03 -0.31604402690E+02  0.20502025892E+03  0.00000000000E+00 0.  1.
<mgrwt>
<rscale>  0 0.14848285E+04</rscale>
<asrwt>0</asrwt>
<pdfrwt beam="1">  1        2 0.17844146E+00 0.14848285E+04</pdfrwt>
<pdfrwt beam="2">  1       -2 0.73108874E-01 0.14848285E+04</pdfrwt>
<totfact> 0.32732063E+01</totfact>
</mgrwt>
</event>
<event>
12    1  0.1442183E-007  0.1527655E+04  0.7818608E-02  0.8866268E-01
         -1   -1    0    0    0  501 -0.00000000000E+00  0.00000000000E+00  0.68236030649E+03  0.68236030649E+03  0.00000000000E+00 0.  1.
          1   -1    0    0  501    0  0.00000000000E+00 -0.00000000000E+00 -0.85502112089E+03  0.85502112089E+03  0.00000000000E+00 0. -1.
         23    2    1    2    0    0  0.41255027220E+03  0.13720020691E+03  0.17079751848E+03  0.47670142280E+03  0.95135851875E+02 0.  0.
        254    2    1    2    0    0 -0.41255027220E+03 -0.13720020691E+03 -0.34345833287E+03  0.10606800046E+04  0.90446493676E+03 0.  0.
        -24    2    4    4    0    0 -0.38091126798E+03 -0.26517179440E+03 -0.59920942749E+03  0.76212317828E+03  0.79814323653E+02 0.  0.
         24    2    4    4    0    0 -0.31639004224E+02  0.12797158749E+03  0.25575109462E+03  0.29855682630E+03  0.79685647008E+02 0.  0.
         13    1    3    3    0    0  0.14138073104E+03  0.85502481142E+02  0.34309810335E+02  0.16874936585E+03  0.00000000000E+00 0. -1.
        -13    1    3    3    0    0  0.27116954117E+03  0.51697725768E+02  0.13648770814E+03  0.30795205695E+03  0.00000000000E+00 0.  1.
          2    1    6    6  502    0 -0.42596915881E+02  0.13462026537E+03  0.23581498223E+03  0.27485599672E+03  0.00000000000E+00 0. -1.
          1    1    5    5  503    0 -0.36459547405E+03 -0.23142708295E+03 -0.53242824502E+03  0.68554226020E+03  0.00000000000E+00 0. -1.
         -2    1    5    5    0  503 -0.16315793927E+02 -0.33744711442E+02 -0.66781182473E+02  0.76580918082E+02  0.00000000000E+00 0.  1.
         -1    1    6    6    0  502  0.10957911657E+02 -0.66486778810E+01  0.19936112387E+02  0.23700829575E+02  0.00000000000E+00 0.  1.
<mgrwt>
<rscale>  0 0.15276550E+04</rscale>
<asrwt>0</asrwt>
<pdfrwt beam="1">  1        1 0.13154171E+00 0.15276550E+04</pdfrwt>
<pdfrwt beam="2">  1       -1 0.10497851E+00 0.15276550E+04</pdfrwt>
<totfact> 0.16310630E+01</totfact>
</mgrwt>
</event>
<event>
12    1  0.1442183E-007  0.3301488E+04  0.7818608E-02  0.8162517E-01
          2   -1    0    0  501    0  0.00000000000E+00  0.00000000000E+00  0.17807425897E+04  0.17807425897E+04  0.00000000000E+00 0. -1.
         -2   -1    0    0    0  501 -0.00000000000E+00 -0.00000000000E+00 -0.15302353863E+04  0.15302353863E+04  0.00000000000E+00 0.  1.
         23    2    1    2    0    0  0.11808273386E+04  0.10553052449E+03 -0.84217635293E+03  0.14571267043E+04  0.92018082832E+02 0.  0.
        254    2    1    2    0    0 -0.11808273386E+04 -0.10553052449E+03  0.10926835563E+04  0.18538512718E+04  0.91505042942E+03 0.  0.
        -24    2    4    4    0    0 -0.94553152798E+03  0.10066583897E+03  0.30368842548E+03  0.10013872696E+04  0.79914469388E+02 0.  0.
         24    2    4    4    0    0 -0.23529581067E+03 -0.20619636346E+03  0.78899513086E+03  0.85246400221E+03  0.79375687131E+02 0.  0.
         13    1    3    3    0    0  0.22842013772E+03  0.12101929765E+02 -0.12053955482E+03  0.25855753769E+03  0.00000000000E+00 0. -1.
        -13    1    3    3    0    0  0.95240720092E+03  0.93428594723E+02 -0.72163679811E+03  0.11985691666E+04  0.00000000000E+00 0.  1.
          4    1    6    6  502    0 -0.18030487025E+03 -0.10882469843E+03  0.49635950922E+03  0.53918959896E+03  0.00000000000E+00 0. -1.
          3    1    5    5  503    0 -0.11318400286E+03  0.36322538598E+02  0.26977398322E+02  0.12189226938E+03  0.00000000000E+00 0. -1.
         -4    1    5    5    0  503 -0.83234752512E+03  0.64343300375E+02  0.27671102716E+03  0.87949500023E+03  0.00000000000E+00 0.  1.
         -3    1    6    6    0  502 -0.54990940413E+02 -0.97371665033E+02  0.29263562164E+03  0.31327440325E+03  0.00000000000E+00 0.  1.
<mgrwt>
<rscale>  0 0.33014877E+04</rscale>
<asrwt>0</asrwt>
<pdfrwt beam="1">  1        2 0.27396040E+00 0.33014877E+04</pdfrwt>
<pdfrwt beam="2">  1       -2 0.23542083E+00 0.33014877E+04</pdfrwt>
<totfact> 0.58415329E-01</totfact>
</mgrwt>
</event>
<event>
12    1  0.1442183E-007  0.2021877E+04  0.7818608E-02  0.8596460E-01
         -2   -1    0    0    0  501 -0.00000000000E+00  0.00000000000E+00  0.12715245461E+04  0.12715245461E+04  0.00000000000E+00 0. -1.
          2   -1    0    0  501    0  0.00000000000E+00 -0.00000000000E+00 -0.80375707507E+03  0.80375707507E+03  0.00000000000E+00 0.  1.
         23    2    1    2    0    0 -0.19885355180E+02 -0.10290285242E+03 -0.60408191187E+03  0.62024408761E+03  0.93826156180E+02 0.  0.
        254    2    1    2    0    0  0.19885355180E+02  0.10290285242E+03  0.10718493829E+04  0.14550375335E+04  0.97841131434E+03 0.  0.
        -24    2    4    4    0    0  0.53795198798E+02 -0.19897672337E+03 -0.99021561803E+02  0.24266823201E+03  0.81221556671E+02 0.  0.
         24    2    4    4    0    0 -0.33909843617E+02  0.30187957579E+03  0.11708709447E+04  0.12123693015E+04  0.81359685361E+02 0.  0.
         13    1    3    3    0    0 -0.17728286897E+02 -0.27653803123E+02 -0.42113639025E+03  0.42241553496E+03  0.00000000000E+00 0.  1.
        -13    1    3    3    0    0 -0.21570682832E+01 -0.75249049295E+02 -0.18294552162E+03  0.19782855265E+03  0.00000000000E+00 0. -1.
          2    1    6    6  502    0 -0.21684083104E+02  0.27288982286E+03  0.11163240072E+04  0.11493991230E+04  0.00000000000E+00 0. -1.
          3    1    5    5  503    0  0.19504392011E+00 -0.13574324446E+03 -0.80196304866E+02  0.15766329241E+03  0.00000000000E+00 0. -1.
         -4    1    5    5    0  503  0.53600154877E+02 -0.63233478909E+02 -0.18825256937E+02  0.85004939601E+02  0.00000000000E+00 0.  1.
         -1    1    6    6    0  502 -0.12225760513E+02  0.28989752930E+02  0.54546937430E+02  0.62970178482E+02  0.00000000000E+00 0.  1.
<mgrwt>
<rscale>  0 0.20218772E+04</rscale>
<asrwt>0</asrwt>
<pdfrwt beam="1">  1        2 0.12365493E+00 0.20218772E+04</pdfrwt>
<pdfrwt beam="2">  1       -2 0.19561916E+00 0.20218772E+04</pdfrwt>
<totfact> 0.45109780E+00</totfact>
</mgrwt>
</event>
<event>
12    1  0.1442183E-007  0.1268907E+04  0.7818608E-02  0.9054592E-01
         -2   -1    0    0    0  501 -0.00000000000E+00  0.00000000000E+00  0.64748709956E+03  0.64748709956E+03  0.00000000000E+00 0. -1.
          2   -1    0    0  501    0  0.00000000000E+00 -0.00000000000E+00 -0.62168195470E+03  0.62168195470E+03  0.00000000000E+00 0.  1.
         23    2    1    2    0    0 -0.13930843471E+03 -0.61209413270E+02  0.27130280984E+03  0.32440221120E+03  0.92076857851E+02 0.  0.
        254    2    1    2    0    0  0.13930843471E+03  0.61209413270E+02 -0.24549766498E+03  0.94476684307E+03  0.89953424170E+03 0.  0.
        -24    2    4    4    0    0  0.30435343909E+02 -0.36554985087E+03  0.89206269613E+02  0.38595101104E+03  0.80295832749E+02 0.  0.
         24    2    4    4    0    0  0.10887309080E+03  0.42675926414E+03 -0.33470393459E+03  0.55881583203E+03  0.79193376404E+02 0.  0.
         11    1    3    3    0    0 -0.34907955247E+02  0.24451695566E+02  0.71590173750E+02  0.83316287322E+02  0.00000000000E+00 0.  1.
        -11    1    3    3    0    0 -0.10440047946E+03 -0.85661108836E+02  0.19971263609E+03  0.24108592388E+03  0.00000000000E+00 0. -1.
          4    1    6    6  502    0  0.51768748845E+02  0.13682000049E+03 -0.70362539663E+02  0.16232868779E+03  0.00000000000E+00 0. -1.
          3    1    5    5  503    0 -0.17746377631E+02 -0.34435989110E+02  0.22387602695E+02  0.44743446665E+02  0.00000000000E+00 0. -1.
         -4    1    5    5    0  503  0.48181721540E+02 -0.33111386176E+03  0.66818666917E+02  0.34120756438E+03  0.00000000000E+00 0.  1.
         -3    1    6    6    0  502  0.57104341953E+02  0.28993926364E+03 -0.26434139493E+03  0.39648714423E+03  0.00000000000E+00 0.  1.
<mgrwt>
<rscale>  0 0.12689067E+04</rscale>
<asrwt>0</asrwt>
<pdfrwt beam="1">  1        2 0.95643377E-01 0.12689067E+04</pdfrwt>
<pdfrwt beam="2">  1       -2 0.99613400E-01 0.12689067E+04</pdfrwt>
<totfact> 0.38902359E+01</totfact>
</mgrwt>
</event>
<event>
12    1  0.1442183E-007  0.1476344E+04  0.7818608E-02  0.8900338E-01
          2   -1    0    0  501    0  0.00000000000E+00  0.00000000000E+00  0.96428266007E+03  0.96428266007E+03  0.00000000000E+00 0. -1.
         -2   -1    0    0    0  501 -0.00000000000E+00 -0.00000000000E+00 -0.56508089329E+03  0.56508089329E+03  0.00000000000E+00 0.  1.
         23    2    1    2    0    0 -0.84680464744E+02  0.28765718862E+03 -0.23774727662E+03  0.39309265642E+03  0.89892322897E+02 0.  0.
        254    2    1    2    0    0  0.84680464744E+02 -0.28765718862E+03  0.63694904340E+03  0.11362708969E+04  0.89190247677E+03 0.  0.
        -24    2    4    4    0    0  0.16826308508E+03  0.17603852219E+03 -0.85761199542E+02  0.26993560077E+03  0.78792246587E+02 0.  0.
         24    2    4    4    0    0 -0.83582620333E+02 -0.46369571080E+03  0.72271024294E+03  0.86633529617E+03  0.78911238105E+02 0.  0.
         13    1    3    3    0    0 -0.71387837594E+02  0.28492463625E+03 -0.24002942932E+03  0.37933151548E+03  0.00000000000E+00 0.  1.
        -13    1    3    3    0    0 -0.13292627150E+02  0.27325523674E+01  0.22821526937E+01  0.13761140938E+02  0.00000000000E+00 0. -1.
          4    1    6    6  502    0 -0.31891385211E+02 -0.22604563864E+03  0.41996294450E+03  0.47799849994E+03  0.00000000000E+00 0. -1.
          3    1    5    5  503    0  0.15278153305E+03  0.17632831556E+03 -0.94993401752E+02  0.25190795558E+03  0.00000000000E+00 0. -1.
         -4    1    5    5    0  503  0.15481552022E+02 -0.28979337424E+00  0.92322022093E+01  0.18027645183E+02  0.00000000000E+00 0.  1.
         -3    1    6    6    0  502 -0.51691235121E+02 -0.23765007216E+03  0.30274729844E+03  0.38833679622E+03  0.00000000000E+00 0.  1.
<mgrwt>
<rscale>  0 0.14763437E+04</rscale>
<asrwt>0</asrwt>
<pdfrwt beam="1">  1        2 0.14835118E+00 0.14763437E+04</pdfrwt>
<pdfrwt beam="2">  1       -2 0.86935522E-01 0.14763437E+04</pdfrwt>
<totfact> 0.29439768E+01</totfact>
</mgrwt>
</event>
<event>
12    1  0.1442183E-007  0.1107440E+04  0.7818608E-02  0.9197970E-01
          2   -1    0    0  501    0  0.00000000000E+00  0.00000000000E+00  0.13264691481E+04  0.13264691481E+04  0.00000000000E+00 0. -1.
         -2   -1    0    0    0  501 -0.00000000000E+00 -0.00000000000E+00 -0.23114453040E+03  0.23114453040E+03  0.00000000000E+00 0.  1.
         23    2    1    2    0    0 -0.92291670989E+02 -0.11843712089E+03  0.68613546783E+02  0.18870995825E+03  0.91424971442E+02 0.  0.
        254    2    1    2    0    0  0.92291670989E+02  0.11843712089E+03  0.10267110709E+04  0.13689037203E+04  0.89286990542E+03 0.  0.
        -24    2    4    4    0    0  0.24172945024E+03  0.36922395913E+03  0.95902132528E+03  0.10587510684E+04  0.80451621696E+02 0.  0.
         24    2    4    4    0    0 -0.14943777925E+03 -0.25078683824E+03  0.67689745657E+02  0.31015265184E+03  0.79919194637E+02 0.  0.
         11    1    3    3    0    0 -0.10792705614E+03 -0.11344155479E+03  0.51100523768E+02  0.16470731414E+03  0.00000000000E+00 0.  1.
        -11    1    3    3    0    0  0.15635385152E+02 -0.49955660988E+01  0.17513023014E+02  0.24002644117E+02  0.00000000000E+00 0. -1.
          4    1    6    6  502    0 -0.26824154541E+01  0.58161118782E+00 -0.87830662856E+01  0.92019496640E+01  0.00000000000E+00 0. -1.
          3    1    5    5  503    0  0.99465077358E+02  0.22480611704E+03  0.53269055450E+03  0.58667735488E+03  0.00000000000E+00 0. -1.
         -2    1    5    5    0  503  0.14226437288E+03  0.14441784209E+03  0.42633077077E+03  0.47207371354E+03  0.00000000000E+00 0.  1.
         -3    1    6    6    0  502 -0.14675536380E+03 -0.25136844943E+03  0.76472811942E+02  0.30095070217E+03  0.00000000000E+00 0.  1.
<mgrwt>
<rscale>  0 0.11074405E+04</rscale>
<asrwt>0</asrwt>
<pdfrwt beam="1">  1        2 0.20407217E+00 0.11074405E+04</pdfrwt>
<pdfrwt beam="2">  1       -2 0.35560698E-01 0.11074405E+04</pdfrwt>
<totfact> 0.11755188E+02</totfact>
</mgrwt>
</event>
<event>
12    1  0.1442183E-007  0.1220648E+04  0.7818608E-02  0.9094973E-01
         -2   -1    0    0    0  501 -0.00000000000E+00  0.00000000000E+00  0.67604895622E+03  0.67604895622E+03  0.00000000000E+00 0.  1.
          2   -1    0    0  501    0  0.00000000000E+00 -0.00000000000E+00 -0.55098882293E+03  0.55098882293E+03  0.00000000000E+00 0. -1.
         23    2    1    2    0    0 -0.19049741164E+03 -0.16391474078E+03 -0.32573692113E+01  0.26727659322E+03  0.90933276316E+02 0.  0.
        254    2    1    2    0    0  0.19049741164E+03  0.16391474078E+03  0.12831750251E+03  0.95976118593E+03  0.91734336346E+03 0.  0.
        -24    2    4    4    0    0 -0.30191205596E+03  0.27370824811E+03 -0.51699444748E+02  0.41821929128E+03  0.78533103799E+02 0.  0.
         24    2    4    4    0    0  0.49240946760E+03 -0.10979350733E+03  0.18001694725E+03  0.54154189466E+03  0.79623013870E+02 0.  0.
         11    1    3    3    0    0 -0.38588927363E+02 -0.12132517778E+02  0.29480048627E+02  0.50053736821E+02  0.00000000000E+00 0. -1.
        -11    1    3    3    0    0 -0.15190848427E+03 -0.15178222300E+03 -0.32737417838E+02  0.21722285640E+03  0.00000000000E+00 0.  1.
          4    1    6    6  502    0  0.43614815609E+03 -0.97074310156E+02  0.13040820959E+03  0.46546206815E+03  0.00000000000E+00 0. -1.
          1    1    5    5  503    0 -0.14840098867E+03  0.18293747875E+03 -0.14259667815E+02  0.23599218778E+03  0.00000000000E+00 0. -1.
         -2    1    5    5    0  503 -0.15351106729E+03  0.90770769364E+02 -0.37439776932E+02  0.18222710350E+03  0.00000000000E+00 0.  1.
         -3    1    6    6    0  502  0.56261311505E+02 -0.12719197174E+02  0.49608737665E+02  0.76079826509E+02  0.00000000000E+00 0.  1.
<mgrwt>
<rscale>  0 0.12206481E+04</rscale>
<asrwt>0</asrwt>
<pdfrwt beam="1">  1        2 0.84767512E-01 0.12206481E+04</pdfrwt>
<pdfrwt beam="2">  1       -2 0.10400753E+00 0.12206481E+04</pdfrwt>
<totfact> 0.40716082E+01</totfact>
</mgrwt>
</event>
<event>
12    1  0.1442183E-007  0.1458722E+04  0.7818608E-02  0.8912376E-01
         -1   -1    0    0    0  501 -0.00000000000E+00  0.00000000000E+00  0.37151814101E+03  0.37151814101E+03  0.00000000000E+00 0.  1.
          1   -1    0    0  501    0  0.00000000000E+00 -0.00000000000E+00 -0.14318739213E+04  0.14318739213E+04  0.00000000000E+00 0. -1.
         23    2    1    2    0    0  0.17988071021E+03 -0.38369212684E+03 -0.50074787167E+03  0.66170313014E+03  0.86751849250E+02 0.  0.
        254    2    1    2    0    0 -0.17988071021E+03  0.38369212684E+03 -0.55960790863E+03  0.11416889322E+04  0.90039762792E+03 0.  0.
        -24    2    4    4    0    0  0.19996926579E+03  0.18374509821E+03  0.14122285302E+03  0.31597942922E+03  0.78416433843E+02 0.  0.
         24    2    4    4    0    0 -0.37984997600E+03  0.19994702863E+03 -0.70083076165E+03  0.82570950296E+03  0.79797294899E+02 0.  0.
         11    1    3    3    0    0  0.67588406631E+02 -0.13878100791E+03 -0.24898950123E+03  0.29295756107E+03  0.00000000000E+00 0.  1.
        -11    1    3    3    0    0  0.11229230358E+03 -0.24491111893E+03 -0.25175837044E+03  0.36874556907E+03  0.00000000000E+00 0. -1.
          2    1    6    6  502    0 -0.36842822873E+03  0.19330547191E+03 -0.63922174187E+03  0.76269967909E+03  0.00000000000E+00 0. -1.
          1    1    5    5  503    0  0.16528103203E+03  0.17369425041E+03  0.96404258795E+02  0.25842076791E+03  0.00000000000E+00 0. -1.
         -2    1    5    5    0  503  0.34688233769E+02  0.10050847799E+02  0.44818594228E+02  0.57558661312E+02  0.00000000000E+00 0.  1.
         -3    1    6    6    0  502 -0.11421747275E+02  0.66415567146E+01 -0.61609019777E+02  0.63009823872E+02  0.00000000000E+00 0.  1.
<mgrwt>
<rscale>  0 0.14587215E+04</rscale>
<asrwt>0</asrwt>
<pdfrwt beam="1">  1        1 0.22028830E+00 0.14587215E+04</pdfrwt>
<pdfrwt beam="2">  1       -1 0.57156636E-01 0.14587215E+04</pdfrwt>
<totfact> 0.21950362E+01</totfact>
</mgrwt>
</event>
<event>
12    1  0.1442183E-007  0.1364882E+04  0.7818608E-02  0.8979638E-01
         -1   -1    0    0    0  501 -0.00000000000E+00  0.00000000000E+00  0.13361858289E+03  0.13361858289E+03  0.00000000000E+00 0.  1.
          1   -1    0    0  501    0  0.00000000000E+00 -0.00000000000E+00 -0.34854870533E+04  0.34854870533E+04  0.00000000000E+00 0. -1.
         23    2    1    2    0    0 -0.31506538152E+03 -0.16380027157E+03 -0.13065921790E+04  0.13570317494E+04  0.90858808312E+02 0.  0.
        254    2    1    2    0    0  0.31506538152E+03  0.16380027157E+03 -0.20452762914E+04  0.22620738868E+04  0.89873602212E+03 0.  0.
        -24    2    4    4    0    0  0.27001561521E+03 -0.24909781778E+02 -0.20323069541E+04  0.20518735697E+04  0.79904072260E+02 0.  0.
         24    2    4    4    0    0  0.45049766315E+02  0.18871005335E+03 -0.12969337331E+02  0.21020031708E+03  0.79843621587E+02 0.  0.
         13    1    3    3    0    0  0.37405095116E+00 -0.39829203567E+01 -0.90041968189E+02  0.90130791654E+02  0.00000000000E+00 0.  1.
        -13    1    3    3    0    0 -0.31543943248E+03 -0.15981735122E+03 -0.12165502108E+04  0.12669009577E+04  0.00000000000E+00 0. -1.
          2    1    6    6  502    0 -0.89210306444E+01  0.63200131863E+02  0.24765412379E+02  0.68462888528E+02  0.00000000000E+00 0. -1.
          1    1    5    5  503    0  0.71796238801E+02 -0.41217909625E+02 -0.67947753831E+03  0.68450225789E+03  0.00000000000E+00 0. -1.
         -2    1    5    5    0  503  0.19821937641E+03  0.16308127847E+02 -0.13528294158E+04  0.13673713118E+04  0.00000000000E+00 0.  1.
         -1    1    6    6    0  502  0.53970796960E+02  0.12550992149E+03 -0.37734749710E+02  0.14173742855E+03  0.00000000000E+00 0.  1.
<mgrwt>
<rscale>  0 0.13648822E+04</rscale>
<asrwt>0</asrwt>
<pdfrwt beam="1">  1        1 0.53622871E+00 0.13648822E+04</pdfrwt>
<pdfrwt beam="2">  1       -1 0.20556708E-01 0.13648822E+04</pdfrwt>
<totfact> 0.49756265E+00</totfact>
</mgrwt>
</event>
<event>
12    1  0.1442183E-007  0.3078125E+04  0.7818608E-02  0.8221767E-01
         -2   -1    0    0    0  501 -0.00000000000E+00  0.00000000000E+00  0.12847072027E+04  0.12847072027E+04  0.00000000000E+00 0. -1.
          2   -1    0    0  501    0  0.00000000000E+00 -0.00000000000E+00 -0.18437771570E+04  0.18437771570E+04  0.00000000000E+00 0.  1.
         23    2    1    2    0    0  0.39571880361E+03  0.91803802249E+03  0.74961695397E+03  0.12519252200E+04  0.77485459570E+02 0.  0.
        254    2    1    2    0    0 -0.39571880361E+03 -0.91803802249E+03 -0.13086869083E+04  0.18765591397E+04  0.89968083143E+03 0.  0.
        -24    2    4    4    0    0 -0.13780295663E+03 -0.52302462549E+03 -0.72501254705E+02  0.55104513457E+03  0.76484604189E+02 0.  0.
         24    2    4    4    0    0 -0.25791584698E+03 -0.39501339700E+03 -0.12361856536E+04  0.13255140051E+04  0.79222721635E+02 0.  0.
         13    1    3    3    0    0  0.19979724890E+03  0.55515662829E+03  0.42653248433E+03  0.72804380555E+03  0.00000000000E+00 0. -1.
        -13    1    3    3    0    0  0.19592155471E+03  0.36288139420E+03  0.32308446964E+03  0.52388141442E+03  0.00000000000E+00 0.  1.
          2    1    6    6  502    0 -0.18422601526E+02 -0.83044011123E+02 -0.22218672530E+03  0.23791309533E+03  0.00000000000E+00 0. -1.
          3    1    5    5  503    0 -0.15956556326E+02 -0.89199250045E+02 -0.40631328975E+02  0.99307717689E+02  0.00000000000E+00 0. -1.
         -4    1    5    5    0  503 -0.12184640030E+03 -0.43382537544E+03 -0.31869925731E+02  0.45173741688E+03  0.00000000000E+00 0.  1.
         -1    1    6    6    0  502 -0.23949324545E+03 -0.31196938588E+03 -0.10139989283E+04  0.10876009098E+04  0.00000000000E+00 0.  1.
<mgrwt>
<rscale>  0 0.30781253E+04</rscale>
<asrwt>0</asrwt>
<pdfrwt beam="1">  1        2 0.28365802E+00 0.30781253E+04</pdfrwt>
<pdfrwt beam="2">  1       -2 0.19764726E+00 0.30781253E+04</pdfrwt>
<totfact> 0.95663903E-01</totfact>
</mgrwt>
</event>
<event>
12    1  0.1442183E-007  0.1808518E+04  0.7818608E-02  0.8701783E-01
          2   -1    0    0  501    0  0.00000000000E+00  0.00000000000E+00  0.20547880256E+04  0.20547880256E+04  0.00000000000E+00 0. -1.
         -2   -1    0    0    0  501 -0.00000000000E+00 -0.00000000000E+00 -0.39794078369E+03  0.39794078369E+03  0.00000000000E+00 0.  1.
         23    2    1    2    0    0  0.39023020994E+03 -0.25135672544E+03 -0.41915288394E+02  0.47491351288E+03  0.91247647274E+02 0.  0.
        254    2    1    2    0    0 -0.39023020994E+03  0.25135672544E+03  0.16987625303E+04  0.19778152964E+04  0.90027739734E+03 0.  0.
        -24    2    4    4    0    0 -0.41464656786E+03  0.54610685186E+03  0.13235679443E+04  0.14927574532E+04  0.79550241636E+02 0.  0.
         24    2    4    4    0    0  0.24416357912E+02 -0.29475012642E+03  0.37519458594E+03  0.48505784318E+03  0.83882884718E+02 0.  0.
         11    1    3    3    0    0  0.23199515821E+03 -0.17499311210E+03  0.12853540530E+02  0.29087721846E+03  0.00000000000E+00 0. -1.
        -11    1    3    3    0    0  0.15823505174E+03 -0.76363613338E+02 -0.54768828924E+02  0.18403629442E+03  0.00000000000E+00 0.  1.
          4    1    6    6  502    0 -0.12746856901E+02 -0.55007622366E+02  0.12178806515E+03  0.13424102835E+03  0.00000000000E+00 0. -1.
          3    1    5    5  503    0 -0.25055975112E+02  0.71143509026E+02  0.16422578288E+03  0.18071886600E+03  0.00000000000E+00 0. -1.
         -4    1    5    5    0  503 -0.38959059274E+03  0.47496334284E+03  0.11593421614E+04  0.13120385872E+04  0.00000000000E+00 0.  1.
         -3    1    6    6    0  502  0.37163214813E+02 -0.23974250405E+03  0.25340652079E+03  0.35081681483E+03  0.00000000000E+00 0.  1.
<mgrwt>
<rscale>  0 0.18085176E+04</rscale>
<asrwt>0</asrwt>
<pdfrwt beam="1">  1        2 0.31612123E+00 0.18085176E+04</pdfrwt>
<pdfrwt beam="2">  1       -2 0.61221660E-01 0.18085176E+04</pdfrwt>
<totfact> 0.14580519E+01</totfact>
</mgrwt>
</event>
<event>
12    1  0.1442183E-007  0.1347859E+04  0.7818608E-02  0.8992450E-01
         -1   -1    0    0    0  501 -0.00000000000E+00  0.00000000000E+00  0.57494267910E+03  0.57494267910E+03  0.00000000000E+00 0.  1.
          1   -1    0    0  501    0  0.00000000000E+00 -0.00000000000E+00 -0.78995892196E+03  0.78995892196E+03  0.00000000000E+00 0. -1.
         23    2    1    2    0    0  0.33302607278E+03  0.54617627762E+02  0.82032149187E+02  0.35853911642E+03  0.89059385188E+02 0.  0.
        254    2    1    2    0    0 -0.33302607278E+03 -0.54617627762E+02 -0.29704839205E+03  0.10063624846E+04  0.90035451510E+03 0.  0.
        -24    2    4    4    0    0 -0.25356370420E+03 -0.23104188393E+03  0.24237482083E+03  0.42776075275E+03  0.80986440848E+02 0.  0.
         24    2    4    4    0    0 -0.79462368578E+02  0.17642425617E+03 -0.53942321288E+03  0.57860173189E+03  0.79767006699E+02 0.  0.
         11    1    3    3    0    0  0.11378928636E+03  0.13978256110E+02 -0.14519901190E+02  0.11556046410E+03  0.00000000000E+00 0. -1.
        -11    1    3    3    0    0  0.21923678642E+03  0.40639371652E+02  0.96552050378E+02  0.24297865232E+03  0.00000000000E+00 0.  1.
          2    1    6    6  502    0 -0.19176194465E+02  0.56695402873E+01 -0.12148311049E+03  0.12311789576E+03  0.00000000000E+00 0. -1.
          1    1    5    5  503    0 -0.12527000547E+03 -0.60807665062E+02  0.99483304529E+02  0.17113466709E+03  0.00000000000E+00 0. -1.
         -2    1    5    5    0  503 -0.12829369873E+03 -0.17023421887E+03  0.14289151630E+03  0.25662608566E+03  0.00000000000E+00 0.  1.
         -1    1    6    6    0  502 -0.60286174113E+02  0.17075471589E+03 -0.41794010239E+03  0.45548383613E+03  0.00000000000E+00 0.  1.
<mgrwt>
<rscale>  0 0.13478592E+04</rscale>
<asrwt>0</asrwt>
<pdfrwt beam="1">  1        1 0.12153214E+00 0.13478592E+04</pdfrwt>
<pdfrwt beam="2">  1       -1 0.88452720E-01 0.13478592E+04</pdfrwt>
<totfact> 0.27732714E+01</totfact>
</mgrwt>
</event>
<event>
12    1  0.1442183E-007  0.1191292E+04  0.7818608E-02  0.9120513E-01
         -2   -1    0    0    0  501 -0.00000000000E+00  0.00000000000E+00  0.62001699108E+03  0.62001699108E+03  0.00000000000E+00 0.  1.
          2   -1    0    0  501    0  0.00000000000E+00 -0.00000000000E+00 -0.57223256551E+03  0.57223256551E+03  0.00000000000E+00 0. -1.
         23    2    1    2    0    0 -0.97586672529E+02 -0.22054631130E+03 -0.40440648957E+02  0.26142930427E+03  0.92444583178E+02 0.  0.
        254    2    1    2    0    0  0.97586672529E+02  0.22054631130E+03  0.88225074520E+02  0.93082025233E+03  0.89469483305E+03 0.  0.
        -24    2    4    4    0    0  0.26003142714E+03  0.51324202935E+03  0.23757553877E+02  0.58124624792E+03  0.79050968118E+02 0.  0.
         24    2    4    4    0    0 -0.16244475462E+03 -0.29269571806E+03  0.64467520642E+02  0.34957400440E+03  0.77374683620E+02 0.  0.
         13    1    3    3    0    0 -0.10339825211E+03 -0.19131260102E+03 -0.83423771586E+01  0.21762652666E+03  0.00000000000E+00 0.  1.
        -13    1    3    3    0    0  0.58115795794E+01 -0.29233710274E+02 -0.32098271798E+02  0.43802777606E+02  0.00000000000E+00 0. -1.
          4    1    6    6  502    0 -0.80412761647E+02 -0.17847378224E+03  0.72427903208E+02  0.20872207441E+03  0.00000000000E+00 0. -1.
          1    1    5    5  503    0  0.23746888695E+03  0.49339919643E+03  0.87061410546E+01  0.54764042601E+03  0.00000000000E+00 0. -1.
         -2    1    5    5    0  503  0.22562540200E+02  0.19842832923E+02  0.15051412823E+02  0.33605821915E+02  0.00000000000E+00 0.  1.
         -3    1    6    6    0  502 -0.82031992969E+02 -0.11422193582E+03 -0.79603825656E+01  0.14085193000E+03  0.00000000000E+00 0.  1.
<mgrwt>
<rscale>  0 0.11912916E+04</rscale>
<asrwt>0</asrwt>
<pdfrwt beam="1">  1        2 0.88035779E-01 0.11912916E+04</pdfrwt>
<pdfrwt beam="2">  1       -2 0.95387229E-01 0.11912916E+04</pdfrwt>
<totfact> 0.47877050E+01</totfact>
</mgrwt>
</event>
<event>
12    1  0.1442183E-007  0.2291505E+04  0.7818608E-02  0.8481278E-01
          2   -1    0    0  501    0  0.00000000000E+00  0.00000000000E+00  0.77280355867E+03  0.77280355867E+03  0.00000000000E+00 0. -1.
         -2   -1    0    0    0  501 -0.00000000000E+00 -0.00000000000E+00 -0.16986836819E+04  0.16986836819E+04  0.00000000000E+00 0.  1.
         23    2    1    2    0    0  0.62111892087E+03  0.65240328598E+03 -0.10165359188E+02  0.90535465817E+03  0.90249438267E+02 0.  0.
        254    2    1    2    0    0 -0.62111892087E+03 -0.65240328598E+03 -0.91571476401E+03  0.15661325824E+04  0.89600166022E+03 0.  0.
        -24    2    4    4    0    0 -0.83525207909E+03 -0.47299809486E+03 -0.58891692006E+03  0.11288988517E+04  0.78843169251E+02 0.  0.
         24    2    4    4    0    0  0.21413315822E+03 -0.17940519112E+03 -0.32679784395E+03  0.43723373064E+03  0.79606986831E+02 0.  0.
         13    1    3    3    0    0  0.60841901996E+02  0.90321291524E+02  0.21883686915E+02  0.11107910917E+03  0.00000000000E+00 0. -1.
        -13    1    3    3    0    0  0.56027701887E+03  0.56208199446E+03 -0.32049046103E+02  0.79427554899E+03  0.00000000000E+00 0.  1.
          4    1    6    6  502    0 -0.18307499295E+01 -0.23802028927E+02 -0.33791061338E+02  0.41372986993E+02  0.00000000000E+00 0. -1.
          1    1    5    5  503    0 -0.18002401970E+03 -0.81914516116E+02 -0.15335338446E+03  0.25027164471E+03  0.00000000000E+00 0. -1.
         -2    1    5    5    0  503 -0.65522805938E+03 -0.39108357874E+03 -0.43556353561E+03  0.87862720702E+03  0.00000000000E+00 0.  1.
         -3    1    6    6    0  502  0.21596390815E+03 -0.15560316220E+03 -0.29300678261E+03  0.39586074365E+03  0.00000000000E+00 0.  1.
<mgrwt>
<rscale>  0 0.22915050E+04</rscale>
<asrwt>0</asrwt>
<pdfrwt beam="1">  1        2 0.11889286E+00 0.22915050E+04</pdfrwt>
<pdfrwt beam="2">  1       -2 0.26133595E+00 0.22915050E+04</pdfrwt>
<totfact> 0.17910928E+00</totfact>
</mgrwt>
</event>
<event>
12    1  0.1442183E-007  0.1201419E+04  0.7818608E-02  0.9111615E-01
          1   -1    0    0  501    0  0.00000000000E+00  0.00000000000E+00  0.91071257453E+03  0.91071257453E+03  0.00000000000E+00 0. -1.
         -1   -1    0    0    0  501 -0.00000000000E+00 -0.00000000000E+00 -0.39623039373E+03  0.39623039373E+03  0.00000000000E+00 0.  1.
         23    2    1    2    0    0  0.62194127851E+01 -0.68276002827E+02  0.38239237199E+03  0.39925320117E+03  0.92080936290E+02 0.  0.
        254    2    1    2    0    0 -0.62194127851E+01  0.68276002827E+02  0.13208980881E+03  0.90768976710E+03  0.89540644516E+03 0.  0.
        -24    2    4    4    0    0 -0.29717402541E+03 -0.27955994398E+02  0.39129828273E+03  0.49849121799E+03  0.79279312195E+02 0.  0.
         24    2    4    4    0    0  0.29095461262E+03  0.96231997226E+02 -0.25920847393E+03  0.40919854911E+03  0.79619317619E+02 0.  0.
         13    1    3    3    0    0  0.15768623652E+02  0.56024348921E+01  0.10024358576E+02  0.19507038049E+02  0.00000000000E+00 0.  1.
        -13    1    3    3    0    0 -0.95492108669E+01 -0.73878437720E+02  0.37236801341E+03  0.37974616312E+03  0.00000000000E+00 0. -1.
          2    1    6    6  502    0  0.51143641342E+02  0.43490974351E+01 -0.11943924921E+02  0.52699563952E+02  0.00000000000E+00 0. -1.
          1    1    5    5  503    0 -0.10036867361E+02 -0.16587559864E+02  0.12658190735E+02  0.23154171144E+02  0.00000000000E+00 0. -1.
         -2    1    5    5    0  503 -0.28713715805E+03 -0.11368434534E+02  0.37864009200E+03  0.47533704685E+03  0.00000000000E+00 0.  1.
         -1    1    6    6    0  502  0.23981097128E+03  0.91882899790E+02 -0.24726454900E+03  0.35649898515E+03  0.00000000000E+00 0.  1.
<mgrwt>
<rscale>  0 0.12014192E+04</rscale>
<asrwt>0</asrwt>
<pdfrwt beam="1">  1        1 0.14010963E+00 0.12014192E+04</pdfrwt>
<pdfrwt beam="2">  1       -1 0.60958522E-01 0.12014192E+04</pdfrwt>
<totfact> 0.48167436E+01</totfact>
</mgrwt>
</event>
<event>
12    1  0.1442183E-007  0.1834163E+04  0.7818608E-02  0.8688340E-01
          4   -1    0    0  501    0  0.00000000000E+00  0.00000000000E+00  0.10488841529E+04  0.10488841529E+04  0.00000000000E+00 0. -1.
         -4   -1    0    0    0  501 -0.00000000000E+00 -0.00000000000E+00 -0.80184153958E+03  0.80184153958E+03  0.00000000000E+00 0.  1.
         23    2    1    2    0    0 -0.14694764142E+03  0.32248916516E+03 -0.50148412868E+03  0.62151559459E+03  0.95929307463E+02 0.  0.
        254    2    1    2    0    0  0.14694764142E+03 -0.32248916516E+03  0.74852674200E+03  0.12292100979E+04  0.90833491086E+03 0.  0.
        -24    2    4    4    0    0 -0.19053773861E+03  0.66640833734E+02  0.66894995386E+03  0.70338547761E+03  0.80693610600E+02 0.  0.
         24    2    4    4    0    0  0.33748538003E+03 -0.38912999889E+03  0.79576788138E+02  0.52582462027E+03  0.69573905297E+02 0.  0.
         11    1    3    3    0    0 -0.15267504238E+03  0.25922623569E+03 -0.38248451084E+03  0.48662337683E+03  0.00000000000E+00 0.  1.
        -11    1    3    3    0    0  0.57274009659E+01  0.63262929467E+02 -0.11899961784E+03  0.13489221776E+03  0.00000000000E+00 0. -1.
          4    1    6    6  502    0  0.25576225069E+03 -0.25062128175E+03  0.68865292409E+02  0.36464747941E+03  0.00000000000E+00 0. -1.
          3    1    5    5  503    0 -0.15850953409E+03  0.47197081651E+02  0.41591431547E+03  0.44759083405E+03  0.00000000000E+00 0. -1.
         -4    1    5    5    0  503 -0.32028204526E+02  0.19443752083E+02  0.25303563839E+03  0.25579464356E+03  0.00000000000E+00 0.  1.
         -3    1    6    6    0  502  0.81723129343E+02 -0.13850871715E+03  0.10711495728E+02  0.16117714086E+03  0.00000000000E+00 0.  1.
<mgrwt>
<rscale>  0 0.18341634E+04</rscale>
<asrwt>0</asrwt>
<pdfrwt beam="1">  1        4 0.16136679E+00 0.18341634E+04</pdfrwt>
<pdfrwt beam="2">  1       -4 0.12336024E+00 0.18341634E+04</pdfrwt>
<totfact> 0.22745871E-01</totfact>
</mgrwt>
</event>
<event>
12    1  0.1442183E-007  0.1192093E+04  0.7818608E-02  0.9119806E-01
          1   -1    0    0  501    0  0.00000000000E+00  0.00000000000E+00  0.19820323607E+04  0.19820323607E+04  0.00000000000E+00 0. -1.
         -1   -1    0    0    0  501 -0.00000000000E+00 -0.00000000000E+00 -0.17924612319E+03  0.17924612319E+03  0.00000000000E+00 0.  1.
         23    2    1    2    0    0  0.23799912825E+02 -0.18513112964E+03  0.66674775455E+03  0.69839298600E+03  0.91434258768E+02 0.  0.
        254    2    1    2    0    0 -0.23799912825E+02  0.18513112964E+03  0.11360384829E+04  0.14628854979E+04  0.90255779546E+03 0.  0.
        -24    2    4    4    0    0 -0.32621128535E+03  0.22022060930E+02  0.75216616162E+02  0.34498638393E+03  0.80369719984E+02 0.  0.
         24    2    4    4    0    0  0.30241137253E+03  0.16310906871E+03  0.10608218668E+04  0.11178991139E+04  0.79361132801E+02 0.  0.
         13    1    3    3    0    0  0.38084143105E+02 -0.49950417853E+02  0.31689207399E+03  0.32305732116E+03  0.00000000000E+00 0.  1.
        -13    1    3    3    0    0 -0.14284230280E+02 -0.13518071179E+03  0.34985568056E+03  0.37533566483E+03  0.00000000000E+00 0. -1.
          4    1    6    6  502    0  0.22042437857E+03  0.98876044198E+02  0.83443001607E+03  0.86869835416E+03  0.00000000000E+00 0. -1.
          1    1    5    5  503    0 -0.27036281105E+03  0.22852818896E+02  0.29725460980E+02  0.27295036905E+03  0.00000000000E+00 0. -1.
         -2    1    5    5    0  503 -0.55848474300E+02 -0.83075796604E+00  0.45491155182E+02  0.72036014882E+02  0.00000000000E+00 0.  1.
         -3    1    6    6    0  502  0.81986993953E+02  0.64233024511E+02  0.22639185069E+03  0.24920075978E+03  0.00000000000E+00 0.  1.
<mgrwt>
<rscale>  0 0.11920933E+04</rscale>
<asrwt>0</asrwt>
<pdfrwt beam="1">  1        1 0.30492804E+00 0.11920933E+04</pdfrwt>
<pdfrwt beam="2">  1       -1 0.27576328E-01 0.11920933E+04</pdfrwt>
<totfact> 0.35950365E+01</totfact>
</mgrwt>
</event>
<event>
12    1  0.1442183E-007  0.2445270E+04  0.7818608E-02  0.8422747E-01
         -2   -1    0    0    0  501 -0.00000000000E+00  0.00000000000E+00  0.38883425268E+03  0.38883425268E+03  0.00000000000E+00 0.  1.
          2   -1    0    0  501    0  0.00000000000E+00 -0.00000000000E+00 -0.38444038121E+04  0.38444038121E+04  0.00000000000E+00 0. -1.
         23    2    1    2    0    0 -0.87221044432E+03 -0.22900614929E+03 -0.24383805346E+04  0.26014408551E+04  0.92736269591E+02 0.  0.
        254    2    1    2    0    0  0.87221044432E+03  0.22900614929E+03 -0.10171890248E+04  0.16317972097E+04  0.90271465348E+03 0.  0.
        -24    2    4    4    0    0  0.33239148853E+03 -0.31076373231E+03 -0.60376275414E+03  0.76018131911E+03  0.79296756987E+02 0.  0.
         24    2    4    4    0    0  0.53981895579E+03  0.53976988159E+03 -0.41342627069E+03  0.87161589055E+03  0.77697807254E+02 0.  0.
         11    1    3    3    0    0 -0.10162568382E+03 -0.21619577648E+02 -0.37486317349E+03  0.38899560999E+03  0.00000000000E+00 0.  1.
        -11    1    3    3    0    0 -0.77058476050E+03 -0.20738657164E+03 -0.20635173611E+04  0.22124452451E+04  0.00000000000E+00 0. -1.
          4    1    6    6  502    0  0.54063248646E+03  0.53738368018E+03 -0.41566804701E+03  0.86824226484E+03  0.00000000000E+00 0. -1.
          1    1    5    5  503    0  0.33389603466E+03 -0.31383518623E+03 -0.59684859918E+03  0.75246749858E+03  0.00000000000E+00 0. -1.
         -2    1    5    5    0  503 -0.15045461272E+01  0.30714539284E+01 -0.69141549628E+01  0.77138205276E+01  0.00000000000E+00 0.  1.
         -3    1    6    6    0  502 -0.81353067480E+00  0.23862014109E+01  0.22417763223E+01  0.33736257070E+01  0.00000000000E+00 0.  1.
<mgrwt>
<rscale>  0 0.24452696E+04</rscale>
<asrwt>0</asrwt>
<pdfrwt beam="1">  1        2 0.59144675E+00 0.24452696E+04</pdfrwt>
<pdfrwt beam="2">  1       -2 0.59820653E-01 0.24452696E+04</pdfrwt>
<totfact> 0.10638016E+00</totfact>
</mgrwt>
</event>
<event>
12    1  0.1442183E-007  0.1639734E+04  0.7818608E-02  0.8796503E-01
          1   -1    0    0  501    0  0.00000000000E+00  0.00000000000E+00  0.78213347421E+03  0.78213347421E+03  0.00000000000E+00 0. -1.
         -1   -1    0    0    0  501 -0.00000000000E+00 -0.00000000000E+00 -0.85942095615E+03  0.85942095615E+03  0.00000000000E+00 0.  1.
         23    2    1    2    0    0 -0.24687722313E+03 -0.45832958360E+03 -0.23836561458E+03  0.57928007042E+03  0.87936700351E+02 0.  0.
        254    2    1    2    0    0  0.24687722313E+03  0.45832958360E+03  0.16107813264E+03  0.10622743599E+04  0.91184772877E+03 0.  0.
        -24    2    4    4    0    0  0.25459146552E+02  0.41818750707E+03  0.49478201206E+03  0.65323175051E+03  0.79834336050E+02 0.  0.
         24    2    4    4    0    0  0.22141807658E+03  0.40142076536E+02 -0.33370387942E+03  0.40904260942E+03  0.72939881010E+02 0.  0.
         13    1    3    3    0    0 -0.15403354986E+03 -0.26747865816E+03 -0.18710213317E+03  0.36094095818E+03  0.00000000000E+00 0.  1.
        -13    1    3    3    0    0 -0.92843673268E+02 -0.19085092545E+03 -0.51263481404E+02  0.21833911225E+03  0.00000000000E+00 0. -1.
          2    1    6    6  502    0  0.14993134047E+03  0.75618097140E+01 -0.16578104538E+03  0.22365138682E+03  0.00000000000E+00 0. -1.
          3    1    5    5  503    0 -0.22243958971E+02  0.16519371828E+03  0.16148018144E+03  0.23207672711E+03  0.00000000000E+00 0. -1.
         -4    1    5    5    0  503  0.47703105523E+02  0.25299378879E+03  0.33330183062E+03  0.42115502340E+03  0.00000000000E+00 0.  1.
         -1    1    6    6    0  502  0.71486736111E+02  0.32580266822E+02 -0.16792283404E+03  0.18539122260E+03  0.00000000000E+00 0.  1.
<mgrwt>
<rscale>  0 0.16397340E+04</rscale>
<asrwt>0</asrwt>
<pdfrwt beam="1">  1        1 0.12032823E+00 0.16397340E+04</pdfrwt>
<pdfrwt beam="2">  1       -1 0.13221861E+00 0.16397340E+04</pdfrwt>
<totfact> 0.10653327E+01</totfact>
</mgrwt>
</event>
<event>
12    1  0.1442183E-007  0.2850902E+04  0.7818608E-02  0.8287637E-01
          1   -1    0    0  501    0  0.00000000000E+00  0.00000000000E+00  0.19571666919E+04  0.19571666919E+04  0.00000000000E+00 0. -1.
         -1   -1    0    0    0  501 -0.00000000000E+00 -0.00000000000E+00 -0.10381897721E+04  0.10381897721E+04  0.00000000000E+00 0.  1.
         23    2    1    2    0    0  0.44747030334E+03 -0.48185608391E+03 -0.74181314802E+03  0.99527584130E+03  0.88725958684E+02 0.  0.
        254    2    1    2    0    0 -0.44747030334E+03  0.48185608391E+03  0.16607900678E+04  0.20000806226E+04  0.89982436597E+03 0.  0.
        -24    2    4    4    0    0 -0.33554092602E+03  0.70264670826E+03  0.15056336404E+04  0.16969594507E+04  0.80240940385E+02 0.  0.
         24    2    4    4    0    0 -0.11192937732E+03 -0.22079062436E+03  0.15515642739E+03  0.30312117189E+03  0.80822290103E+02 0.  0.
         13    1    3    3    0    0  0.24305590758E+03 -0.20589697242E+03 -0.39128979492E+03  0.50455667776E+03  0.00000000000E+00 0.  1.
        -13    1    3    3    0    0  0.20441439576E+03 -0.27595911148E+03 -0.35052335310E+03  0.49071916355E+03  0.00000000000E+00 0. -1.
          4    1    6    6  502    0 -0.10664598105E+03 -0.13239498410E+03  0.11876828401E+03  0.20738298478E+03  0.00000000000E+00 0. -1.
          1    1    5    5  503    0 -0.26306245423E+03  0.47682995641E+03  0.10881346450E+04  0.12168014085E+04  0.00000000000E+00 0. -1.
         -2    1    5    5    0  503 -0.72478471790E+02  0.22581675186E+03  0.41749899549E+03  0.48015804224E+03  0.00000000000E+00 0.  1.
         -3    1    6    6    0  502 -0.52833962638E+01 -0.88395640256E+02  0.36388143376E+02  0.95738187108E+02  0.00000000000E+00 0.  1.
<mgrwt>
<rscale>  0 0.28509019E+04</rscale>
<asrwt>0</asrwt>
<pdfrwt beam="1">  1        1 0.30110257E+00 0.28509019E+04</pdfrwt>
<pdfrwt beam="2">  1       -1 0.15972150E+00 0.28509019E+04</pdfrwt>
<totfact> 0.80651391E-01</totfact>
</mgrwt>
</event>
<event>
12    1  0.1442183E-007  0.1427485E+04  0.7818608E-02  0.8934160E-01
         -2   -1    0    0    0  501 -0.00000000000E+00  0.00000000000E+00  0.12113441194E+04  0.12113441194E+04  0.00000000000E+00 0.  1.
          2   -1    0    0  501    0  0.00000000000E+00 -0.00000000000E+00 -0.42054788715E+03  0.42054788715E+03  0.00000000000E+00 0. -1.
         23    2    1    2    0    0  0.36843269369E+03  0.20200044677E+03  0.24449464488E+03  0.49463951004E+03  0.91344311529E+02 0.  0.
        254    2    1    2    0    0 -0.36843269369E+03 -0.20200044677E+03  0.54630158737E+03  0.11372524965E+04  0.90462754003E+03 0.  0.
        -24    2    4    4    0    0  0.14823988342E+03 -0.77462536293E+01 -0.16269330555E+03  0.23507212278E+03  0.82187126471E+02 0.  0.
         24    2    4    4    0    0 -0.51667257711E+03 -0.19425419314E+03  0.70899489291E+03  0.90218037372E+03  0.81058158582E+02 0.  0.
         11    1    3    3    0    0  0.19055835849E+02 -0.97162425640E+01  0.14277520154E+02  0.25717267180E+02  0.00000000000E+00 0. -1.
        -11    1    3    3    0    0  0.34937685784E+03  0.21171668933E+03  0.23021712472E+03  0.46892224286E+03  0.00000000000E+00 0.  1.
          4    1    6    6  502    0 -0.27979235999E+03 -0.14807074518E+03  0.40039656131E+03  0.51041759041E+03  0.00000000000E+00 0. -1.
          1    1    5    5  503    0  0.15272745200E+03 -0.12455805010E+02 -0.12767167303E+03  0.19945144213E+03  0.00000000000E+00 0. -1.
         -2    1    5    5    0  503 -0.44875685797E+01  0.47095513811E+01 -0.35021632520E+02  0.35620680655E+02  0.00000000000E+00 0.  1.
         -3    1    6    6    0  502 -0.23688021711E+03 -0.46183447961E+02  0.30859833160E+03  0.39176278332E+03  0.00000000000E+00 0.  1.
<mgrwt>
<rscale>  0 0.14274848E+04</rscale>
<asrwt>0</asrwt>
<pdfrwt beam="1">  1        2 0.64699675E-01 0.14274848E+04</pdfrwt>
<pdfrwt beam="2">  1       -2 0.18636063E+00 0.14274848E+04</pdfrwt>
<totfact> 0.11956702E+01</totfact>
</mgrwt>
</event>
<event>
12    1  0.1442183E-007  0.1237807E+04  0.7818608E-02  0.9080393E-01
          1   -1    0    0  501    0  0.00000000000E+00  0.00000000000E+00  0.76126351814E+03  0.76126351814E+03  0.00000000000E+00 0. -1.
         -1   -1    0    0    0  501 -0.00000000000E+00 -0.00000000000E+00 -0.50316538509E+03  0.50316538509E+03  0.00000000000E+00 0.  1.
         23    2    1    2    0    0 -0.22551561156E+03 -0.25407611744E+02  0.21017188569E+03  0.32239980361E+03  0.90920701917E+02 0.  0.
        254    2    1    2    0    0  0.22551561156E+03  0.25407611744E+02  0.47926247356E+02  0.94202909961E+03  0.91302741555E+03 0.  0.
        -24    2    4    4    0    0  0.13640732804E+03 -0.42128858307E+03  0.13585730309E+03  0.47107483053E+03  0.85809438826E+02 0.  0.
         24    2    4    4    0    0  0.89108283524E+02  0.44669619481E+03 -0.87931055738E+02  0.47095426908E+03  0.81168197882E+02 0.  0.
         11    1    3    3    0    0  0.23585302867E-01  0.14479176306E+02  0.20061441236E+02  0.24740827133E+02  0.00000000000E+00 0.  1.
        -11    1    3    3    0    0 -0.22553919687E+03 -0.39886788051E+02  0.19011044446E+03  0.29765897648E+03  0.00000000000E+00 0. -1.
          4    1    6    6  502    0  0.53098532233E+01  0.71909363807E+02 -0.43850216148E+02  0.84391898903E+02  0.00000000000E+00 0. -1.
          3    1    5    5  503    0  0.56206517456E+02 -0.14558895915E+03  0.90449464033E+02  0.18037855520E+03  0.00000000000E+00 0. -1.
         -4    1    5    5    0  503  0.80200810584E+02 -0.27569962392E+03  0.45407839061E+02  0.29069627534E+03  0.00000000000E+00 0.  1.
         -3    1    6    6    0  502  0.83798430301E+02  0.37478683101E+03 -0.44080839590E+02  0.38656237018E+03  0.00000000000E+00 0.  1.
<mgrwt>
<rscale>  0 0.12378069E+04</rscale>
<asrwt>0</asrwt>
<pdfrwt beam="1">  1        1 0.11711746E+00 0.12378069E+04</pdfrwt>
<pdfrwt beam="2">  1       -1 0.77410060E-01 0.12378069E+04</pdfrwt>
<totfact> 0.39521845E+01</totfact>
</mgrwt>
</event>
<event>
12    1  0.1442183E-007  0.1810549E+04  0.7818608E-02  0.8700709E-01
         -2   -1    0    0    0  501 -0.00000000000E+00  0.00000000000E+00  0.81689441989E+03  0.81689441989E+03  0.00000000000E+00 0.  1.
          2   -1    0    0  501    0  0.00000000000E+00 -0.00000000000E+00 -0.10032168400E+04  0.10032168400E+04  0.00000000000E+00 0. -1.
         23    2    1    2    0    0  0.60911069864E+03  0.21025648032E+03 -0.23055016056E+03  0.69034454762E+03  0.90546049989E+02 0.  0.
        254    2    1    2    0    0 -0.60911069864E+03 -0.21025648032E+03  0.44227740468E+02  0.11297667123E+04  0.92692669635E+03 0.  0.
        -24    2    4    4    0    0 -0.76911859401E+03 -0.24674075480E+03 -0.18908175387E+03  0.83387371304E+03  0.84670230405E+02 0.  0.
         24    2    4    4    0    0  0.16000789537E+03  0.36484274475E+02  0.23330949434E+03  0.29589299923E+03  0.78649335552E+02 0.  0.
         11    1    3    3    0    0  0.30576756931E+03  0.70135341987E+02 -0.79367245187E+02  0.32359223143E+03  0.00000000000E+00 0. -1.
        -11    1    3    3    0    0  0.30334312934E+03  0.14012113833E+03 -0.15118291538E+03  0.36675231618E+03  0.00000000000E+00 0.  1.
          2    1    6    6  502    0  0.10986544289E+03  0.59286038451E+02  0.14034669559E+03  0.18783621818E+03  0.00000000000E+00 0. -1.
          3    1    5    5  503    0 -0.56607976067E+03 -0.21916426344E+03 -0.13279881527E+03  0.62138136047E+03  0.00000000000E+00 0. -1.
         -4    1    5    5    0  503 -0.20303883334E+03 -0.27576491360E+02 -0.56282938601E+02  0.21249235256E+03  0.00000000000E+00 0.  1.
         -1    1    6    6    0  502  0.50142452477E+02 -0.22801763975E+02  0.92962798743E+02  0.10805678105E+03  0.00000000000E+00 0.  1.
<mgrwt>
<rscale>  0 0.18105494E+04</rscale>
<asrwt>0</asrwt>
<pdfrwt beam="1">  1        2 0.15434105E+00 0.18105494E+04</pdfrwt>
<pdfrwt beam="2">  1       -2 0.12567606E+00 0.18105494E+04</pdfrwt>
<totfact> 0.11185864E+01</totfact>
</mgrwt>
</event>
<event>
12    1  0.1442183E-007  0.1761240E+04  0.7818608E-02  0.8727187E-01
          2   -1    0    0  501    0  0.00000000000E+00  0.00000000000E+00  0.12904295095E+04  0.12904295095E+04  0.00000000000E+00 0. -1.
         -2   -1    0    0    0  501 -0.00000000000E+00 -0.00000000000E+00 -0.60095648409E+03  0.60095648409E+03  0.00000000000E+00 0.  1.
         23    2    1    2    0    0  0.47293359309E+03 -0.20314433171E+03 -0.14960231983E+03  0.54415046769E+03  0.93728727759E+02 0.  0.
        254    2    1    2    0    0 -0.47293359309E+03  0.20314433171E+03  0.83907534521E+03  0.13472355259E+04  0.91981646226E+03 0.  0.
        -24    2    4    4    0    0 -0.96034196874E+01 -0.31310847883E+03  0.11916690717E+03  0.34437948356E+03  0.79166481197E+02 0.  0.
         24    2    4    4    0    0 -0.46333017340E+03  0.51625281054E+03  0.71990843804E+03  0.10028560423E+04  0.79121858337E+02 0.  0.
         11    1    3    3    0    0  0.18226208331E+02 -0.27698648732E+02  0.33673091143E+01  0.33327894959E+02  0.00000000000E+00 0. -1.
        -11    1    3    3    0    0  0.45470738476E+03 -0.17544568298E+03 -0.15296962894E+03  0.51082257273E+03  0.00000000000E+00 0.  1.
          4    1    6    6  502    0 -0.28850952355E+03  0.33160776904E+03  0.50879280193E+03  0.67236267963E+03  0.00000000000E+00 0. -1.
          3    1    5    5  503    0 -0.12747099483E+02 -0.31731291969E+03  0.11898229569E+03  0.33912647233E+03  0.00000000000E+00 0. -1.
         -4    1    5    5    0  503  0.31436797953E+01  0.42044408567E+01  0.18461147899E+00  0.52530112289E+01  0.00000000000E+00 0.  1.
         -3    1    6    6    0  502 -0.17482064986E+03  0.18464504150E+03  0.21111563611E+03  0.33049336268E+03  0.00000000000E+00 0.  1.
<mgrwt>
<rscale>  0 0.17612405E+04</rscale>
<asrwt>0</asrwt>
<pdfrwt beam="1">  1        2 0.19852762E+00 0.17612405E+04</pdfrwt>
<pdfrwt beam="2">  1       -2 0.92454844E-01 0.17612405E+04</pdfrwt>
<totfact> 0.15747888E+01</totfact>
</mgrwt>
</event>
<event>
12    1  0.1442183E-007  0.1172074E+04  0.7818608E-02  0.9137658E-01
          1   -1    0    0  501    0  0.00000000000E+00  0.00000000000E+00  0.83032049148E+03  0.83032049148E+03  0.00000000000E+00 0. -1.
         -1   -1    0    0    0  501 -0.00000000000E+00 -0.00000000000E+00 -0.41362254143E+03  0.41362254143E+03  0.00000000000E+00 0.  1.
         23    2    1    2    0    0 -0.32044921632E+02  0.11344640065E+03  0.22123039285E+03  0.26535675310E+03  0.87030781160E+02 0.  0.
        254    2    1    2    0    0  0.32044921632E+02 -0.11344640065E+03  0.19546755719E+03  0.97858627981E+03  0.95159160268E+03 0.  0.
        -24    2    4    4    0    0 -0.39625713764E+01  0.41497995576E+03  0.10711205828E+03  0.43595292370E+03  0.79736396948E+02 0.  0.
         24    2    4    4    0    0  0.36007493008E+02 -0.52842635641E+03  0.88355498912E+02  0.54263335612E+03  0.78187667065E+02 0.  0.
         13    1    3    3    0    0  0.12759772781E+02  0.84359949565E+02  0.17508612121E+03  0.19476797153E+03  0.00000000000E+00 0. -1.
        -13    1    3    3    0    0 -0.44804694413E+02  0.29086451086E+02  0.46144271643E+02  0.70588781571E+02  0.00000000000E+00 0.  1.
          4    1    6    6  502    0  0.36010027207E+02 -0.40323068387E+03  0.99679782795E+02  0.41692657096E+03  0.00000000000E+00 0. -1.
          3    1    5    5  503    0 -0.27570464939E+02  0.37300766969E+03  0.88715035844E+02  0.38440240604E+03  0.00000000000E+00 0. -1.
         -4    1    5    5    0  503  0.23607893563E+02  0.41972286072E+02  0.18397022437E+02  0.51550517661E+02  0.00000000000E+00 0.  1.
         -3    1    6    6    0  502 -0.25341982457E-02 -0.12519567254E+03 -0.11324283884E+02  0.12570678516E+03  0.00000000000E+00 0.  1.
<mgrwt>
<rscale>  0 0.11720738E+04</rscale>
<asrwt>0</asrwt>
<pdfrwt beam="1">  1        1 0.12774161E+00 0.11720738E+04</pdfrwt>
<pdfrwt beam="2">  1       -1 0.63634237E-01 0.11720738E+04</pdfrwt>
<totfact> 0.51705776E+01</totfact>
</mgrwt>
</event>
<event>
12    1  0.1442183E-007  0.2189744E+04  0.7818608E-02  0.8522709E-01
         -1   -1    0    0    0  501 -0.00000000000E+00  0.00000000000E+00  0.62662982654E+03  0.62662982654E+03  0.00000000000E+00 0.  1.
          1   -1    0    0  501    0  0.00000000000E+00 -0.00000000000E+00 -0.19130028060E+04  0.19130028060E+04  0.00000000000E+00 0. -1.
         23    2    1    2    0    0  0.29246386891E+03 -0.61948342667E+03  0.16194507401E+03  0.71047522627E+03  0.96197763042E+02 0.  0.
        254    2    1    2    0    0 -0.29246386891E+03  0.61948342667E+03 -0.14483180534E+04  0.18291574062E+04  0.88255130295E+03 0.  0.
        -24    2    4    4    0    0 -0.25235497029E+03  0.10116281138E+03 -0.12255566512E+04  0.12579026773E+04  0.80081802052E+02 0.  0.
         24    2    4    4    0    0 -0.40108898616E+02  0.51832061528E+03 -0.22276140228E+03  0.57125472890E+03  0.80276640227E+02 0.  0.
         13    1    3    3    0    0  0.23885661542E+03 -0.52008396371E+03  0.17063745574E+03  0.59720763001E+03  0.00000000000E+00 0.  1.
        -13    1    3    3    0    0  0.53607253493E+02 -0.99399462953E+02 -0.86923817292E+01  0.11326759626E+03  0.00000000000E+00 0. -1.
          4    1    6    6  502    0 -0.25161602504E+02  0.33268073348E+03 -0.18406154944E+03  0.38103573409E+03  0.00000000000E+00 0. -1.
          3    1    5    5  503    0 -0.12097600679E+03  0.72275764381E+01 -0.48126002609E+03  0.49628484239E+03  0.00000000000E+00 0. -1.
         -4    1    5    5    0  503 -0.13137896351E+03  0.93935234947E+02 -0.74429662507E+03  0.76161783494E+03  0.00000000000E+00 0.  1.
         -3    1    6    6    0  502 -0.14947296113E+02  0.18563988180E+03 -0.38699852842E+02  0.19021899481E+03  0.00000000000E+00 0.  1.
<mgrwt>
<rscale>  0 0.21897439E+04</rscale>
<asrwt>0</asrwt>
<pdfrwt beam="1">  1        1 0.29430812E+00 0.21897439E+04</pdfrwt>
<pdfrwt beam="2">  1       -1 0.96404590E-01 0.21897439E+04</pdfrwt>
<totfact> 0.32267572E+00</totfact>
</mgrwt>
</event>
<event>
12    1  0.1442183E-007  0.1307726E+04  0.7818608E-02  0.9023461E-01
         -1   -1    0    0    0  501 -0.00000000000E+00  0.00000000000E+00  0.30340453739E+03  0.30340453739E+03  0.00000000000E+00 0.  1.
          1   -1    0    0  501    0  0.00000000000E+00 -0.00000000000E+00 -0.14091306613E+04  0.14091306613E+04  0.00000000000E+00 0. -1.
         23    2    1    2    0    0  0.11298440622E+03 -0.23331065212E+03  0.45827800327E+01  0.28047015046E+03  0.10697273944E+03 0.  0.
        254    2    1    2    0    0 -0.11298440622E+03  0.23331065212E+03 -0.11103089040E+04  0.14320650483E+04  0.86650164673E+03 0.  0.
        -24    2    4    4    0    0  0.21742618948E+03 -0.45445919246E+02  0.27109132898E+01  0.23524469843E+03  0.77416016708E+02 0.  0.
         24    2    4    4    0    0 -0.33041059570E+03  0.27875657136E+03 -0.11130198173E+04  0.11968203498E+04  0.81789047691E+02 0.  0.
         13    1    3    3    0    0  0.47121978155E+02 -0.10757194945E+02  0.13471801884E+01  0.48353003659E+02  0.00000000000E+00 0. -1.
        -13    1    3    3    0    0  0.65862428066E+02 -0.22255345717E+03  0.32355998442E+01  0.23211714680E+03  0.00000000000E+00 0.  1.
          4    1    6    6  502    0 -0.66801526050E+02  0.71675258523E+02 -0.34905511889E+03  0.36254553174E+03  0.00000000000E+00 0. -1.
          1    1    5    5  503    0 -0.67029963942E+00 -0.14664588629E+02  0.30160465598E+01  0.14986527220E+02  0.00000000000E+00 0. -1.
         -2    1    5    5    0  503  0.21809648912E+03 -0.30781330617E+02 -0.30513327000E+00  0.22025817121E+03  0.00000000000E+00 0.  1.
         -3    1    6    6    0  502 -0.26360906965E+03  0.20708131284E+03 -0.76396469838E+03  0.83427481809E+03  0.00000000000E+00 0.  1.
<mgrwt>
<rscale>  0 0.13077257E+04</rscale>
<asrwt>0</asrwt>
<pdfrwt beam="1">  1        1 0.21678933E+00 0.13077257E+04</pdfrwt>
<pdfrwt beam="2">  1       -1 0.46677621E-01 0.13077257E+04</pdfrwt>
<totfact> 0.33982415E+01</totfact>
</mgrwt>
</event>
<event>
12    1  0.1442183E-007  0.1859492E+04  0.7818608E-02  0.8675287E-01
          1   -1    0    0  501    0  0.00000000000E+00  0.00000000000E+00  0.10358340312E+04  0.10358340312E+04  0.00000000000E+00 0. -1.
         -1   -1    0    0    0  501 -0.00000000000E+00 -0.00000000000E+00 -0.83452286773E+03  0.83452286773E+03  0.00000000000E+00 0.  1.
         23    2    1    2    0    0 -0.24100395051E+02 -0.52407645431E+03  0.55830552799E+03  0.77261964916E+03  0.99995503310E+02 0.  0.
        254    2    1    2    0    0  0.24100395051E+02  0.52407645431E+03 -0.35699436452E+03  0.10977372498E+04  0.89573720154E+03 0.  0.
        -24    2    4    4    0    0 -0.19281318813E+03  0.10925381392E+03  0.23778484730E+03  0.33663041606E+03  0.87550454248E+02 0.  0.
         24    2    4    4    0    0  0.21691358318E+03  0.41482264039E+03 -0.59477921181E+03  0.76110683371E+03  0.79949834060E+02 0.  0.
         11    1    3    3    0    0  0.22186251740E+02 -0.40742249768E+03  0.44151226402E+03  0.60118083857E+03  0.00000000000E+00 0. -1.
        -11    1    3    3    0    0 -0.46286646791E+02 -0.11665395663E+03  0.11679326397E+03  0.17143881059E+03  0.00000000000E+00 0.  1.
          2    1    6    6  502    0  0.15365553220E+03  0.31676518409E+03 -0.38993169172E+03  0.52535409833E+03  0.00000000000E+00 0. -1.
          3    1    5    5  503    0 -0.14154489041E+03  0.47052635208E+02  0.19458331834E+03  0.24517661850E+03  0.00000000000E+00 0. -1.
         -4    1    5    5    0  503 -0.51268297716E+02  0.62201178711E+02  0.43201528954E+02  0.91453797557E+02  0.00000000000E+00 0.  1.
         -1    1    6    6    0  502  0.63258050981E+02  0.98057456304E+02 -0.20484752009E+03  0.23575273538E+03  0.00000000000E+00 0.  1.
<mgrwt>
<rscale>  0 0.18594915E+04</rscale>
<asrwt>0</asrwt>
<pdfrwt beam="1">  1        1 0.15935908E+00 0.18594915E+04</pdfrwt>
<pdfrwt beam="2">  1       -1 0.12838813E+00 0.18594915E+04</pdfrwt>
<totfact> 0.69738604E+00</totfact>
</mgrwt>
</event>
<event>
12    1  0.1442183E-007  0.1193784E+04  0.7818608E-02  0.9118315E-01
         -1   -1    0    0    0  501 -0.00000000000E+00  0.00000000000E+00  0.15665287149E+03  0.15665287149E+03  0.00000000000E+00 0.  1.
          1   -1    0    0  501    0  0.00000000000E+00 -0.00000000000E+00 -0.22743283057E+04  0.22743283057E+04  0.00000000000E+00 0. -1.
         23    2    1    2    0    0  0.28821825618E+02  0.24114537928E+03 -0.37407841190E+03  0.45517218473E+03  0.90913518926E+02 0.  0.
        254    2    1    2    0    0 -0.28821825618E+02 -0.24114537928E+03 -0.17435970223E+04  0.19758089925E+04  0.89705563199E+03 0.  0.
        -24    2    4    4    0    0  0.42301723122E+03 -0.17271358181E+03 -0.82134152144E+03  0.94330560548E+03  0.80311961872E+02 0.  0.
         24    2    4    4    0    0 -0.45183905684E+03 -0.68431797472E+02 -0.92225550089E+03  0.10325033870E+04  0.81649195085E+02 0.  0.
         13    1    3    3    0    0  0.69794627624E+01  0.11382670971E+03 -0.25560862009E+03  0.27989462197E+03  0.00000000000E+00 0. -1.
        -13    1    3    3    0    0  0.21842362856E+02  0.12731866957E+03 -0.11846979181E+03  0.17527756276E+03  0.00000000000E+00 0.  1.
          4    1    6    6  502    0 -0.62459990298E+02 -0.23106232118E+02 -0.84671899063E+02  0.10772408664E+03  0.00000000000E+00 0. -1.
          1    1    5    5  503    0 -0.11784336554E+01  0.15537471528E+01  0.63680207751E+00  0.20514270597E+01  0.00000000000E+00 0. -1.
         -2    1    5    5    0  503  0.42419566488E+03 -0.17426732896E+03 -0.82197832352E+03  0.94125417842E+03  0.00000000000E+00 0.  1.
         -3    1    6    6    0  502 -0.38937906654E+03 -0.45325565354E+02 -0.83758360182E+03  0.92477930036E+03  0.00000000000E+00 0.  1.
<mgrwt>
<rscale>  0 0.11937840E+04</rscale>
<asrwt>0</asrwt>
<pdfrwt beam="1">  1        1 0.34989663E+00 0.11937840E+04</pdfrwt>
<pdfrwt beam="2">  1       -1 0.24100444E-01 0.11937840E+04</pdfrwt>
<totfact> 0.28741675E+01</totfact>
</mgrwt>
</event>
<event>
12    1  0.1442183E-007  0.1385534E+04  0.7818608E-02  0.8964357E-01
          3   -1    0    0  501    0  0.00000000000E+00  0.00000000000E+00  0.74507898559E+03  0.74507898559E+03  0.00000000000E+00 0. -1.
         -3   -1    0    0    0  501 -0.00000000000E+00 -0.00000000000E+00 -0.64412768457E+03  0.64412768457E+03  0.00000000000E+00 0.  1.
         23    2    1    2    0    0 -0.29196899268E+03  0.18371676530E+03 -0.16157563084E+03  0.39142748549E+03  0.90061364494E+02 0.  0.
        254    2    1    2    0    0  0.29196899268E+03 -0.18371676530E+03  0.26252693186E+03  0.99777918467E+03  0.89869080827E+03 0.  0.
        -24    2    4    4    0    0  0.53077277854E+03  0.11805131477E+03  0.52014892396E+02  0.55170248483E+03  0.77551449873E+02 0.  0.
         24    2    4    4    0    0 -0.23880378586E+03 -0.30176808007E+03  0.21051203947E+03  0.44607669984E+03  0.81104137325E+02 0.  0.
         13    1    3    3    0    0 -0.39424698484E+02  0.24205798464E+00  0.10700842757E+01  0.39439960991E+02  0.00000000000E+00 0. -1.
        -13    1    3    3    0    0 -0.25254429420E+03  0.18347470732E+03 -0.16264571512E+03  0.35198752450E+03  0.00000000000E+00 0.  1.
          4    1    6    6  502    0 -0.42143240835E+02 -0.10666003048E+03  0.43838419869E+02  0.12277712289E+03  0.00000000000E+00 0. -1.
          1    1    5    5  503    0  0.10163624432E+02  0.14453088600E+02 -0.34269100266E+01  0.17998187242E+02  0.00000000000E+00 0. -1.
         -2    1    5    5    0  503  0.52060915411E+03  0.10359822617E+03  0.55441802423E+02  0.53370429759E+03  0.00000000000E+00 0.  1.
         -3    1    6    6    0  502 -0.19666054502E+03 -0.19510804959E+03  0.16667361960E+03  0.32329957695E+03  0.00000000000E+00 0.  1.
<mgrwt>
<rscale>  0 0.13855338E+04</rscale>
<asrwt>0</asrwt>
<pdfrwt beam="1">  1        3 0.11462754E+00 0.13855338E+04</pdfrwt>
<pdfrwt beam="2">  1       -3 0.99096567E-01 0.13855338E+04</pdfrwt>
<totfact> 0.14420829E+00</totfact>
</mgrwt>
</event>
<event>
12    1  0.1573435E-007  0.1827939E+04  0.7818608E-02  0.8691582E-01
         -2   -1    0    0    0  501 -0.00000000000E+00  0.00000000000E+00  0.33446112613E+03  0.33446112613E+03  0.00000000000E+00 0. -1.
          2   -1    0    0  501    0  0.00000000000E+00 -0.00000000000E+00 -0.24975693244E+04  0.24975693244E+04  0.00000000000E+00 0.  1.
         23    2    1    2    0    0  0.87329849699E+02 -0.21087168331E+03 -0.18341043768E+04  0.18505497281E+04  0.92206624709E+02 0.  0.
        254    2    1    2    0    0 -0.87329849699E+02  0.21087168331E+03 -0.32900382143E+03  0.98148072240E+03  0.89608455207E+03 0.  0.
        -24    2    4    4    0    0 -0.39151676173E+03  0.35761122999E+03 -0.54716917452E+02  0.53910082478E+03  0.80402684639E+02 0.  0.
         24    2    4    4    0    0  0.30418691203E+03 -0.14673954668E+03 -0.27428690397E+03  0.44237989762E+03  0.80028095770E+02 0.  0.
         11    1    3    3    0    0  0.10380925000E+03 -0.15333435328E+03 -0.14583427057E+04  0.14700514384E+04  0.00000000000E+00 0.  1.
        -11    1    3    3    0    0 -0.16479400306E+02 -0.57537330034E+02 -0.37576167114E+03  0.38049828972E+03  0.00000000000E+00 0. -1.
          2    1    6    6  502    0  0.28540266066E+03 -0.15221716806E+03 -0.27211089052E+03  0.42269265631E+03  0.00000000000E+00 0. -1.
          1    1    5    5  503    0 -0.37417304234E+03  0.34890529095E+03 -0.37197002273E+02  0.51295612351E+03  0.00000000000E+00 0. -1.
         -2    1    5    5    0  503 -0.17343719391E+02  0.87059390359E+01 -0.17519915179E+02  0.26144701274E+02  0.00000000000E+00 0.  1.
         -1    1    6    6    0  502  0.18784251370E+02  0.54776213765E+01 -0.21760134541E+01  0.19687241301E+02  0.00000000000E+00 0.  1.
<mgrwt>
<rscale>  0 0.18279386E+04</rscale>
<asrwt>0</asrwt>
<pdfrwt beam="1">  1        2 0.38424144E+00 0.18279386E+04</pdfrwt>
<pdfrwt beam="2">  1       -2 0.51455558E-01 0.18279386E+04</pdfrwt>
<totfact> 0.11750824E+01</totfact>
</mgrwt>
</event>
<event>
12    1  0.1442183E-007  0.1870269E+04  0.7818608E-02  0.8669798E-01
          2   -1    0    0  501    0  0.00000000000E+00  0.00000000000E+00  0.96608648784E+03  0.96608648784E+03  0.00000000000E+00 0. -1.
         -2   -1    0    0    0  501 -0.00000000000E+00 -0.00000000000E+00 -0.90517456749E+03  0.90517456749E+03  0.00000000000E+00 0.  1.
         23    2    1    2    0    0  0.58418760145E+03 -0.40608723221E+03  0.77900699503E+01  0.71961174582E+03  0.10769580160E+03 0.  0.
        254    2    1    2    0    0 -0.58418760145E+03  0.40608723221E+03  0.53121850402E+02  0.11516493095E+04  0.90404214905E+03 0.  0.
        -24    2    4    4    0    0 -0.42352445832E+03  0.63152791218E+03  0.24762721193E+03  0.80358852594E+03  0.78960827482E+02 0.  0.
         24    2    4    4    0    0 -0.16066314313E+03 -0.22544067997E+03 -0.19450536153E+03  0.34806078357E+03  0.81717976284E+02 0.  0.
         11    1    3    3    0    0  0.16636393742E+03 -0.15259032555E+03 -0.37380437395E+02  0.22881884587E+03  0.00000000000E+00 0.  1.
        -11    1    3    3    0    0  0.41782366403E+03 -0.25349690666E+03  0.45170507345E+02  0.49079289995E+03  0.00000000000E+00 0. -1.
          4    1    6    6  502    0 -0.15997025347E+03 -0.20959771583E+03 -0.15586597972E+03  0.30629379378E+03  0.00000000000E+00 0. -1.
          3    1    5    5  503    0 -0.32939581537E+03  0.42691736297E+03  0.17099564706E+03  0.56568502658E+03  0.00000000000E+00 0. -1.
         -4    1    5    5    0  503 -0.94128642954E+02  0.20461054921E+03  0.76631564876E+02  0.23790349936E+03  0.00000000000E+00 0.  1.
         -3    1    6    6    0  502 -0.69288965983E+00 -0.15842964137E+02 -0.38639381811E+02  0.41766989782E+02  0.00000000000E+00 0.  1.
<mgrwt>
<rscale>  0 0.18702694E+04</rscale>
<asrwt>0</asrwt>
<pdfrwt beam="1">  1        2 0.14862869E+00 0.18702694E+04</pdfrwt>
<pdfrwt beam="2">  1       -2 0.13925763E+00 0.18702694E+04</pdfrwt>
<totfact> 0.90578554E+00</totfact>
</mgrwt>
</event>
<event>
12    1  0.1442183E-007  0.1419300E+04  0.7818608E-02  0.8939965E-01
          2   -1    0    0  501    0  0.00000000000E+00  0.00000000000E+00  0.54020177806E+03  0.54020177806E+03  0.00000000000E+00 0. -1.
         -2   -1    0    0    0  501 -0.00000000000E+00 -0.00000000000E+00 -0.93225019127E+03  0.93225019127E+03  0.00000000000E+00 0.  1.
         23    2    1    2    0    0 -0.76306800991E+01  0.35769987693E+03  0.12384834820E+03  0.38931462702E+03  0.90664415447E+02 0.  0.
        254    2    1    2    0    0  0.76306800991E+01 -0.35769987693E+03 -0.51589676141E+03  0.10831373423E+04  0.88262653747E+03 0.  0.
        -24    2    4    4    0    0 -0.10667916946E+03 -0.62806054351E+03 -0.29133192995E+03  0.70460843221E+03  0.75883185337E+02 0.  0.
         24    2    4    4    0    0  0.11430984956E+03  0.27036066658E+03 -0.22456483146E+03  0.37852891010E+03  0.81811616030E+02 0.  0.
         13    1    3    3    0    0 -0.29169413448E+02  0.23729342410E+03  0.11861056759E+03  0.26688478890E+03  0.00000000000E+00 0.  1.
        -13    1    3    3    0    0  0.21538733349E+02  0.12040645283E+03  0.52377806088E+01  0.12242983813E+03  0.00000000000E+00 0. -1.
          2    1    6    6  502    0  0.56626050424E+02  0.52602183845E+02 -0.38462795338E+02  0.86330098790E+02  0.00000000000E+00 0. -1.
          3    1    5    5  503    0 -0.34072768465E+02 -0.93372103069E+02 -0.69032829600E+02  0.12101584502E+03  0.00000000000E+00 0. -1.
         -4    1    5    5    0  503 -0.72606400995E+02 -0.53468844044E+03 -0.22229910035E+03  0.58359258719E+03  0.00000000000E+00 0.  1.
         -1    1    6    6    0  502  0.57683799136E+02  0.21775848273E+03 -0.18610203612E+03  0.29219881131E+03  0.00000000000E+00 0.  1.
<mgrwt>
<rscale>  0 0.14193001E+04</rscale>
<asrwt>0</asrwt>
<pdfrwt beam="1">  1        2 0.83107967E-01 0.14193001E+04</pdfrwt>
<pdfrwt beam="2">  1       -2 0.14342310E+00 0.14193001E+04</pdfrwt>
<totfact> 0.18418405E+01</totfact>
</mgrwt>
</event>
<event>
12    1  0.1442183E-007  0.1070069E+04  0.7818608E-02  0.9234866E-01
          1   -1    0    0  501    0  0.00000000000E+00  0.00000000000E+00  0.45327175195E+03  0.45327175195E+03  0.00000000000E+00 0. -1.
         -1   -1    0    0    0  501 -0.00000000000E+00 -0.00000000000E+00 -0.63154604227E+03  0.63154604227E+03  0.00000000000E+00 0.  1.
         23    2    1    2    0    0  0.39979816473E+02  0.10156562602E+03  0.50716740663E+02  0.15120930838E+03  0.91531989173E+02 0.  0.
        254    2    1    2    0    0 -0.39979816473E+02 -0.10156562602E+03 -0.22899103098E+03  0.93360848585E+03  0.89848425165E+03 0.  0.
        -24    2    4    4    0    0  0.19740593831E+03  0.26591657995E+03 -0.33395750172E+03  0.47657325692E+03  0.76900743026E+02 0.  0.
         24    2    4    4    0    0 -0.23738575479E+03 -0.36748220597E+03  0.10496647074E+03  0.45703522893E+03  0.80424326061E+02 0.  0.
         13    1    3    3    0    0  0.45173582904E+00  0.47299983110E+02  0.67106061277E+02  0.82101863119E+02  0.00000000000E+00 0. -1.
        -13    1    3    3    0    0  0.39528080644E+02  0.54265642910E+02 -0.16389320614E+02  0.69107445257E+02  0.00000000000E+00 0.  1.
          4    1    6    6  502    0 -0.22346067547E+03 -0.36534941905E+03  0.92326745459E+02  0.43810854752E+03  0.00000000000E+00 0. -1.
          3    1    5    5  503    0  0.16444884344E+03  0.22280898256E+03 -0.23278636124E+03  0.36176892459E+03  0.00000000000E+00 0. -1.
         -4    1    5    5    0  503  0.32957094877E+02  0.43107597390E+02 -0.10117114048E+03  0.11480433233E+03  0.00000000000E+00 0.  1.
         -3    1    6    6    0  502 -0.13925079314E+02 -0.21327869213E+01  0.12639725285E+02  0.18926681411E+02  0.00000000000E+00 0.  1.
<mgrwt>
<rscale>  0 0.10700691E+04</rscale>
<asrwt>0</asrwt>
<pdfrwt beam="1">  1        1 0.69734116E-01 0.10700691E+04</pdfrwt>
<pdfrwt beam="2">  1       -1 0.97160929E-01 0.10700691E+04</pdfrwt>
<totfact> 0.51549863E+01</totfact>
</mgrwt>
</event>
<event>
12    1  0.1442183E-007  0.1594399E+04  0.7818608E-02  0.8823996E-01
         -2   -1    0    0    0  501 -0.00000000000E+00  0.00000000000E+00  0.46934117648E+03  0.46934117648E+03  0.00000000000E+00 0.  1.
          2   -1    0    0  501    0  0.00000000000E+00 -0.00000000000E+00 -0.13540832982E+04  0.13540832982E+04  0.00000000000E+00 0. -1.
         23    2    1    2    0    0 -0.17469255627E+03 -0.17861905095E+03 -0.75796686132E+03  0.80378122448E+03  0.95541820099E+02 0.  0.
        254    2    1    2    0    0  0.17469255627E+03  0.17861905095E+03 -0.12677526038E+03  0.10196432502E+04  0.98039692800E+03 0.  0.
        -24    2    4    4    0    0 -0.15985942448E+02  0.42473834487E+03  0.26946912662E+03  0.50990541981E+03  0.82047029145E+02 0.  0.
         24    2    4    4    0    0  0.19067849872E+03 -0.24611929391E+03 -0.39624438701E+03  0.50973783038E+03  0.76746627124E+02 0.  0.
         11    1    3    3    0    0 -0.47762583717E+02 -0.60606417945E+02 -0.38301694453E+03  0.39071265924E+03  0.00000000000E+00 0.  1.
        -11    1    3    3    0    0 -0.12692997256E+03 -0.11801263301E+03 -0.37494991679E+03  0.41306856523E+03  0.00000000000E+00 0. -1.
          2    1    6    6  502    0  0.74460531366E+02 -0.56632868702E+02 -0.16010871361E+03  0.18543584530E+03  0.00000000000E+00 0. -1.
          1    1    5    5  503    0  0.28078733007E+02  0.81338723376E+02  0.64789859812E+02  0.10771317980E+03  0.00000000000E+00 0. -1.
         -2    1    5    5    0  503 -0.44064675454E+02  0.34339962149E+03  0.20467926681E+03  0.40219224001E+03  0.00000000000E+00 0.  1.
         -3    1    6    6    0  502  0.11621796736E+03 -0.18948642521E+03 -0.23613567340E+03  0.32430198508E+03  0.00000000000E+00 0.  1.
<mgrwt>
<rscale>  0 0.15943990E+04</rscale>
<asrwt>0</asrwt>
<pdfrwt beam="1">  1        2 0.20832051E+00 0.15943990E+04</pdfrwt>
<pdfrwt beam="2">  1       -2 0.72206335E-01 0.15943990E+04</pdfrwt>
<totfact> 0.25619625E+01</totfact>
</mgrwt>
</event>
<event>
12    1  0.1442183E-007  0.1973633E+04  0.7818608E-02  0.8619048E-01
          1   -1    0    0  501    0  0.00000000000E+00  0.00000000000E+00  0.13816827038E+04  0.13816827038E+04  0.00000000000E+00 0. -1.
         -1   -1    0    0    0  501 -0.00000000000E+00 -0.00000000000E+00 -0.70479773925E+03  0.70479773925E+03  0.00000000000E+00 0.  1.
         23    2    1    2    0    0 -0.48798618783E+03  0.35822046625E+01 -0.37080370396E+03  0.61967586070E+03  0.91429939098E+02 0.  0.
        254    2    1    2    0    0  0.48798618783E+03 -0.35822046625E+01  0.10476886685E+04  0.14668045824E+04  0.90317262191E+03 0.  0.
        -24    2    4    4    0    0  0.65259451227E+03  0.25042968310E+03  0.62058202181E+03  0.93797358533E+03  0.77960100993E+02 0.  0.
         24    2    4    4    0    0 -0.16460832445E+03 -0.25401188776E+03  0.42710664672E+03  0.52883099704E+03  0.74994640849E+02 0.  0.
         13    1    3    3    0    0 -0.69815224336E+02  0.18899545052E+01 -0.16925624103E+02  0.71862467453E+02  0.00000000000E+00 0. -1.
        -13    1    3    3    0    0 -0.41817096349E+03  0.16922501573E+01 -0.35387807986E+03  0.54781339325E+03  0.00000000000E+00 0.  1.
          4    1    6    6  502    0 -0.63284674064E+02 -0.86183944946E+02  0.21426579298E+03  0.23946284133E+03  0.00000000000E+00 0. -1.
          3    1    5    5  503    0  0.20100587422E+03  0.54819535192E+02  0.14701671209E+03  0.25499501278E+03  0.00000000000E+00 0. -1.
         -4    1    5    5    0  503  0.45158863806E+03  0.19561014791E+03  0.47356530973E+03  0.68297857255E+03  0.00000000000E+00 0.  1.
         -3    1    6    6    0  502 -0.10132365038E+03 -0.16782794282E+03  0.21284085374E+03  0.28936815571E+03  0.00000000000E+00 0.  1.
<mgrwt>
<rscale>  0 0.19736330E+04</rscale>
<asrwt>0</asrwt>
<pdfrwt beam="1">  1        1 0.21256657E+00 0.19736330E+04</pdfrwt>
<pdfrwt beam="2">  1       -1 0.10843042E+00 0.19736330E+04</pdfrwt>
<totfact> 0.58099231E+00</totfact>
</mgrwt>
</event>
<event>
12    1  0.1442183E-007  0.1806942E+04  0.7818608E-02  0.8702617E-01
          2   -1    0    0  501    0  0.00000000000E+00  0.00000000000E+00  0.18876201687E+04  0.18876201687E+04  0.00000000000E+00 0. -1.
         -2   -1    0    0    0  501 -0.00000000000E+00 -0.00000000000E+00 -0.43242785844E+03  0.43242785844E+03  0.00000000000E+00 0.  1.
         23    2    1    2    0    0  0.67222528597E+03 -0.53290625771E+01  0.61298308285E+03  0.91450919682E+03  0.93078339010E+02 0.  0.
        254    2    1    2    0    0 -0.67222528597E+03  0.53290625771E+01  0.84220922742E+03  0.14055388303E+04  0.90239004140E+03 0.  0.
        -24    2    4    4    0    0  0.19450169156E+03 -0.43003699616E+02  0.34909190907E+02  0.21733156212E+03  0.79587248248E+02 0.  0.
         24    2    4    4    0    0 -0.86672697754E+03  0.48332762193E+02  0.80730003652E+03  0.11882072682E+04  0.80941051302E+02 0.  0.
         11    1    3    3    0    0  0.17162823634E+02  0.40781295567E+01  0.47484031568E+00  0.17647071403E+02  0.00000000000E+00 0. -1.
        -11    1    3    3    0    0  0.65506246234E+03 -0.94071921338E+01  0.61250824254E+03  0.89686212541E+03  0.00000000000E+00 0.  1.
          4    1    6    6  502    0 -0.60578495965E+03  0.12126340723E+02  0.60302223662E+03  0.85484401112E+03  0.00000000000E+00 0. -1.
          1    1    5    5  503    0  0.19242990949E+03 -0.22323946801E+02  0.31999138148E+02  0.19634554620E+03  0.00000000000E+00 0. -1.
         -2    1    5    5    0  503  0.20717820685E+01 -0.20679752815E+02  0.29100527589E+01  0.20986015927E+02  0.00000000000E+00 0.  1.
         -1    1    6    6    0  502 -0.26094201788E+03  0.36206421470E+02  0.20427779989E+03  0.33336325709E+03  0.00000000000E+00 0.  1.
<mgrwt>
<rscale>  0 0.18069417E+04</rscale>
<asrwt>0</asrwt>
<pdfrwt beam="1">  1        2 0.29040310E+00 0.18069417E+04</pdfrwt>
<pdfrwt beam="2">  1       -2 0.66527364E-01 0.18069417E+04</pdfrwt>
<totfact> 0.15113219E+01</totfact>
</mgrwt>
</event>
<event>
12    1  0.1442183E-007  0.1073233E+04  0.7818608E-02  0.9231681E-01
          2   -1    0    0  501    0  0.00000000000E+00  0.00000000000E+00  0.25700664367E+04  0.25700664367E+04  0.00000000000E+00 0. -1.
         -2   -1    0    0    0  501 -0.00000000000E+00 -0.00000000000E+00 -0.11204275913E+03  0.11204275913E+03  0.00000000000E+00 0.  1.
         23    2    1    2    0    0 -0.12409532201E+03 -0.12541318223E+02  0.43190518243E+03  0.45958899190E+03  0.95514508108E+02 0.  0.
        254    2    1    2    0    0  0.12409532201E+03  0.12541318223E+02  0.20261184952E+04  0.22225202040E+04  0.90492152527E+03 0.  0.
        -24    2    4    4    0    0  0.21767045456E+03  0.42381823644E+03  0.10222646336E+04  0.11307009614E+04  0.80357692492E+02 0.  0.
         24    2    4    4    0    0 -0.93575132553E+02 -0.41127691822E+03  0.10038538616E+04  0.10918192425E+04  0.80260040243E+02 0.  0.
         13    1    3    3    0    0 -0.12069022697E+03  0.21680832524E+02  0.33090819523E+03  0.35289718483E+03  0.00000000000E+00 0.  1.
        -13    1    3    3    0    0 -0.34050950346E+01 -0.34222150747E+02  0.10099698719E+03  0.10669180707E+03  0.00000000000E+00 0. -1.
          2    1    6    6  502    0  0.89496737362E+01 -0.33102564792E+02  0.12417625117E+03  0.12882397995E+03  0.00000000000E+00 0. -1.
          1    1    5    5  503    0  0.13333821608E+03  0.18783122904E+03  0.54397271348E+03  0.59073341151E+03  0.00000000000E+00 0. -1.
         -2    1    5    5    0  503  0.84332238482E+02  0.23598700740E+03  0.47829192013E+03  0.53996754993E+03  0.00000000000E+00 0.  1.
         -1    1    6    6    0  502 -0.10252480629E+03 -0.37817435342E+03  0.87967761041E+03  0.96299526257E+03  0.00000000000E+00 0.  1.
<mgrwt>
<rscale>  0 0.10732331E+04</rscale>
<asrwt>0</asrwt>
<pdfrwt beam="1">  1        2 0.39539479E+00 0.10732331E+04</pdfrwt>
<pdfrwt beam="2">  1       -2 0.17237349E-01 0.10732331E+04</pdfrwt>
<totfact> 0.88204667E+01</totfact>
</mgrwt>
</event>
<event>
12    1  0.1442183E-007  0.1457279E+04  0.7818608E-02  0.8913370E-01
          1   -1    0    0  501    0  0.00000000000E+00  0.00000000000E+00  0.58996227569E+03  0.58996227569E+03  0.00000000000E+00 0. -1.
         -1   -1    0    0    0  501 -0.00000000000E+00 -0.00000000000E+00 -0.89991461819E+03  0.89991461819E+03  0.00000000000E+00 0.  1.
         23    2    1    2    0    0 -0.23127642155E+03 -0.20780634631E+03 -0.42044508445E+03  0.53095037555E+03  0.91988975037E+02 0.  0.
        254    2    1    2    0    0  0.23127642155E+03  0.20780634631E+03  0.11049274195E+03  0.95892651833E+03  0.90036612598E+03 0.  0.
        -24    2    4    4    0    0  0.87353778772E+01  0.51951875541E+03  0.19131078746E+03  0.55901353603E+03  0.76943303935E+02 0.  0.
         24    2    4    4    0    0  0.22254104367E+03 -0.31171240910E+03 -0.80818045504E+02  0.39991298230E+03  0.81912726889E+02 0.  0.
         11    1    3    3    0    0 -0.95440055940E+01 -0.28723936196E+02 -0.11282556615E+02  0.32302455590E+02  0.00000000000E+00 0. -1.
        -11    1    3    3    0    0 -0.22173241595E+03 -0.17908241011E+03 -0.40916252783E+03  0.49864791996E+03  0.00000000000E+00 0.  1.
          4    1    6    6  502    0  0.63044687094E+02 -0.15496774600E+03 -0.22483806722E+02  0.16880508415E+03  0.00000000000E+00 0. -1.
          3    1    5    5  503    0  0.31362745010E+02  0.44532005690E+03  0.17645754629E+03  0.48003212444E+03  0.00000000000E+00 0. -1.
         -4    1    5    5    0  503 -0.22627367133E+02  0.74198698509E+02  0.14853241169E+02  0.78981411592E+02  0.00000000000E+00 0.  1.
         -3    1    6    6    0  502  0.15949635657E+03 -0.15674466311E+03 -0.58334238782E+02  0.23110789815E+03  0.00000000000E+00 0.  1.
<mgrwt>
<rscale>  0 0.14572792E+04</rscale>
<asrwt>0</asrwt>
<pdfrwt beam="1">  1        1 0.90763427E-01 0.14572792E+04</pdfrwt>
<pdfrwt beam="2">  1       -1 0.13844840E+00 0.14572792E+04</pdfrwt>
<totfact> 0.14702963E+01</totfact>
</mgrwt>
</event>
<event>
12    1  0.1442183E-007  0.1973949E+04  0.7818608E-02  0.8618898E-01
         -1   -1    0    0    0  501 -0.00000000000E+00  0.00000000000E+00  0.83670946507E+03  0.83670946507E+03  0.00000000000E+00 0.  1.
          1   -1    0    0  501    0  0.00000000000E+00 -0.00000000000E+00 -0.11642260684E+04  0.11642260684E+04  0.00000000000E+00 0. -1.
         23    2    1    2    0    0  0.71926775083E+03 -0.29074462926E+03 -0.25011250075E+02  0.78163810122E+03  0.91945754755E+02 0.  0.
        254    2    1    2    0    0 -0.71926775083E+03  0.29074462926E+03 -0.30250535329E+03  0.12192974323E+04  0.89067289325E+03 0.  0.
        -24    2    4    4    0    0 -0.87024916158E+03  0.41144883300E+03 -0.29634228896E+03  0.10102554078E+04  0.78571568291E+02 0.  0.
         24    2    4    4    0    0  0.15098141075E+03 -0.12070420374E+03 -0.61630643244E+01  0.20904202448E+03  0.79345405948E+02 0.  0.
         11    1    3    3    0    0  0.71820509226E+03 -0.28763731167E+03 -0.31566469028E+02  0.77430628279E+03  0.00000000000E+00 0.  1.
        -11    1    3    3    0    0  0.10626585728E+01 -0.31073175951E+01  0.65552189538E+01  0.73318184246E+01  0.00000000000E+00 0. -1.
          4    1    6    6  502    0  0.45860401937E+02 -0.39405819748E+02 -0.39259463720E+02  0.72092306021E+02  0.00000000000E+00 0. -1.
          3    1    5    5  503    0 -0.36401917374E+03  0.19487993391E+03 -0.16159840047E+03  0.44339845571E+03  0.00000000000E+00 0. -1.
         -4    1    5    5    0  503 -0.50622998785E+03  0.21656889909E+03 -0.13474388849E+03  0.56685695209E+03  0.00000000000E+00 0.  1.
         -3    1    6    6    0  502  0.10512100882E+03 -0.81298383994E+02  0.33096399396E+02  0.13694971846E+03  0.00000000000E+00 0.  1.
<mgrwt>
<rscale>  0 0.19739493E+04</rscale>
<asrwt>0</asrwt>
<pdfrwt beam="1">  1        1 0.17911170E+00 0.19739493E+04</pdfrwt>
<pdfrwt beam="2">  1       -1 0.12872453E+00 0.19739493E+04</pdfrwt>
<totfact> 0.54886738E+00</totfact>
</mgrwt>
</event>
<event>
12    1  0.1442183E-007  0.1620932E+04  0.7818608E-02  0.8807791E-01
          1   -1    0    0  501    0  0.00000000000E+00  0.00000000000E+00  0.13245306276E+04  0.13245306276E+04  0.00000000000E+00 0. -1.
         -1   -1    0    0    0  501 -0.00000000000E+00 -0.00000000000E+00 -0.49591543832E+03  0.49591543832E+03  0.00000000000E+00 0.  1.
         23    2    1    2    0    0  0.46899160424E+01 -0.44236579491E+03  0.66688935042E+03  0.80577206248E+03  0.93902711100E+02 0.  0.
        254    2    1    2    0    0 -0.46899160424E+01  0.44236579491E+03  0.16172583890E+03  0.10146740035E+04  0.89872053195E+03 0.  0.
        -24    2    4    4    0    0  0.41979892611E+03  0.94982848765E+02  0.14196667174E+03  0.46007431861E+03  0.79126246185E+02 0.  0.
         24    2    4    4    0    0 -0.42448884216E+03  0.34738294614E+03  0.19759167161E+02  0.55459968486E+03  0.79527966023E+02 0.  0.
         11    1    3    3    0    0  0.72690243635E+01 -0.61550940327E+02  0.16135475965E+03  0.17284882248E+03  0.00000000000E+00 0. -1.
        -11    1    3    3    0    0 -0.25791083211E+01 -0.38081485458E+03  0.50553459077E+03  0.63292324000E+03  0.00000000000E+00 0.  1.
          4    1    6    6  502    0 -0.34847729984E+03  0.26161323856E+03  0.42304672200E+02  0.43779858426E+03  0.00000000000E+00 0. -1.
          1    1    5    5  503    0  0.32043006514E+03  0.10266079637E+03  0.12518170581E+03  0.35900574540E+03  0.00000000000E+00 0. -1.
         -2    1    5    5    0  503  0.99368860969E+02 -0.76779476048E+01  0.16784965921E+02  0.10106857321E+03  0.00000000000E+00 0.  1.
         -3    1    6    6    0  502 -0.76011542319E+02  0.85769707587E+02 -0.22545505039E+02  0.11680110061E+03  0.00000000000E+00 0.  1.
<mgrwt>
<rscale>  0 0.16209321E+04</rscale>
<asrwt>0</asrwt>
<pdfrwt beam="1">  1        1 0.20377394E+00 0.16209321E+04</pdfrwt>
<pdfrwt beam="2">  1       -1 0.76294684E-01 0.16209321E+04</pdfrwt>
<totfact> 0.14354211E+01</totfact>
</mgrwt>
</event>
<event>
12    1  0.1442183E-007  0.1525041E+04  0.7818608E-02  0.8867969E-01
          2   -1    0    0  501    0  0.00000000000E+00  0.00000000000E+00  0.17133920145E+04  0.17133920145E+04  0.00000000000E+00 0. -1.
         -2   -1    0    0    0  501 -0.00000000000E+00 -0.00000000000E+00 -0.33934888688E+03  0.33934888688E+03  0.00000000000E+00 0.  1.
         23    2    1    2    0    0 -0.35985095876E+03  0.65526534782E+02  0.27150748672E+02  0.37804885271E+03  0.91636960880E+02 0.  0.
        254    2    1    2    0    0  0.35985095876E+03 -0.65526534782E+02  0.13468923789E+04  0.16746920487E+04  0.92557438282E+03 0.  0.
        -24    2    4    4    0    0  0.77561526376E+02  0.15226863740E+02 -0.12635221397E+03  0.17024221570E+03  0.82279294349E+02 0.  0.
         24    2    4    4    0    0  0.28228943238E+03 -0.80753398523E+02  0.14732445929E+04  0.15044498330E+04  0.81922123656E+02 0.  0.
         11    1    3    3    0    0 -0.27425637774E+03  0.35946241592E+02 -0.17347167302E+02  0.27714548026E+03  0.00000000000E+00 0.  1.
        -11    1    3    3    0    0 -0.85594581019E+02  0.29580293191E+02  0.44497915973E+02  0.10090337245E+03  0.00000000000E+00 0. -1.
          2    1    6    6  502    0  0.23401973642E+03 -0.32604458083E+02  0.11114925703E+04  0.11363291871E+04  0.00000000000E+00 0. -1.
          3    1    5    5  503    0 -0.75876689558E+01 -0.19722471543E+02 -0.32679803314E+02  0.38916810617E+02  0.00000000000E+00 0. -1.
         -4    1    5    5    0  503  0.85149195332E+02  0.34949335283E+02 -0.93672410659E+02  0.13132540509E+03  0.00000000000E+00 0.  1.
         -1    1    6    6    0  502  0.48269695964E+02 -0.48148940440E+02  0.36175202259E+03  0.36812064580E+03  0.00000000000E+00 0.  1.
<mgrwt>
<rscale>  0 0.15250412E+04</rscale>
<asrwt>0</asrwt>
<pdfrwt beam="1">  1        2 0.26359877E+00 0.15250412E+04</pdfrwt>
<pdfrwt beam="2">  1       -2 0.52207522E-01 0.15250412E+04</pdfrwt>
<totfact> 0.32192635E+01</totfact>
</mgrwt>
</event>
<event>
12    1  0.1442183E-007  0.1128622E+04  0.7818608E-02  0.9177735E-01
          2   -1    0    0  501    0  0.00000000000E+00  0.00000000000E+00  0.28327201060E+03  0.28327201060E+03  0.00000000000E+00 0. -1.
         -2   -1    0    0    0  501 -0.00000000000E+00 -0.00000000000E+00 -0.11241734319E+04  0.11241734319E+04  0.00000000000E+00 0.  1.
         23    2    1    2    0    0 -0.17973791827E+03 -0.35304357821E+02 -0.74924951652E+02  0.21796441362E+03  0.91337945472E+02 0.  0.
        254    2    1    2    0    0  0.17973791827E+03  0.35304357821E+02 -0.76597646966E+03  0.11894810289E+04  0.89139948905E+03 0.  0.
        -24    2    4    4    0    0 -0.17342061200E+03  0.36944619280E+03 -0.32281907547E+03  0.52644470357E+03  0.79791430575E+02 0.  0.
         24    2    4    4    0    0  0.35315853026E+03 -0.33414183498E+03 -0.44315739419E+03  0.66303632532E+03  0.82806879401E+02 0.  0.
         13    1    3    3    0    0 -0.16202197008E+03 -0.26447948852E+02 -0.27347125444E+02  0.16642859747E+03  0.00000000000E+00 0. -1.
        -13    1    3    3    0    0 -0.17715948190E+02 -0.88564089689E+01 -0.47577826207E+02  0.51535816155E+02  0.00000000000E+00 0.  1.
          2    1    6    6  502    0  0.22122275750E+03 -0.26160197353E+03 -0.31054705245E+03  0.46240087886E+03  0.00000000000E+00 0. -1.
          1    1    5    5  503    0 -0.15632516650E+03  0.36636252113E+03 -0.31213567321E+03  0.50605111704E+03  0.00000000000E+00 0. -1.
         -2    1    5    5    0  503 -0.17095445503E+02  0.30836716750E+01 -0.10683402257E+02  0.20393586534E+02  0.00000000000E+00 0.  1.
         -1    1    6    6    0  502  0.13193577277E+03 -0.72539861451E+02 -0.13261034175E+03  0.20063544645E+03  0.00000000000E+00 0.  1.
<mgrwt>
<rscale>  0 0.11286219E+04</rscale>
<asrwt>0</asrwt>
<pdfrwt beam="1">  1        2 0.43580310E-01 0.11286219E+04</pdfrwt>
<pdfrwt beam="2">  1       -2 0.17294976E+00 0.11286219E+04</pdfrwt>
<totfact> 0.23540305E+01</totfact>
</mgrwt>
</event>
<event>
12    1  0.1442183E-007  0.1917757E+04  0.7818608E-02  0.8646068E-01
          2   -1    0    0  501    0  0.00000000000E+00  0.00000000000E+00  0.79026334746E+03  0.79026334746E+03  0.00000000000E+00 0. -1.
         -2   -1    0    0    0  501 -0.00000000000E+00 -0.00000000000E+00 -0.11634701245E+04  0.11634701245E+04  0.00000000000E+00 0.  1.
         23    2    1    2    0    0 -0.52780075855E+03  0.39091804756E+03  0.22335049535E+03  0.69899739939E+03  0.85564945740E+02 0.  0.
        254    2    1    2    0    0  0.52780075855E+03 -0.39091804756E+03 -0.59655727237E+03  0.12547360726E+04  0.88718175810E+03 0.  0.
        -24    2    4    4    0    0  0.85974503610E+02 -0.24358166228E+03 -0.71830290687E+03  0.76757971967E+03  0.80597261420E+02 0.  0.
         24    2    4    4    0    0  0.44182625494E+03 -0.14733638528E+03  0.12174563450E+03  0.48715635288E+03  0.74705171529E+02 0.  0.
         13    1    3    3    0    0 -0.13814170680E+03  0.13769108960E+03  0.94626256053E+02  0.21678582898E+03  0.00000000000E+00 0. -1.
        -13    1    3    3    0    0 -0.38965905175E+03  0.25322695796E+03  0.12872423930E+03  0.48221157040E+03  0.00000000000E+00 0.  1.
          2    1    6    6  502    0  0.28892397427E+03 -0.88978710963E+02  0.42392208060E+02  0.30527262114E+03  0.00000000000E+00 0. -1.
          1    1    5    5  503    0  0.96146164524E+02 -0.22484901211E+03 -0.60986490971E+03  0.65706648925E+03  0.00000000000E+00 0. -1.
         -2    1    5    5    0  503 -0.10171660914E+02 -0.18732650175E+02 -0.10843799717E+03  0.11051323042E+03  0.00000000000E+00 0.  1.
         -1    1    6    6    0  502  0.15290228067E+03 -0.58357674313E+02  0.79353426440E+02  0.18188373175E+03  0.00000000000E+00 0.  1.
<mgrwt>
<rscale>  0 0.19177568E+04</rscale>
<asrwt>0</asrwt>
<pdfrwt beam="1">  1        2 0.12157898E+00 0.19177568E+04</pdfrwt>
<pdfrwt beam="2">  1       -2 0.17899540E+00 0.19177568E+04</pdfrwt>
<totfact> 0.60300566E+00</totfact>
</mgrwt>
</event>
<event>
12    1  0.1442183E-007  0.1368005E+04  0.7818608E-02  0.8977310E-01
          1   -1    0    0  501    0  0.00000000000E+00  0.00000000000E+00  0.11974679879E+04  0.11974679879E+04  0.00000000000E+00 0. -1.
         -1   -1    0    0    0  501 -0.00000000000E+00 -0.00000000000E+00 -0.39070704027E+03  0.39070704027E+03  0.00000000000E+00 0.  1.
         23    2    1    2    0    0  0.70487712110E+02  0.13408661299E+03 -0.18128783716E+03  0.25287841142E+03  0.90191317305E+02 0.  0.
        254    2    1    2    0    0 -0.70487712110E+02 -0.13408661299E+03  0.98804878482E+03  0.13352966168E+04  0.88534112989E+03 0.  0.
        -24    2    4    4    0    0  0.21751463412E+03 -0.23184442915E+03  0.30942815237E+02  0.32781919698E+03  0.73780164733E+02 0.  0.
         24    2    4    4    0    0 -0.28800234623E+03  0.97757816163E+02  0.95710596959E+03  0.10074774198E+04  0.80355288293E+02 0.  0.
         11    1    3    3    0    0  0.56212105699E+02  0.14287320861E+03 -0.13792262200E+03  0.20638605627E+03  0.00000000000E+00 0.  1.
        -11    1    3    3    0    0  0.14275606411E+02 -0.87865956165E+01 -0.43365215163E+02  0.46492355147E+02  0.00000000000E+00 0. -1.
          4    1    6    6  502    0 -0.23931812504E+03  0.93231264268E+02  0.87500052496E+03  0.91191619806E+03  0.00000000000E+00 0. -1.
          3    1    5    5  503    0  0.19214903882E+03 -0.23125658104E+03  0.32381389283E+02  0.30240604122E+03  0.00000000000E+00 0. -1.
         -4    1    5    5    0  503  0.25365595302E+02 -0.58784811106E+00 -0.14385740462E+01  0.25413155761E+02  0.00000000000E+00 0.  1.
         -3    1    6    6    0  502 -0.48684221185E+02  0.45265518947E+01  0.82105444627E+02  0.95561221748E+02  0.00000000000E+00 0.  1.
<mgrwt>
<rscale>  0 0.13680046E+04</rscale>
<asrwt>0</asrwt>
<pdfrwt beam="1">  1        1 0.18422584E+00 0.13680046E+04</pdfrwt>
<pdfrwt beam="2">  1       -1 0.60108776E-01 0.13680046E+04</pdfrwt>
<totfact> 0.29437450E+01</totfact>
</mgrwt>
</event>
<event>
12    1  0.1442183E-007  0.1461790E+04  0.7818608E-02  0.8910268E-01
         -1   -1    0    0    0  501 -0.00000000000E+00  0.00000000000E+00  0.23397081233E+03  0.23397081233E+03  0.00000000000E+00 0.  1.
          1   -1    0    0  501    0  0.00000000000E+00 -0.00000000000E+00 -0.22832215168E+04  0.22832215168E+04  0.00000000000E+00 0. -1.
         23    2    1    2    0    0 -0.33138355000E+03  0.24321597452E+03 -0.34846629262E+03  0.54627601400E+03  0.89552548240E+02 0.  0.
        254    2    1    2    0    0  0.33138355000E+03 -0.24321597452E+03 -0.17007844119E+04  0.19709163152E+04  0.90712426834E+03 0.  0.
        -24    2    4    4    0    0 -0.12748110896E+03 -0.42454926887E+03 -0.11045862477E+04  0.11928658823E+04  0.79528106114E+02 0.  0.
         24    2    4    4    0    0  0.45886465896E+03  0.18133329435E+03 -0.59619816417E+03  0.77805043287E+03  0.80446791416E+02 0.  0.
         13    1    3    3    0    0 -0.17052099367E+03  0.84018672138E+02 -0.19812224100E+03  0.27457051723E+03  0.00000000000E+00 0. -1.
        -13    1    3    3    0    0 -0.16086255633E+03  0.15919730239E+03 -0.15034405162E+03  0.27170549677E+03  0.00000000000E+00 0.  1.
          2    1    6    6  502    0  0.31937862915E+03  0.12301382893E+03 -0.46821962997E+03  0.57996959640E+03  0.00000000000E+00 0. -1.
          3    1    5    5  503    0  0.23414261291E+01  0.26184739181E+01 -0.13974243509E+02  0.14408961226E+02  0.00000000000E+00 0. -1.
         -4    1    5    5    0  503 -0.12982253509E+03 -0.42716774279E+03 -0.10906120042E+04  0.11784569211E+04  0.00000000000E+00 0.  1.
         -1    1    6    6    0  502  0.13948602981E+03  0.58319465421E+02 -0.12797853421E+03  0.19808083647E+03  0.00000000000E+00 0.  1.
<mgrwt>
<rscale>  0 0.14617896E+04</rscale>
<asrwt>0</asrwt>
<pdfrwt beam="1">  1        1 0.35126483E+00 0.14617896E+04</pdfrwt>
<pdfrwt beam="2">  1       -1 0.35995511E-01 0.14617896E+04</pdfrwt>
<totfact> 0.13706216E+01</totfact>
</mgrwt>
</event>
<event>
12    1  0.1442183E-007  0.1597542E+04  0.7818608E-02  0.8822060E-01
         -2   -1    0    0    0  501 -0.00000000000E+00  0.00000000000E+00  0.44580698418E+03  0.44580698418E+03  0.00000000000E+00 0.  1.
          2   -1    0    0  501    0  0.00000000000E+00 -0.00000000000E+00 -0.14311906677E+04  0.14311906677E+04  0.00000000000E+00 0. -1.
         23    2    1    2    0    0  0.18078578928E+03  0.14855304604E+03 -0.93799358648E+03  0.97040987059E+03  0.84331723368E+02 0.  0.
        254    2    1    2    0    0 -0.18078578928E+03 -0.14855304604E+03 -0.47390096988E+02  0.90658778125E+03  0.87458794567E+03 0.  0.
        -24    2    4    4    0    0  0.12324129991E+03 -0.38490052167E+03  0.18269653826E+03  0.45107865324E+03  0.82201561614E+02 0.  0.
         24    2    4    4    0    0 -0.30402708920E+03  0.23634747563E+03 -0.23008663525E+03  0.45550912801E+03  0.79095548392E+02 0.  0.
         11    1    3    3    0    0  0.17639148845E+03  0.15798639345E+03 -0.91544652963E+03  0.94557707583E+03  0.00000000000E+00 0. -1.
        -11    1    3    3    0    0  0.43943008369E+01 -0.94333474141E+01 -0.22547056852E+02  0.24832794768E+02  0.00000000000E+00 0.  1.
          2    1    6    6  502    0 -0.21640817416E+03  0.21013918946E+03 -0.17437453924E+03  0.34842137811E+03  0.00000000000E+00 0. -1.
          1    1    5    5  503    0  0.53468003653E+02 -0.27960017516E+03  0.14367921299E+03  0.31887113637E+03  0.00000000000E+00 0. -1.
         -2    1    5    5    0  503  0.69773296259E+02 -0.10530034651E+03  0.39017325266E+02  0.13220751687E+03  0.00000000000E+00 0.  1.
         -1    1    6    6    0  502 -0.87618915039E+02  0.26208286176E+02 -0.55712096006E+02  0.10708774990E+03  0.00000000000E+00 0.  1.
<mgrwt>
<rscale>  0 0.15975416E+04</rscale>
<asrwt>0</asrwt>
<pdfrwt beam="1">  1        2 0.22018318E+00 0.15975416E+04</pdfrwt>
<pdfrwt beam="2">  1       -2 0.68585691E-01 0.15975416E+04</pdfrwt>
<totfact> 0.25888398E+01</totfact>
</mgrwt>
</event>
<event>
12    1  0.1442183E-007  0.1719269E+04  0.7818608E-02  0.8750450E-01
         -1   -1    0    0    0  501 -0.00000000000E+00  0.00000000000E+00  0.37400337773E+03  0.37400337773E+03  0.00000000000E+00 0.  1.
          1   -1    0    0  501    0  0.00000000000E+00 -0.00000000000E+00 -0.19758410784E+04  0.19758410784E+04  0.00000000000E+00 0. -1.
         23    2    1    2    0    0 -0.18785679485E+02 -0.49263562374E+02  0.24363269068E+03  0.26575629701E+03  0.92139682559E+02 0.  0.
        254    2    1    2    0    0  0.18785679485E+02  0.49263562374E+02 -0.18454703914E+04  0.20840881591E+04  0.96689331848E+03 0.  0.
        -24    2    4    4    0    0 -0.24262924186E+03 -0.37982322620E+03 -0.82011485703E+03  0.93923021505E+03  0.80189687440E+02 0.  0.
         24    2    4    4    0    0  0.26141492135E+03  0.42908678858E+03 -0.10253555343E+04  0.11448579441E+04  0.83021124493E+02 0.  0.
         13    1    3    3    0    0 -0.28136868398E+02 -0.12415759050E+02  0.15428788770E+02  0.34407585776E+02  0.00000000000E+00 0. -1.
        -13    1    3    3    0    0  0.93511889128E+01 -0.36847803325E+02  0.22820390191E+03  0.23134871123E+03  0.00000000000E+00 0.  1.
          4    1    6    6  502    0  0.25752936862E+03  0.38708008469E+03 -0.90713850138E+03  0.10193393097E+04  0.00000000000E+00 0. -1.
          3    1    5    5  503    0 -0.17407114142E+03 -0.31404927385E+03 -0.69341039380E+03  0.78086214079E+03  0.00000000000E+00 0. -1.
         -4    1    5    5    0  503 -0.68558100439E+02 -0.65773952354E+02 -0.12670446323E+03  0.15836807427E+03  0.00000000000E+00 0.  1.
         -3    1    6    6    0  502  0.38855527316E+01  0.42006703889E+02 -0.11821703295E+03  0.12551863436E+03  0.00000000000E+00 0.  1.
<mgrwt>
<rscale>  0 0.17192687E+04</rscale>
<asrwt>0</asrwt>
<pdfrwt beam="1">  1        1 0.30397554E+00 0.17192687E+04</pdfrwt>
<pdfrwt beam="2">  1       -1 0.57538983E-01 0.17192687E+04</pdfrwt>
<totfact> 0.89963928E+00</totfact>
</mgrwt>
</event>
<event>
12    1  0.1916710E-007  0.1615649E+04  0.7818608E-02  0.8810991E-01
          1   -1    0    0  501    0  0.00000000000E+00  0.00000000000E+00  0.11001682667E+04  0.11001682667E+04  0.00000000000E+00 0. -1.
         -1   -1    0    0    0  501 -0.00000000000E+00 -0.00000000000E+00 -0.59316435761E+03  0.59316435761E+03  0.00000000000E+00 0.  1.
         23    2    1    2    0    0 -0.45638122670E+02  0.56455874489E+02 -0.39811032537E+03  0.41472889493E+03  0.90764095987E+02 0.  0.
        254    2    1    2    0    0  0.45638122670E+02 -0.56455874489E+02  0.90511423449E+03  0.12786037294E+04  0.90018087925E+03 0.  0.
        -24    2    4    4    0    0 -0.34076598611E+03  0.19950561319E+03  0.58422481429E+03  0.70963917922E+03  0.79656663669E+02 0.  0.
         24    2    4    4    0    0  0.38640410878E+03 -0.25596148768E+03  0.32088942020E+03  0.56896455019E+03  0.76981951931E+02 0.  0.
         11    1    3    3    0    0  0.12631447102E+02 -0.16929089055E+02 -0.51200474006E+02  0.55386244236E+02  0.00000000000E+00 0. -1.
        -11    1    3    3    0    0 -0.58269569772E+02  0.73384963544E+02 -0.34690985137E+03  0.35934265070E+03  0.00000000000E+00 0.  1.
          2    1    6    6  502    0  0.38336886765E+03 -0.25048703048E+03  0.30074827932E+03  0.54787313188E+03  0.00000000000E+00 0. -1.
          1    1    5    5  503    0 -0.32581588684E+03  0.17004704682E+03  0.51233988330E+03  0.63052687990E+03  0.00000000000E+00 0. -1.
         -2    1    5    5    0  503 -0.14950099264E+02  0.29458566368E+02  0.71884930990E+02  0.79112299321E+02  0.00000000000E+00 0.  1.
         -1    1    6    6    0  502  0.30352411265E+01 -0.54744571958E+01  0.20141140884E+02  0.21091418311E+02  0.00000000000E+00 0.  1.
<mgrwt>
<rscale>  0 0.16156492E+04</rscale>
<asrwt>0</asrwt>
<pdfrwt beam="1">  1        1 0.16925666E+00 0.16156492E+04</pdfrwt>
<pdfrwt beam="2">  1       -1 0.91256055E-01 0.16156492E+04</pdfrwt>
<totfact> 0.14231039E+01</totfact>
</mgrwt>
</event>
<event>
12    1  0.1442183E-007  0.2123405E+04  0.7818608E-02  0.8551003E-01
         -2   -1    0    0    0  501 -0.00000000000E+00  0.00000000000E+00  0.12611119224E+04  0.12611119224E+04  0.00000000000E+00 0.  1.
          2   -1    0    0  501    0  0.00000000000E+00 -0.00000000000E+00 -0.89382368784E+03  0.89382368784E+03  0.00000000000E+00 0. -1.
         23    2    1    2    0    0 -0.15589413061E+02  0.83390368515E+03  0.38645586128E+03  0.92371280283E+03  0.90878069281E+02 0.  0.
        254    2    1    2    0    0  0.15589413061E+02 -0.83390368515E+03 -0.19167626770E+02  0.12312228074E+04  0.90548540438E+03 0.  0.
        -24    2    4    4    0    0  0.51701916315E+02 -0.90409983925E+03 -0.27653587814E+03  0.95011324378E+03  0.78571474695E+02 0.  0.
         24    2    4    4    0    0 -0.36112503255E+02  0.70196154094E+02  0.25736825137E+03  0.28110956358E+03  0.80947865842E+02 0.  0.
         11    1    3    3    0    0 -0.47755681499E+02  0.66915560993E+03  0.31840418464E+03  0.74258404252E+03  0.00000000000E+00 0. -1.
        -11    1    3    3    0    0  0.32166268438E+02  0.16474807522E+03  0.68051676644E+02  0.18112876030E+03  0.00000000000E+00 0.  1.
          4    1    6    6  502    0 -0.35436481381E+02  0.84333030524E+02  0.24747851572E+03  0.26384355212E+03  0.00000000000E+00 0. -1.
          1    1    5    5  503    0  0.92333262331E+00 -0.60870285107E+03 -0.16975624756E+03  0.63193132303E+03  0.00000000000E+00 0. -1.
         -2    1    5    5    0  503  0.50778583692E+02 -0.29539698818E+03 -0.10677963058E+03  0.31818192075E+03  0.00000000000E+00 0.  1.
         -3    1    6    6    0  502 -0.67602187355E+00 -0.14136876430E+02  0.98897356460E+01  0.17266011465E+02  0.00000000000E+00 0.  1.
<mgrwt>
<rscale>  0 0.21234045E+04</rscale>
<asrwt>0</asrwt>
<pdfrwt beam="1">  1        2 0.13751134E+00 0.21234045E+04</pdfrwt>
<pdfrwt beam="2">  1       -2 0.19401722E+00 0.21234045E+04</pdfrwt>
<totfact> 0.39660645E+00</totfact>
</mgrwt>
</event>
<event>
12    1  0.1442183E-007  0.1994324E+04  0.7818608E-02  0.8609279E-01
         -1   -1    0    0    0  501 -0.00000000000E+00  0.00000000000E+00  0.47329662768E+03  0.47329662768E+03  0.00000000000E+00 0.  1.
          1   -1    0    0  501    0  0.00000000000E+00 -0.00000000000E+00 -0.21008640010E+04  0.21008640010E+04  0.00000000000E+00 0. -1.
         23    2    1    2    0    0  0.31302663832E+03  0.64857474806E+03 -0.11195320604E+04  0.13343768347E+04  0.92599258368E+02 0.  0.
        254    2    1    2    0    0 -0.31302663832E+03 -0.64857474806E+03 -0.50803531300E+03  0.12397837940E+04  0.87196851811E+03 0.  0.
        -24    2    4    4    0    0  0.18694816570E+01 -0.77735724073E+03 -0.35533310623E+03  0.85852635260E+03  0.80734794583E+02 0.  0.
         24    2    4    4    0    0 -0.31489611997E+03  0.12878249267E+03 -0.15270220678E+03  0.38125744143E+03  0.79339623768E+02 0.  0.
         11    1    3    3    0    0  0.29258031412E+03  0.58961636138E+03 -0.10623589663E+04  0.12497428804E+04  0.00000000000E+00 0. -1.
        -11    1    3    3    0    0  0.20446324194E+02  0.58958386674E+02 -0.57173094008E+02  0.84633954243E+02  0.00000000000E+00 0.  1.
          4    1    6    6  502    0 -0.14257284120E+03  0.16941350801E+02 -0.70994806334E+02  0.16016955685E+03  0.00000000000E+00 0. -1.
          3    1    5    5  503    0  0.30541391783E+02 -0.18360841744E+03 -0.10318038304E+03  0.21281686731E+03  0.00000000000E+00 0. -1.
         -4    1    5    5    0  503 -0.28671910126E+02 -0.59374882329E+03 -0.25215272318E+03  0.64570948529E+03  0.00000000000E+00 0.  1.
         -3    1    6    6    0  502 -0.17232327877E+03  0.11184114187E+03 -0.81707400443E+02  0.22108788458E+03  0.00000000000E+00 0.  1.
<mgrwt>
<rscale>  0 0.19943238E+04</rscale>
<asrwt>0</asrwt>
<pdfrwt beam="1">  1        1 0.32320984E+00 0.19943238E+04</pdfrwt>
<pdfrwt beam="2">  1       -1 0.72814868E-01 0.19943238E+04</pdfrwt>
<totfact> 0.44918139E+00</totfact>
</mgrwt>
</event>
<event>
12    1  0.1442183E-007  0.2304084E+04  0.7818608E-02  0.8476313E-01
          1   -1    0    0  501    0  0.00000000000E+00  0.00000000000E+00  0.17341075430E+04  0.17341075430E+04  0.00000000000E+00 0. -1.
         -1   -1    0    0    0  501 -0.00000000000E+00 -0.00000000000E+00 -0.76535102509E+03  0.76535102509E+03  0.00000000000E+00 0.  1.
         23    2    1    2    0    0 -0.78864021762E+02  0.68117169264E+03 -0.34415695787E+03  0.76957897634E+03  0.59944811340E+02 0.  0.
        254    2    1    2    0    0  0.78864021762E+02 -0.68117169264E+03  0.13129134757E+04  0.17298795917E+04  0.89360349050E+03 0.  0.
        -24    2    4    4    0    0  0.42335193793E+03 -0.63536405974E+03  0.85737934053E+03  0.11509244327E+04  0.81322594769E+02 0.  0.
         24    2    4    4    0    0 -0.34448791617E+03 -0.45807632892E+02  0.45553413521E+03  0.57895515902E+03  0.83111155625E+02 0.  0.
         11    1    3    3    0    0 -0.33906497216E+02  0.47826045024E+03 -0.22041401099E+03  0.52769787290E+03  0.00000000000E+00 0.  1.
        -11    1    3    3    0    0 -0.44957524546E+02  0.20291124239E+03 -0.12374294688E+03  0.24188110345E+03  0.00000000000E+00 0. -1.
          2    1    6    6  502    0 -0.15398184245E+03 -0.15962356776E+02  0.13763187428E+03  0.20714182932E+03  0.00000000000E+00 0. -1.
          1    1    5    5  503    0  0.16207266492E+03 -0.27784163885E+03  0.41420183332E+03  0.52442986539E+03  0.00000000000E+00 0. -1.
         -2    1    5    5    0  503  0.26127927301E+03 -0.35752242090E+03  0.44317750722E+03  0.62649456730E+03  0.00000000000E+00 0.  1.
         -1    1    6    6    0  502 -0.19050607372E+03 -0.29845276116E+02  0.31790226093E+03  0.37181332969E+03  0.00000000000E+00 0.  1.
<mgrwt>
<rscale>  0 0.23040842E+04</rscale>
<asrwt>0</asrwt>
<pdfrwt beam="1">  1        1 0.26678578E+00 0.23040842E+04</pdfrwt>
<pdfrwt beam="2">  1       -1 0.11774631E+00 0.23040842E+04</pdfrwt>
<totfact> 0.26464260E+00</totfact>
</mgrwt>
</event>
<event>
12    1  0.1442183E-007  0.1355985E+04  0.7818608E-02  0.8986310E-01
         -1   -1    0    0    0  501 -0.00000000000E+00  0.00000000000E+00  0.32954757896E+03  0.32954757896E+03  0.00000000000E+00 0.  1.
          1   -1    0    0  501    0  0.00000000000E+00 -0.00000000000E+00 -0.13948637240E+04  0.13948637240E+04  0.00000000000E+00 0. -1.
         23    2    1    2    0    0 -0.10173842700E+03 -0.32540287249E+03 -0.45748701228E+03  0.57787133433E+03  0.91668837022E+02 0.  0.
        254    2    1    2    0    0  0.10173842700E+03  0.32540287249E+03 -0.60782913271E+03  0.11465399686E+04  0.91041743615E+03 0.  0.
        -24    2    4    4    0    0  0.15737525032E+03  0.42251266371E+03 -0.79300596948E+03  0.91570537229E+03  0.79836963865E+02 0.  0.
         24    2    4    4    0    0 -0.55636823319E+02 -0.97109791211E+02  0.18517683677E+03  0.23083459630E+03  0.80426253894E+02 0.  0.
         11    1    3    3    0    0 -0.11356651350E+03 -0.30359268483E+03 -0.39716434687E+03  0.51264548149E+03  0.00000000000E+00 0. -1.
        -11    1    3    3    0    0  0.11828086504E+02 -0.21810187669E+02 -0.60322665413E+02  0.65225852843E+02  0.00000000000E+00 0.  1.
          4    1    6    6  502    0  0.16837380288E+02 -0.43919459732E+02  0.76386064583E+02  0.89706450050E+02  0.00000000000E+00 0. -1.
          3    1    5    5  503    0  0.41190571321E+02  0.21070254872E+03 -0.41159272480E+03  0.46422063538E+03  0.00000000000E+00 0. -1.
         -4    1    5    5    0  503  0.11618467899E+03  0.21181011498E+03 -0.38141324468E+03  0.45148473691E+03  0.00000000000E+00 0.  1.
         -3    1    6    6    0  502 -0.72474203607E+02 -0.53190331479E+02  0.10879077219E+03  0.14112814625E+03  0.00000000000E+00 0.  1.
<mgrwt>
<rscale>  0 0.13559852E+04</rscale>
<asrwt>0</asrwt>
<pdfrwt beam="1">  1        1 0.21459441E+00 0.13559852E+04</pdfrwt>
<pdfrwt beam="2">  1       -1 0.50699629E-01 0.13559852E+04</pdfrwt>
<totfact> 0.29622622E+01</totfact>
</mgrwt>
</event>
<event>
12    1  0.1442183E-007  0.1063362E+04  0.7818608E-02  0.9241656E-01
         -2   -1    0    0    0  501 -0.00000000000E+00  0.00000000000E+00  0.13568619315E+04  0.13568619315E+04  0.00000000000E+00 0.  1.
          2   -1    0    0  501    0  0.00000000000E+00 -0.00000000000E+00 -0.20833717637E+03  0.20833717637E+03  0.00000000000E+00 0. -1.
         23    2    1    2    0    0 -0.56868239603E+02 -0.86483855907E+02  0.46034908958E+02  0.14466738049E+03  0.89977686833E+02 0.  0.
        254    2    1    2    0    0  0.56868239603E+02  0.86483855907E+02  0.11024898462E+04  0.14205317274E+04  0.88978259906E+03 0.  0.
        -24    2    4    4    0    0  0.10636151135E+03  0.47475588191E+03  0.65185414876E+03  0.81821461296E+03  0.88630712046E+02 0.  0.
         24    2    4    4    0    0 -0.49493271745E+02 -0.38827202600E+03  0.45063569743E+03  0.60231711443E+03  0.80676046130E+02 0.  0.
         13    1    3    3    0    0 -0.19820578216E+02 -0.69560112205E+02 -0.12454774381E+02  0.73393364385E+02  0.00000000000E+00 0. -1.
        -13    1    3    3    0    0 -0.37047661387E+02 -0.16923743702E+02  0.58489683339E+02  0.71274016108E+02  0.00000000000E+00 0.  1.
          2    1    6    6  502    0 -0.70637927121E+02 -0.25565625093E+03  0.29229038026E+03  0.39469418767E+03  0.00000000000E+00 0. -1.
          1    1    5    5  503    0  0.30590560871E+02  0.32731306179E+03  0.43672889053E+03  0.54662761242E+03  0.00000000000E+00 0. -1.
         -2    1    5    5    0  503  0.75770950476E+02  0.14744282012E+03  0.21512525822E+03  0.27158700055E+03  0.00000000000E+00 0.  1.
         -1    1    6    6    0  502  0.21144655377E+02 -0.13261577507E+03  0.15834531717E+03  0.20762292676E+03  0.00000000000E+00 0.  1.
<mgrwt>
<rscale>  0 0.10633622E+04</rscale>
<asrwt>0</asrwt>
<pdfrwt beam="1">  1        2 0.32051874E-01 0.10633622E+04</pdfrwt>
<pdfrwt beam="2">  1       -2 0.20874798E+00 0.10633622E+04</pdfrwt>
<totfact> 0.19194653E+01</totfact>
</mgrwt>
</event>
<event>
12    1  0.1442183E-007  0.2345744E+04  0.7818608E-02  0.8460100E-01
          1   -1    0    0  501    0  0.00000000000E+00  0.00000000000E+00  0.10235066281E+04  0.10235066281E+04  0.00000000000E+00 0. -1.
         -1   -1    0    0    0  501 -0.00000000000E+00 -0.00000000000E+00 -0.13440353874E+04  0.13440353874E+04  0.00000000000E+00 0.  1.
         23    2    1    2    0    0 -0.38581215988E+03 -0.10535295611E+03 -0.10599504837E+04  0.11365397299E+04  0.90979456725E+02 0.  0.
        254    2    1    2    0    0  0.38581215988E+03  0.10535295611E+03  0.73942172446E+03  0.12310022857E+04  0.89926184874E+03 0.  0.
        -24    2    4    4    0    0 -0.29306379070E+02 -0.33814397174E+03  0.14578007945E+03  0.37780745185E+03  0.79287007965E+02 0.  0.
         24    2    4    4    0    0  0.41511853895E+03  0.44349692785E+03  0.59364164502E+03  0.85319483380E+03  0.80734721981E+02 0.  0.
         13    1    3    3    0    0  0.34673526243E+01  0.18202837111E+01 -0.30330138920E+02  0.30581911221E+02  0.00000000000E+00 0. -1.
        -13    1    3    3    0    0 -0.38927951250E+03 -0.10717323982E+03 -0.10296203448E+04  0.11059578186E+04  0.00000000000E+00 0.  1.
          4    1    6    6  502    0  0.40844422193E+03  0.44639516868E+03  0.58246037527E+03  0.83985440274E+03  0.00000000000E+00 0. -1.
          3    1    5    5  503    0 -0.18476111384E+02 -0.32272915952E+03  0.15299351428E+03  0.35763457957E+03  0.00000000000E+00 0. -1.
         -4    1    5    5    0  503 -0.10830267686E+02 -0.15414812226E+02 -0.72134348282E+01  0.20172872282E+02  0.00000000000E+00 0.  1.
         -3    1    6    6    0  502  0.66743170181E+01 -0.28982408312E+01  0.11181269749E+02  0.13340431057E+02  0.00000000000E+00 0.  1.
<mgrwt>
<rscale>  0 0.23457443E+04</rscale>
<asrwt>0</asrwt>
<pdfrwt beam="1">  1        1 0.15746256E+00 0.23457443E+04</pdfrwt>
<pdfrwt beam="2">  1       -1 0.20677468E+00 0.23457443E+04</pdfrwt>
<totfact> 0.17660183E+00</totfact>
</mgrwt>
</event>
<event>
12    1  0.1442183E-007  0.1962195E+04  0.7818608E-02  0.8624503E-01
         -1   -1    0    0    0  501 -0.00000000000E+00  0.00000000000E+00  0.13174162708E+04  0.13174162708E+04  0.00000000000E+00 0.  1.
          1   -1    0    0  501    0  0.00000000000E+00 -0.00000000000E+00 -0.73063609064E+03  0.73063609064E+03  0.00000000000E+00 0. -1.
         23    2    1    2    0    0  0.47659449313E+03  0.52790340928E+03 -0.86387416347E+02  0.72205325697E+03  0.89854325363E+02 0.  0.
        254    2    1    2    0    0 -0.47659449313E+03 -0.52790340928E+03  0.67316759648E+03  0.13259991044E+04  0.89403282469E+03 0.  0.
        -24    2    4    4    0    0 -0.19894834340E+03 -0.15592868529E+02 -0.18640458253E+03  0.28454502043E+03  0.79972616383E+02 0.  0.
         24    2    4    4    0    0 -0.27764614974E+03 -0.51231054075E+03  0.85957217902E+03  0.10414540840E+04  0.78821339442E+02 0.  0.
         13    1    3    3    0    0  0.36135657027E+02  0.78190242444E+02 -0.24412176859E+02  0.89529068471E+02  0.00000000000E+00 0. -1.
        -13    1    3    3    0    0  0.44045883611E+03  0.44971316683E+03 -0.61975239488E+02  0.63252418850E+03  0.00000000000E+00 0.  1.
          4    1    6    6  502    0 -0.63256262965E+02 -0.15320427054E+03  0.19153429106E+03  0.25329486368E+03  0.00000000000E+00 0. -1.
          3    1    5    5  503    0 -0.14744766113E+02 -0.21271338130E+02 -0.46305269728E+02  0.53047676274E+02  0.00000000000E+00 0. -1.
         -4    1    5    5    0  503 -0.18420357728E+03  0.56784696008E+01 -0.14009931281E+03  0.23149734415E+03  0.00000000000E+00 0.  1.
         -3    1    6    6    0  502 -0.21438988677E+03 -0.35910627021E+03  0.66803788796E+03  0.78815922034E+03  0.00000000000E+00 0.  1.
<mgrwt>
<rscale>  0 0.19621946E+04</rscale>
<asrwt>0</asrwt>
<pdfrwt beam="1">  1        1 0.11240555E+00 0.19621946E+04</pdfrwt>
<pdfrwt beam="2">  1       -1 0.20267943E+00 0.19621946E+04</pdfrwt>
<totfact> 0.34239901E+00</totfact>
</mgrwt>
</event>
<event>
12    1  0.1442183E-007  0.2278525E+04  0.7818608E-02  0.8486437E-01
         -1   -1    0    0    0  501 -0.00000000000E+00  0.00000000000E+00  0.15331916102E+04  0.15331916102E+04  0.00000000000E+00 0.  1.
          1   -1    0    0  501    0  0.00000000000E+00 -0.00000000000E+00 -0.84654689701E+03  0.84654689701E+03  0.00000000000E+00 0. -1.
         23    2    1    2    0    0  0.98019450917E+02 -0.72896307548E+03  0.91429925852E+03  0.11768798028E+04  0.90044200020E+02 0.  0.
        254    2    1    2    0    0 -0.98019450917E+02  0.72896307548E+03 -0.22765454529E+03  0.12028587044E+04  0.92414689995E+03 0.  0.
        -24    2    4    4    0    0 -0.21077464382E+03  0.34498176663E+03 -0.54654035012E+03  0.68451584144E+03  0.80107509536E+02 0.  0.
         24    2    4    4    0    0  0.11275519290E+03  0.38398130885E+03  0.31888580483E+03  0.51834286301E+03  0.82678824592E+02 0.  0.
         13    1    3    3    0    0  0.61868599730E+02 -0.66220458027E+03  0.82228882740E+03  0.10575923342E+04  0.00000000000E+00 0.  1.
        -13    1    3    3    0    0  0.36150851186E+02 -0.66758495216E+02  0.92010431126E+02  0.11928746858E+03  0.00000000000E+00 0. -1.
          4    1    6    6  502    0  0.65524400242E+02  0.26242296844E+03  0.26026203642E+03  0.37536061193E+03  0.00000000000E+00 0. -1.
          3    1    5    5  503    0 -0.20710841072E+03  0.34841099629E+03 -0.54512946752E+03  0.67930129727E+03  0.00000000000E+00 0. -1.
         -4    1    5    5    0  503 -0.36662330931E+01 -0.34292296530E+01 -0.14108826055E+01  0.52145441634E+01  0.00000000000E+00 0.  1.
         -3    1    6    6    0  502  0.47230792658E+02  0.12155834041E+03  0.58623768410E+02  0.14298225107E+03  0.00000000000E+00 0.  1.
<mgrwt>
<rscale>  0 0.22785246E+04</rscale>
<asrwt>0</asrwt>
<pdfrwt beam="1">  1        1 0.13023798E+00 0.22785246E+04</pdfrwt>
<pdfrwt beam="2">  1       -1 0.23587563E+00 0.22785246E+04</pdfrwt>
<totfact> 0.15757582E+00</totfact>
</mgrwt>
</event>
<event>
12    1  0.1442183E-007  0.1852853E+04  0.7818608E-02  0.8678687E-01
         -2   -1    0    0    0  501 -0.00000000000E+00  0.00000000000E+00  0.68227263140E+03  0.68227263140E+03  0.00000000000E+00 0. -1.
          2   -1    0    0  501    0  0.00000000000E+00 -0.00000000000E+00 -0.12579517809E+04  0.12579517809E+04  0.00000000000E+00 0.  1.
         23    2    1    2    0    0 -0.68852689631E+03 -0.13322868992E+03 -0.11959179686E+03  0.71765317889E+03  0.94364805631E+02 0.  0.
        254    2    1    2    0    0  0.68852689631E+03  0.13322868992E+03 -0.45608735268E+03  0.12225712334E+04  0.89154112457E+03 0.  0.
        -24    2    4    4    0    0  0.42692522011E+03  0.39019491189E+02  0.21907196313E+03  0.48799514400E+03  0.79743785218E+02 0.  0.
         24    2    4    4    0    0  0.26160167620E+03  0.94209198735E+02 -0.67515931581E+03  0.73457608944E+03  0.80318860358E+02 0.  0.
         11    1    3    3    0    0 -0.13141870308E+03 -0.63815631532E+02 -0.19602714516E+02  0.14740277054E+03  0.00000000000E+00 0. -1.
        -11    1    3    3    0    0 -0.55710819323E+03 -0.69413058392E+02 -0.99989082340E+02  0.57025040836E+03  0.00000000000E+00 0.  1.
          2    1    6    6  502    0  0.23218279120E+03  0.62933390591E+02 -0.50939002506E+03  0.56333618542E+03  0.00000000000E+00 0. -1.
          3    1    5    5  503    0  0.24445128580E+03 -0.34360430804E+01  0.15737740908E+03  0.29075055702E+03  0.00000000000E+00 0. -1.
         -4    1    5    5    0  503  0.18247393430E+03  0.42455534269E+02  0.61694554054E+02  0.19724458697E+03  0.00000000000E+00 0.  1.
         -3    1    6    6    0  502  0.29418885007E+02  0.31275808144E+02 -0.16576929076E+03  0.17123990402E+03  0.00000000000E+00 0.  1.
<mgrwt>
<rscale>  0 0.18528530E+04</rscale>
<asrwt>0</asrwt>
<pdfrwt beam="1">  1        2 0.19353104E+00 0.18528530E+04</pdfrwt>
<pdfrwt beam="2">  1       -2 0.10496502E+00 0.18528530E+04</pdfrwt>
<totfact> 0.12103472E+01</totfact>
</mgrwt>
</event>
<event>
12    1  0.1442183E-007  0.1357295E+04  0.7818608E-02  0.8985324E-01
          2   -1    0    0  501    0  0.00000000000E+00  0.00000000000E+00  0.17573582079E+04  0.17573582079E+04  0.00000000000E+00 0. -1.
         -2   -1    0    0    0  501 -0.00000000000E+00 -0.00000000000E+00 -0.26207659184E+03  0.26207659184E+03  0.00000000000E+00 0.  1.
         23    2    1    2    0    0  0.13279613550E+03  0.34962732143E+03  0.46177407389E+03  0.60116721136E+03  0.91063951184E+02 0.  0.
        254    2    1    2    0    0 -0.13279613550E+03 -0.34962732143E+03  0.10335075422E+04  0.14182675884E+04  0.89636545842E+03 0.  0.
        -24    2    4    4    0    0  0.31372462617E+03 -0.11158012269E+03  0.10567951353E+03  0.35842022726E+03  0.80147581901E+02 0.  0.
         24    2    4    4    0    0 -0.44652076166E+03 -0.23804719874E+03  0.92782802865E+03  0.10598473611E+04  0.79776680360E+02 0.  0.
         11    1    3    3    0    0 -0.50250026729E+00 -0.38760697041E+01 -0.72478680295E+00  0.39751400955E+01  0.00000000000E+00 0.  1.
        -11    1    3    3    0    0  0.13329863576E+03  0.35350339114E+03  0.46249886070E+03  0.59719207127E+03  0.00000000000E+00 0. -1.
          4    1    6    6  502    0 -0.35353794575E+02 -0.35466182224E+02  0.13593174433E+03  0.14486262454E+03  0.00000000000E+00 0. -1.
          3    1    5    5  503    0  0.60885934533E+02  0.57310546378E+01  0.24951500420E+01  0.61205945667E+02  0.00000000000E+00 0. -1.
         -4    1    5    5    0  503  0.25283869163E+03 -0.11731117733E+03  0.10318436349E+03  0.29721428159E+03  0.00000000000E+00 0.  1.
         -3    1    6    6    0  502 -0.41116696709E+03 -0.20258101652E+03  0.79189628432E+03  0.91498473659E+03  0.00000000000E+00 0.  1.
<mgrwt>
<rscale>  0 0.13572950E+04</rscale>
<asrwt>0</asrwt>
<pdfrwt beam="1">  1        2 0.27036279E+00 0.13572950E+04</pdfrwt>
<pdfrwt beam="2">  1       -2 0.40319477E-01 0.13572950E+04</pdfrwt>
<totfact> 0.51797928E+01</totfact>
</mgrwt>
</event>
<event>
12    1  0.1442183E-007  0.2130635E+04  0.7818608E-02  0.8547867E-01
          3   -1    0    0  501    0  0.00000000000E+00  0.00000000000E+00  0.65977588406E+03  0.65977588406E+03  0.00000000000E+00 0. -1.
         -3   -1    0    0    0  501 -0.00000000000E+00 -0.00000000000E+00 -0.17201319353E+04  0.17201319353E+04  0.00000000000E+00 0.  1.
         23    2    1    2    0    0  0.34227061721E+03  0.65005992969E+03 -0.94380496553E+03  0.11995462683E+04  0.91740663090E+02 0.  0.
        254    2    1    2    0    0 -0.34227061721E+03 -0.65005992969E+03 -0.11655108566E+03  0.11803615510E+04  0.91648357756E+03 0.  0.
        -24    2    4    4    0    0  0.17659803373E+03 -0.34580115720E+03  0.25386491960E+03  0.46969558131E+03  0.73493100768E+02 0.  0.
         24    2    4    4    0    0 -0.51886865094E+03 -0.30425877249E+03 -0.37041600526E+03  0.71066596970E+03  0.77717603975E+02 0.  0.
         13    1    3    3    0    0  0.15070434516E+03  0.35072265860E+03 -0.43252862847E+03  0.57688750840E+03  0.00000000000E+00 0.  1.
        -13    1    3    3    0    0  0.19156627204E+03  0.29933727109E+03 -0.51127633706E+03  0.62265875990E+03  0.00000000000E+00 0. -1.
          4    1    6    6  502    0 -0.38754764192E+03 -0.24456631645E+03 -0.31524576387E+03  0.55622454956E+03  0.00000000000E+00 0. -1.
          3    1    5    5  503    0  0.15288387323E+03 -0.33495677522E+03  0.24452288537E+03  0.44199656269E+03  0.00000000000E+00 0. -1.
         -4    1    5    5    0  503  0.23714160505E+02 -0.10844381974E+02  0.93420342304E+01  0.27699018618E+02  0.00000000000E+00 0.  1.
         -3    1    6    6    0  502 -0.13132100902E+03 -0.59692456044E+02 -0.55170241392E+02  0.15444142014E+03  0.00000000000E+00 0.  1.
<mgrwt>
<rscale>  0 0.21306352E+04</rscale>
<asrwt>0</asrwt>
<pdfrwt beam="1">  1        3 0.10150398E+00 0.21306352E+04</pdfrwt>
<pdfrwt beam="2">  1       -3 0.26463568E+00 0.21306352E+04</pdfrwt>
<totfact> 0.12213426E-01</totfact>
</mgrwt>
</event>
<event>
12    1  0.1442183E-007  0.1357087E+04  0.7818608E-02  0.8985481E-01
          2   -1    0    0  501    0  0.00000000000E+00  0.00000000000E+00  0.52808225791E+03  0.52808225791E+03  0.00000000000E+00 0. -1.
         -2   -1    0    0    0  501 -0.00000000000E+00 -0.00000000000E+00 -0.87187397140E+03  0.87187397140E+03  0.00000000000E+00 0.  1.
         23    2    1    2    0    0 -0.22240315397E+02  0.37266593129E+03 -0.15706466516E+02  0.38443489130E+03  0.90382324536E+02 0.  0.
        254    2    1    2    0    0  0.22240315397E+02 -0.37266593129E+03 -0.32808524697E+03  0.10155213380E+04  0.88558970787E+03 0.  0.
        -24    2    4    4    0    0  0.29098684993E+03  0.16518783728E+02  0.15064465161E+03  0.33770059138E+03  0.80010382560E+02 0.  0.
         24    2    4    4    0    0 -0.26874653453E+03 -0.38918471501E+03 -0.47872989858E+03  0.67782074662E+03  0.81050641754E+02 0.  0.
         13    1    3    3    0    0  0.24100903274E+02  0.20318120322E+03 -0.35340789815E+02  0.20763532047E+03  0.00000000000E+00 0.  1.
        -13    1    3    3    0    0 -0.46341218671E+02  0.16948472806E+03  0.19634323299E+02  0.17679957083E+03  0.00000000000E+00 0. -1.
          4    1    6    6  502    0 -0.10709932177E+02 -0.62328952393E+02 -0.69459507438E+02  0.93937341495E+02  0.00000000000E+00 0. -1.
          1    1    5    5  503    0 -0.48471714104E+00  0.31670183398E+01 -0.58016336450E+01  0.66275115105E+01  0.00000000000E+00 0. -1.
         -2    1    5    5    0  503  0.29147156707E+03  0.13351765388E+02  0.15644628525E+03  0.33107307987E+03  0.00000000000E+00 0.  1.
         -3    1    6    6    0  502 -0.25803660235E+03 -0.32685576262E+03 -0.40927039114E+03  0.58388340512E+03  0.00000000000E+00 0.  1.
<mgrwt>
<rscale>  0 0.13570868E+04</rscale>
<asrwt>0</asrwt>
<pdfrwt beam="1">  1        2 0.81243425E-01 0.13570868E+04</pdfrwt>
<pdfrwt beam="2">  1       -2 0.13413446E+00 0.13570868E+04</pdfrwt>
<totfact> 0.22603405E+01</totfact>
</mgrwt>
</event>
<event>
12    1  0.1442183E-007  0.1530883E+04  0.7818608E-02  0.8864172E-01
          2   -1    0    0  501    0  0.00000000000E+00  0.00000000000E+00  0.19934801017E+04  0.19934801017E+04  0.00000000000E+00 0. -1.
         -2   -1    0    0    0  501 -0.00000000000E+00 -0.00000000000E+00 -0.29390841839E+03  0.29390841839E+03  0.00000000000E+00 0.  1.
         23    2    1    2    0    0  0.22786193117E+03  0.10634019724E+03 -0.78264507992E+02  0.27870075400E+03  0.91211182670E+02 0.  0.
        254    2    1    2    0    0 -0.22786193117E+03 -0.10634019724E+03  0.17778361913E+04  0.20086877661E+04  0.90049748543E+03 0.  0.
        -24    2    4    4    0    0 -0.46925881298E+03 -0.17390391518E+03  0.52966723445E+03  0.73301107919E+03  0.79444683157E+02 0.  0.
         24    2    4    4    0    0  0.24139688181E+03  0.67563717936E+02  0.12481689568E+04  0.12756766869E+04  0.81166212872E+02 0.  0.
         11    1    3    3    0    0  0.15174847948E+03  0.87665664482E+02 -0.11296089812E+02  0.17561455349E+03  0.00000000000E+00 0. -1.
        -11    1    3    3    0    0  0.76113451691E+02  0.18674532762E+02 -0.66968418179E+02  0.10308620051E+03  0.00000000000E+00 0.  1.
          4    1    6    6  502    0  0.16162350458E+03  0.27975184868E+02  0.62451689229E+03  0.64569816242E+03  0.00000000000E+00 0. -1.
          1    1    5    5  503    0 -0.47172514946E+01 -0.13902876377E+02  0.22634486538E+02  0.26978925369E+02  0.00000000000E+00 0. -1.
         -2    1    5    5    0  503 -0.46454156149E+03 -0.16000103880E+03  0.50703274791E+03  0.70603215382E+03  0.00000000000E+00 0.  1.
         -3    1    6    6    0  502  0.79773377233E+02  0.39588533067E+02  0.62365206454E+03  0.62997852446E+03  0.00000000000E+00 0.  1.
<mgrwt>
<rscale>  0 0.15308829E+04</rscale>
<asrwt>0</asrwt>
<pdfrwt beam="1">  1        2 0.30668924E+00 0.15308829E+04</pdfrwt>
<pdfrwt beam="2">  1       -2 0.45216681E-01 0.15308829E+04</pdfrwt>
<totfact> 0.30132369E+01</totfact>
</mgrwt>
</event>
<event>
12    1  0.1442183E-007  0.2014582E+04  0.7818608E-02  0.8599833E-01
         -2   -1    0    0    0  501 -0.00000000000E+00  0.00000000000E+00  0.10087755156E+04  0.10087755156E+04  0.00000000000E+00 0.  1.
          2   -1    0    0  501    0  0.00000000000E+00 -0.00000000000E+00 -0.10058085235E+04  0.10058085235E+04  0.00000000000E+00 0. -1.
         23    2    1    2    0    0 -0.83529482860E+02 -0.46991233398E+03  0.64732479157E+03  0.80943225008E+03  0.91413377280E+02 0.  0.
        254    2    1    2    0    0  0.83529482860E+02  0.46991233398E+03 -0.64435779949E+03  0.12051517891E+04  0.89966609633E+03 0.  0.
        -24    2    4    4    0    0 -0.23789893133E+03  0.60035531659E+03 -0.32365618409E+03  0.72621050672E+03  0.74873005126E+02 0.  0.
         24    2    4    4    0    0  0.32142841419E+03 -0.13044298260E+03 -0.32070161540E+03  0.47894128238E+03  0.78763117533E+02 0.  0.
         13    1    3    3    0    0 -0.20994071097E+02 -0.16447199049E+02  0.52246306433E+02  0.58659508297E+02  0.00000000000E+00 0. -1.
        -13    1    3    3    0    0 -0.62535411763E+02 -0.45346513494E+03  0.59507848513E+03  0.75077274178E+03  0.00000000000E+00 0.  1.
          4    1    6    6  502    0  0.31728190264E+03 -0.13241031283E+03 -0.29555595562E+03  0.45338021526E+03  0.00000000000E+00 0. -1.
          3    1    5    5  503    0 -0.20901596099E+03  0.49908452432E+03 -0.24096231747E+03  0.59231399849E+03  0.00000000000E+00 0. -1.
         -4    1    5    5    0  503 -0.28882970345E+02  0.10127079226E+03 -0.82693866613E+02  0.13389650823E+03  0.00000000000E+00 0.  1.
         -3    1    6    6    0  502  0.41465115530E+01  0.19673302311E+01 -0.25145659782E+02  0.25561067117E+02  0.00000000000E+00 0.  1.
<mgrwt>
<rscale>  0 0.20145819E+04</rscale>
<asrwt>0</asrwt>
<pdfrwt beam="1">  1        2 0.15473977E+00 0.20145819E+04</pdfrwt>
<pdfrwt beam="2">  1       -2 0.15519623E+00 0.20145819E+04</pdfrwt>
<totfact> 0.63394071E+00</totfact>
</mgrwt>
</event>
<event>
12    1  0.1442183E-007  0.2236205E+04  0.7818608E-02  0.8503508E-01
          2   -1    0    0  501    0  0.00000000000E+00  0.00000000000E+00  0.20252834109E+04  0.20252834109E+04  0.00000000000E+00 0.  1.
         -2   -1    0    0    0  501 -0.00000000000E+00 -0.00000000000E+00 -0.61727303831E+03  0.61727303831E+03  0.00000000000E+00 0. -1.
         23    2    1    2    0    0  0.81957190869E+03 -0.45867158207E+03  0.56299441896E+03  0.10987347622E+04  0.90430239241E+02 0.  0.
        254    2    1    2    0    0 -0.81957190869E+03  0.45867158207E+03  0.84501595365E+03  0.15438216870E+04  0.88727431254E+03 0.  0.
        -24    2    4    4    0    0 -0.97192759053E+03  0.22346483520E+03  0.67344703058E+03  0.12059032228E+04  0.78050662015E+02 0.  0.
         24    2    4    4    0    0  0.15235568184E+03  0.23520674688E+03  0.17156892307E+03  0.33791846428E+03  0.78857628490E+02 0.  0.
         13    1    3    3    0    0  0.36323780437E+03 -0.15456261702E+03  0.21997097930E+03  0.45190545122E+03  0.00000000000E+00 0. -1.
        -13    1    3    3    0    0  0.45633410432E+03 -0.30410896506E+03  0.34302343966E+03  0.64682931099E+03  0.00000000000E+00 0.  1.
          2    1    6    6  502    0  0.82200525991E+02  0.88286276289E+02  0.11183790879E+03  0.16449653765E+03  0.00000000000E+00 0. -1.
          3    1    5    5  503    0 -0.70802154883E+03  0.19018890021E+03  0.46745558292E+03  0.86947170935E+03  0.00000000000E+00 0. -1.
         -4    1    5    5    0  503 -0.26390604171E+03  0.33275934990E+02  0.20599144767E+03  0.33643151340E+03  0.00000000000E+00 0.  1.
         -1    1    6    6    0  502  0.70155155847E+02  0.14692047059E+03  0.59731014273E+02  0.17342192663E+03  0.00000000000E+00 0.  1.
<mgrwt>
<rscale>  0 0.22362047E+04</rscale>
<asrwt>0</asrwt>
<pdfrwt beam="1">  1        2 0.31158206E+00 0.22362047E+04</pdfrwt>
<pdfrwt beam="2">  1       -2 0.94965084E-01 0.22362047E+04</pdfrwt>
<totfact> 0.54980436E+00</totfact>
</mgrwt>
</event>
<event>
12    1  0.1442183E-007  0.1941942E+04  0.7818608E-02  0.8634256E-01
         -2   -1    0    0    0  501 -0.00000000000E+00  0.00000000000E+00  0.17974202755E+04  0.17974202755E+04  0.00000000000E+00 0. -1.
          2   -1    0    0  501    0  0.00000000000E+00 -0.00000000000E+00 -0.52452110398E+03  0.52452110398E+03  0.00000000000E+00 0.  1.
         23    2    1    2    0    0 -0.30390173376E+03  0.13845623026E+03 -0.31655270234E+03  0.46981399971E+03  0.94832428444E+02 0.  0.
        254    2    1    2    0    0  0.30390173376E+03 -0.13845623026E+03  0.15894518738E+04  0.18521273798E+04  0.89022029864E+03 0.  0.
        -24    2    4    4    0    0 -0.24733669393E+03  0.27906847436E+02  0.96136167056E+03  0.99633850011E+03  0.80745977469E+02 0.  0.
         24    2    4    4    0    0  0.55123842769E+03 -0.16636307770E+03  0.62809020327E+03  0.85578887965E+03  0.79604178901E+02 0.  0.
         13    1    3    3    0    0 -0.13128543241E+03  0.95832531542E+02 -0.19773416857E+03  0.25596589672E+03  0.00000000000E+00 0.  1.
        -13    1    3    3    0    0 -0.17261630135E+03  0.42623698721E+02 -0.11881853377E+03  0.21384810299E+03  0.00000000000E+00 0. -1.
          4    1    6    6  502    0  0.38630358098E+02 -0.33602757917E+02  0.66452417417E+02  0.83889055824E+02  0.00000000000E+00 0. -1.
          3    1    5    5  503    0 -0.70849321024E+01  0.15135824606E+02  0.12325343544E+03  0.12438126385E+03  0.00000000000E+00 0. -1.
         -4    1    5    5    0  503 -0.24025176182E+03  0.12771022830E+02  0.83810823512E+03  0.87195723626E+03  0.00000000000E+00 0.  1.
         -3    1    6    6    0  502  0.51260806959E+03 -0.13276031978E+03  0.56163778586E+03  0.77189982382E+03  0.00000000000E+00 0.  1.
<mgrwt>
<rscale>  0 0.19419422E+04</rscale>
<asrwt>0</asrwt>
<pdfrwt beam="1">  1        2 0.80695555E-01 0.19419422E+04</pdfrwt>
<pdfrwt beam="2">  1       -2 0.27652619E+00 0.19419422E+04</pdfrwt>
<totfact> 0.24043508E+00</totfact>
</mgrwt>
</event>
<event>
12    1  0.1442183E-007  0.3467714E+04  0.7818608E-02  0.8121484E-01
          2   -1    0    0  501    0  0.00000000000E+00  0.00000000000E+00  0.14482783519E+04  0.14482783519E+04  0.00000000000E+00 0.  1.
         -2   -1    0    0    0  501 -0.00000000000E+00 -0.00000000000E+00 -0.20757474745E+04  0.20757474745E+04  0.00000000000E+00 0. -1.
         23    2    1    2    0    0 -0.93113704222E+03  0.56518710886E+03  0.91889481184E+03  0.14280189502E+04  0.91748501428E+02 0.  0.
        254    2    1    2    0    0  0.93113704222E+03 -0.56518710886E+03 -0.15463639345E+04  0.20960068762E+04  0.90307848368E+03 0.  0.
        -24    2    4    4    0    0  0.45037855472E+03  0.20399140704E+03 -0.61800725574E+03  0.79565442618E+03  0.81729193392E+02 0.  0.
         24    2    4    4    0    0  0.48075848750E+03 -0.76917851590E+03 -0.92835667875E+03  0.13003524500E+04  0.79410695862E+02 0.  0.
         11    1    3    3    0    0 -0.30052522185E+03  0.21019563642E+03  0.35718087549E+03  0.51193338664E+03  0.00000000000E+00 0.  1.
        -11    1    3    3    0    0 -0.63061182037E+03  0.35499147244E+03  0.56171393635E+03  0.91608556357E+03  0.00000000000E+00 0. -1.
          4    1    6    6  502    0  0.35356756085E+03 -0.58179842945E+03 -0.64736766508E+03  0.93945959274E+03  0.00000000000E+00 0. -1.
          1    1    5    5  503    0  0.42630163319E+03  0.18338362457E+03 -0.60211597702E+03  0.76020147725E+03  0.00000000000E+00 0. -1.
         -2    1    5    5    0  503  0.24076921527E+02  0.20607782473E+02 -0.15891278717E+02  0.35452948931E+02  0.00000000000E+00 0.  1.
         -3    1    6    6    0  502  0.12719092664E+03 -0.18738008645E+03 -0.28098901367E+03  0.36089285726E+03  0.00000000000E+00 0.  1.
<mgrwt>
<rscale>  0 0.34677140E+04</rscale>
<asrwt>0</asrwt>
<pdfrwt beam="1">  1        2 0.22281205E+00 0.34677140E+04</pdfrwt>
<pdfrwt beam="2">  1       -2 0.31934577E+00 0.34677140E+04</pdfrwt>
<totfact> 0.27035650E-01</totfact>
</mgrwt>
</event>
<event>
12    1  0.1442183E-007  0.2629871E+04  0.7818608E-02  0.8358125E-01
          1   -1    0    0  501    0  0.00000000000E+00  0.00000000000E+00  0.21055555983E+04  0.21055555983E+04  0.00000000000E+00 0. -1.
         -1   -1    0    0    0  501 -0.00000000000E+00 -0.00000000000E+00 -0.82118694506E+03  0.82118694506E+03  0.00000000000E+00 0.  1.
         23    2    1    2    0    0  0.37838873025E+03  0.10940619204E+04  0.66530098826E+03  0.13381120803E+04  0.88142030021E+02 0.  0.
        254    2    1    2    0    0 -0.37838873025E+03 -0.10940619204E+04  0.61906766494E+03  0.15886304630E+04  0.89462419896E+03 0.  0.
        -24    2    4    4    0    0  0.78581321894E+02 -0.66547721261E+03  0.67487527068E+03  0.95437265505E+03  0.79596413723E+02 0.  0.
         24    2    4    4    0    0 -0.45697005214E+03 -0.42858470783E+03 -0.55807605741E+02  0.63425780798E+03  0.81621062138E+02 0.  0.
         13    1    3    3    0    0  0.15658074640E+03  0.34386070515E+03  0.24099954242E+03  0.44815007992E+03  0.00000000000E+00 0.  1.
        -13    1    3    3    0    0  0.22180798385E+03  0.75020121530E+03  0.42430144584E+03  0.88996200036E+03  0.00000000000E+00 0. -1.
          2    1    6    6  502    0 -0.75657370283E+02 -0.85013909050E+02 -0.40399560854E+02  0.12076227444E+03  0.00000000000E+00 0. -1.
          1    1    5    5  503    0  0.33923406116E+02 -0.25814081710E+03  0.20856435693E+03  0.33359641772E+03  0.00000000000E+00 0. -1.
         -2    1    5    5    0  503  0.44657915778E+02 -0.40733639551E+03  0.46631091375E+03  0.62077623733E+03  0.00000000000E+00 0.  1.
         -1    1    6    6    0  502 -0.38131268186E+03 -0.34357079878E+03 -0.15408044887E+02  0.51349553355E+03  0.00000000000E+00 0.  1.
<mgrwt>
<rscale>  0 0.26298705E+04</rscale>
<asrwt>0</asrwt>
<pdfrwt beam="1">  1        1 0.32393163E+00 0.26298705E+04</pdfrwt>
<pdfrwt beam="2">  1       -1 0.12633645E+00 0.26298705E+04</pdfrwt>
<totfact> 0.12091868E+00</totfact>
</mgrwt>
</event>
<event>
12    1  0.1442183E-007  0.3158698E+04  0.7818608E-02  0.8199811E-01
          2   -1    0    0  501    0  0.00000000000E+00  0.00000000000E+00  0.19330912507E+04  0.19330912507E+04  0.00000000000E+00 0. -1.
         -2   -1    0    0    0  501 -0.00000000000E+00 -0.00000000000E+00 -0.12903395180E+04  0.12903395180E+04  0.00000000000E+00 0.  1.
         23    2    1    2    0    0  0.51958713977E+03  0.99697031212E+03 -0.63937106181E+03  0.12965741143E+04  0.91588646412E+02 0.  0.
        254    2    1    2    0    0 -0.51958713977E+03 -0.99697031212E+03  0.12821227944E+04  0.19268566544E+04  0.89722745589E+03 0.  0.
        -24    2    4    4    0    0 -0.66144501637E+03 -0.99677573389E+03  0.12934973931E+04  0.17636814028E+04  0.79782274766E+02 0.  0.
         24    2    4    4    0    0  0.14185787660E+03 -0.19457822733E+00 -0.11374598705E+02  0.16317525156E+03  0.79831611613E+02 0.  0.
         11    1    3    3    0    0  0.44907824413E+03  0.87079633717E+03 -0.52059689628E+03  0.11094947763E+04  0.00000000000E+00 0.  1.
        -11    1    3    3    0    0  0.70508895635E+02  0.12617397494E+03 -0.11877416553E+03  0.18707933802E+03  0.00000000000E+00 0. -1.
          4    1    6    6  502    0  0.10822232604E+03  0.10301167534E+02  0.26034122651E+02  0.11178533646E+03  0.00000000000E+00 0. -1.
          3    1    5    5  503    0 -0.40925475168E+03 -0.62023187475E+03  0.74591215440E+03  0.10528826964E+04  0.00000000000E+00 0. -1.
         -4    1    5    5    0  503 -0.25219026468E+03 -0.37654385914E+03  0.54758523872E+03  0.71079870647E+03  0.00000000000E+00 0.  1.
         -3    1    6    6    0  502  0.33635550566E+02 -0.10495745762E+02 -0.37408721356E+02  0.51389915105E+02  0.00000000000E+00 0.  1.
<mgrwt>
<rscale>  0 0.31586985E+04</rscale>
<asrwt>0</asrwt>
<pdfrwt beam="1">  1        2 0.29739866E+00 0.31586985E+04</pdfrwt>
<pdfrwt beam="2">  1       -2 0.19851377E+00 0.31586985E+04</pdfrwt>
<totfact> 0.83667315E-01</totfact>
</mgrwt>
</event>
<event>
12    1  0.1442183E-007  0.1529338E+04  0.7818608E-02  0.8865174E-01
         -1   -1    0    0    0  501 -0.00000000000E+00  0.00000000000E+00  0.39617087248E+03  0.39617087248E+03  0.00000000000E+00 0.  1.
          1   -1    0    0  501    0  0.00000000000E+00 -0.00000000000E+00 -0.14759255410E+04  0.14759255410E+04  0.00000000000E+00 0. -1.
         23    2    1    2    0    0 -0.35668850148E+03 -0.25938311213E+03 -0.82399029931E+02  0.45799249746E+03  0.91985007757E+02 0.  0.
        254    2    1    2    0    0  0.35668850148E+03  0.25938311213E+03 -0.99735563857E+03  0.14141039160E+04  0.90025847926E+03 0.  0.
        -24    2    4    4    0    0  0.60775926692E+03  0.33921404587E+03 -0.85071930851E+03  0.11021085899E+04  0.80514014653E+02 0.  0.
         24    2    4    4    0    0 -0.25107076544E+03 -0.79830933734E+02 -0.14663633006E+03  0.31199532612E+03  0.80183308632E+02 0.  0.
         11    1    3    3    0    0 -0.60187611941E+02 -0.71620564542E+01 -0.28371665055E+01  0.60678605765E+02  0.00000000000E+00 0. -1.
        -11    1    3    3    0    0 -0.29650088954E+03 -0.25222105568E+03 -0.79561863425E+02  0.39731389170E+03  0.00000000000E+00 0.  1.
          2    1    6    6  502    0 -0.22742398030E+03 -0.82679347612E+02 -0.10448541042E+03  0.26358061827E+03  0.00000000000E+00 0. -1.
          3    1    5    5  503    0  0.46042060419E+03  0.23605472547E+03 -0.58185408001E+03  0.77862901089E+03  0.00000000000E+00 0. -1.
         -4    1    5    5    0  503  0.14733866273E+03  0.10315932040E+03 -0.26886522850E+03  0.32347957898E+03  0.00000000000E+00 0.  1.
         -1    1    6    6    0  502 -0.23646785142E+02  0.28484138772E+01 -0.42150919639E+02  0.48414707843E+02  0.00000000000E+00 0.  1.
<mgrwt>
<rscale>  0 0.15293380E+04</rscale>
<asrwt>0</asrwt>
<pdfrwt beam="1">  1        1 0.22706547E+00 0.15293380E+04</pdfrwt>
<pdfrwt beam="2">  1       -1 0.60949365E-01 0.15293380E+04</pdfrwt>
<totfact> 0.17910879E+01</totfact>
</mgrwt>
</event>
<event>
12    1  0.1442183E-007  0.1687410E+04  0.7818608E-02  0.8768578E-01
         -2   -1    0    0    0  501 -0.00000000000E+00  0.00000000000E+00  0.39914229822E+03  0.39914229822E+03  0.00000000000E+00 0.  1.
          2   -1    0    0  501    0  0.00000000000E+00 -0.00000000000E+00 -0.17834187675E+04  0.17834187675E+04  0.00000000000E+00 0. -1.
         23    2    1    2    0    0  0.85391449486E+02 -0.46240482029E+03 -0.10053352317E+04  0.11135946138E+04  0.91017132158E+02 0.  0.
        254    2    1    2    0    0 -0.85391449486E+02  0.46240482029E+03 -0.37894123758E+03  0.10689664519E+04  0.88203338730E+03 0.  0.
        -24    2    4    4    0    0 -0.38507270040E+02  0.66643483935E+03 -0.47626976473E+03  0.82397425967E+03  0.80513892299E+02 0.  0.
         24    2    4    4    0    0 -0.46884179445E+02 -0.20403001907E+03  0.97328527155E+02  0.24499219224E+03  0.81987542334E+02 0.  0.
         11    1    3    3    0    0  0.93255862475E+02 -0.38056482909E+03 -0.76360278702E+03  0.85826304905E+03  0.00000000000E+00 0. -1.
        -11    1    3    3    0    0 -0.78644129898E+01 -0.81839991196E+02 -0.24173244470E+03  0.25533156478E+03  0.00000000000E+00 0.  1.
          2    1    6    6  502    0  0.49680744010E+01 -0.54154464210E+02  0.62079678690E+02  0.82530444464E+02  0.00000000000E+00 0. -1.
          3    1    5    5  503    0 -0.13761086662E+02  0.17457463960E+02 -0.94267453693E+01  0.24145270392E+02  0.00000000000E+00 0. -1.
         -4    1    5    5    0  503 -0.24746183378E+02  0.64897737539E+03 -0.46684301936E+03  0.79982898928E+03  0.00000000000E+00 0.  1.
         -1    1    6    6    0  502 -0.51852253846E+02 -0.14987555486E+03  0.35248848465E+02  0.16246174778E+03  0.00000000000E+00 0.  1.
<mgrwt>
<rscale>  0 0.16874097E+04</rscale>
<asrwt>0</asrwt>
<pdfrwt beam="1">  1        2 0.27437211E+00 0.16874097E+04</pdfrwt>
<pdfrwt beam="2">  1       -2 0.61406508E-01 0.16874097E+04</pdfrwt>
<totfact> 0.20697148E+01</totfact>
</mgrwt>
</event>
<event>
12    1  0.1442183E-007  0.1632244E+04  0.7818608E-02  0.8800981E-01
         -1   -1    0    0    0  501 -0.00000000000E+00  0.00000000000E+00  0.68289920238E+03  0.68289920238E+03  0.00000000000E+00 0.  1.
          1   -1    0    0  501    0  0.00000000000E+00 -0.00000000000E+00 -0.97533397815E+03  0.97533397815E+03  0.00000000000E+00 0. -1.
         23    2    1    2    0    0  0.19529078667E+03 -0.33105544365E+03  0.31001944846E+03  0.50213416545E+03  0.91051982721E+02 0.  0.
        254    2    1    2    0    0 -0.19529078667E+03  0.33105544365E+03 -0.60245422423E+03  0.11560990151E+04  0.90877810397E+03 0.  0.
        -24    2    4    4    0    0  0.69042760667E+02 -0.22075117778E+03 -0.46204033177E+03  0.52331982496E+03  0.82972198494E+02 0.  0.
         24    2    4    4    0    0 -0.26433354734E+03  0.55180662143E+03 -0.14041389247E+03  0.63277919013E+03  0.79565511098E+02 0.  0.
         13    1    3    3    0    0  0.19764819885E+03 -0.33512635001E+03  0.30081352981E+03  0.49179595433E+03  0.00000000000E+00 0.  1.
        -13    1    3    3    0    0 -0.23574121865E+01  0.40709063595E+01  0.92059186571E+01  0.10338211118E+02  0.00000000000E+00 0. -1.
          2    1    6    6  502    0 -0.83115575500E+02  0.21553898949E+03 -0.88035431968E+02  0.24721547719E+03  0.00000000000E+00 0. -1.
          3    1    5    5  503    0  0.17767619060E+02 -0.15803435149E+03 -0.24959281732E+03  0.29595121049E+03  0.00000000000E+00 0. -1.
         -4    1    5    5    0  503  0.51275141607E+02 -0.62716826296E+02 -0.21244751445E+03  0.22736861447E+03  0.00000000000E+00 0.  1.
         -1    1    6    6    0  502 -0.18121797184E+03  0.33626763195E+03 -0.52378460497E+02  0.38556371294E+03  0.00000000000E+00 0.  1.
<mgrwt>
<rscale>  0 0.16322436E+04</rscale>
<asrwt>0</asrwt>
<pdfrwt beam="1">  1        1 0.15005138E+00 0.16322436E+04</pdfrwt>
<pdfrwt beam="2">  1       -1 0.10506142E+00 0.16322436E+04</pdfrwt>
<totfact> 0.12876968E+01</totfact>
</mgrwt>
</event>
<event>
12    1  0.1442183E-007  0.1721459E+04  0.7818608E-02  0.8749219E-01
         -2   -1    0    0    0  501 -0.00000000000E+00  0.00000000000E+00  0.26015798522E+03  0.26015798522E+03  0.00000000000E+00 0.  1.
          2   -1    0    0  501    0  0.00000000000E+00 -0.00000000000E+00 -0.28477141079E+04  0.28477141079E+04  0.00000000000E+00 0. -1.
         23    2    1    2    0    0  0.76006410818E+02 -0.48793805268E+03 -0.29981004733E+03  0.58406155951E+03  0.85914626658E+02 0.  0.
        254    2    1    2    0    0 -0.76006410818E+02  0.48793805268E+03 -0.22877460753E+04  0.25238105336E+04  0.94444533278E+03 0.  0.
        -24    2    4    4    0    0  0.55379315379E+02  0.37921506129E+03 -0.22285442937E+03  0.45036785118E+03  0.79348430351E+02 0.  0.
         24    2    4    4    0    0 -0.13138572620E+03  0.10872299139E+03 -0.20648916460E+04  0.20734426824E+04  0.79398676677E+02 0.  0.
         11    1    3    3    0    0  0.56678552487E+02 -0.46848785752E+03 -0.29411870762E+03  0.55605678228E+03  0.00000000000E+00 0.  1.
        -11    1    3    3    0    0  0.19327858331E+02 -0.19450195162E+02 -0.56913397127E+01  0.28004777222E+02  0.00000000000E+00 0. -1.
          4    1    6    6  502    0 -0.10121211970E+03  0.32931488637E+02 -0.11348554914E+04  0.11398356735E+04  0.00000000000E+00 0. -1.
          1    1    5    5  503    0  0.71526672838E+02  0.22014559130E+03 -0.13291606219E+03  0.26692101057E+03  0.00000000000E+00 0. -1.
         -2    1    5    5    0  503 -0.16147357459E+02  0.15906946999E+03 -0.89938367183E+02  0.18344684060E+03  0.00000000000E+00 0.  1.
         -3    1    6    6    0  502 -0.30173606499E+02  0.75791502750E+02 -0.93003615455E+03  0.93360700897E+03  0.00000000000E+00 0.  1.
<mgrwt>
<rscale>  0 0.17214593E+04</rscale>
<asrwt>0</asrwt>
<pdfrwt beam="1">  1        2 0.43810984E+00 0.17214593E+04</pdfrwt>
<pdfrwt beam="2">  1       -2 0.40024308E-01 0.17214593E+04</pdfrwt>
<totfact> 0.12180373E+01</totfact>
</mgrwt>
</event>
<event>
12    1  0.1442183E-007  0.1625359E+04  0.7818608E-02  0.8805119E-01
          1   -1    0    0  501    0  0.00000000000E+00  0.00000000000E+00  0.86380198612E+03  0.86380198612E+03  0.00000000000E+00 0. -1.
         -1   -1    0    0    0  501 -0.00000000000E+00 -0.00000000000E+00 -0.76458236784E+03  0.76458236784E+03  0.00000000000E+00 0.  1.
         23    2    1    2    0    0  0.42316652774E+03 -0.33654587892E+03 -0.25047864773E+03  0.60277213747E+03  0.90893662767E+02 0.  0.
        254    2    1    2    0    0 -0.42316652774E+03  0.33654587892E+03  0.34969826600E+03  0.10256122165E+04  0.79828472524E+03 0.  0.
        -24    2    4    4    0    0 -0.63733349430E+03  0.15845065124E+03  0.16408747982E+03  0.68139070259E+03  0.77897347214E+02 0.  0.
         24    2    4    4    0    0  0.21416696656E+03  0.17809522768E+03  0.18561078618E+03  0.34422151390E+03  0.80322394156E+02 0.  0.
         11    1    3    3    0    0  0.26908908433E+03 -0.23693375462E+03 -0.12174191798E+03  0.37863918706E+03  0.00000000000E+00 0.  1.
        -11    1    3    3    0    0  0.15407744342E+03 -0.99612124293E+02 -0.12873672975E+03  0.22413295042E+03  0.00000000000E+00 0. -1.
          2    1    6    6  502    0  0.16416261323E+03  0.96458889291E+02  0.96626197472E+02  0.21351885852E+03  0.00000000000E+00 0. -1.
          3    1    5    5  503    0 -0.22863543109E+03  0.18700629339E+02  0.55246499720E+02  0.23595772845E+03  0.00000000000E+00 0. -1.
         -4    1    5    5    0  503 -0.40869806321E+03  0.13975002190E+03  0.10884098010E+03  0.44543297413E+03  0.00000000000E+00 0.  1.
         -3    1    6    6    0  502  0.50004353323E+02  0.81636338385E+02  0.88984588711E+02  0.13070265538E+03  0.00000000000E+00 0.  1.
<mgrwt>
<rscale>  0 0.16253588E+04</rscale>
<asrwt>0</asrwt>
<pdfrwt beam="1">  1        1 0.13289261E+00 0.16253588E+04</pdfrwt>
<pdfrwt beam="2">  1       -1 0.11762806E+00 0.16253588E+04</pdfrwt>
<totfact> 0.12139179E+01</totfact>
</mgrwt>
</event>
<event>
12    1  0.1442183E-007  0.2693585E+04  0.7818608E-02  0.8337089E-01
         -1   -1    0    0    0  501 -0.00000000000E+00  0.00000000000E+00  0.41207952353E+03  0.41207952353E+03  0.00000000000E+00 0.  1.
          1   -1    0    0  501    0  0.00000000000E+00 -0.00000000000E+00 -0.44017001462E+04  0.44017001462E+04  0.00000000000E+00 0. -1.
         23    2    1    2    0    0 -0.61814724008E+03  0.10009098365E+04 -0.13785358568E+04  0.18144145424E+04  0.88388415908E+02 0.  0.
        254    2    1    2    0    0  0.61814724008E+03 -0.10009098365E+04 -0.26110847659E+04  0.29993651273E+04  0.89134785650E+03 0.  0.
        -24    2    4    4    0    0  0.43895087353E+03 -0.87349551654E+03 -0.25845906746E+04  0.27644976267E+04  0.81644876133E+02 0.  0.
         24    2    4    4    0    0  0.17919636655E+03 -0.12741431993E+03 -0.26494091276E+02  0.23486750067E+03  0.78198844554E+02 0.  0.
         11    1    3    3    0    0 -0.56037630352E+03  0.85393080905E+03 -0.12099473237E+04  0.15834114924E+04  0.00000000000E+00 0. -1.
        -11    1    3    3    0    0 -0.57770936551E+02  0.14697902742E+03 -0.16858853307E+03  0.23100304997E+03  0.00000000000E+00 0.  1.
          2    1    6    6  502    0 -0.56112528206E+01  0.35458652297E+01 -0.25099516107E+01  0.70964199095E+01  0.00000000000E+00 0. -1.
          1    1    5    5  503    0  0.64427184939E+02 -0.12995544452E+03 -0.30774461872E+03  0.34021468232E+03  0.00000000000E+00 0. -1.
         -2    1    5    5    0  503  0.37452368859E+03 -0.74354007202E+03 -0.22768460559E+04  0.24242829444E+04  0.00000000000E+00 0.  1.
         -1    1    6    6    0  502  0.18480761937E+03 -0.13096018516E+03 -0.23984139665E+02  0.22777108076E+03  0.00000000000E+00 0.  1.
<mgrwt>
<rscale>  0 0.26935853E+04</rscale>
<asrwt>0</asrwt>
<pdfrwt beam="1">  1        1 0.67718463E+00 0.26935853E+04</pdfrwt>
<pdfrwt beam="2">  1       -1 0.63396851E-01 0.26935853E+04</pdfrwt>
<totfact> 0.89449538E-02</totfact>
</mgrwt>
</event>
<event>
12    1  0.1442183E-007  0.1163111E+04  0.7818608E-02  0.9145772E-01
          2   -1    0    0  501    0  0.00000000000E+00  0.00000000000E+00  0.12356145204E+04  0.12356145204E+04  0.00000000000E+00 0. -1.
         -2   -1    0    0    0  501 -0.00000000000E+00 -0.00000000000E+00 -0.27371568387E+03  0.27371568387E+03  0.00000000000E+00 0.  1.
         23    2    1    2    0    0 -0.17768534478E+03 -0.13726273651E+03  0.21629259834E+03  0.32487249446E+03  0.91359230398E+02 0.  0.
        254    2    1    2    0    0  0.17768534478E+03  0.13726273651E+03  0.74560623815E+03  0.11844577098E+04  0.89252353654E+03 0.  0.
        -24    2    4    4    0    0 -0.33373150505E+03  0.98356148311E+02  0.13042751516E+03  0.37959585164E+03  0.77659670998E+02 0.  0.
         24    2    4    4    0    0  0.51141684983E+03  0.38906588195E+02  0.61517872299E+03  0.80486185813E+03  0.79352583781E+02 0.  0.
         13    1    3    3    0    0 -0.34868621363E+02  0.17614316467E+01  0.68028613778E+02  0.76464473383E+02  0.00000000000E+00 0. -1.
        -13    1    3    3    0    0 -0.14281672342E+03 -0.13902416815E+03  0.14826398456E+03  0.24840802108E+03  0.00000000000E+00 0.  1.
          4    1    6    6  502    0  0.45417013154E+03  0.47042469993E+02  0.50772318393E+03  0.68283697459E+03  0.00000000000E+00 0. -1.
          3    1    5    5  503    0 -0.33396665894E+03  0.90363151556E+02  0.13376029630E+03  0.37093266951E+03  0.00000000000E+00 0. -1.
         -4    1    5    5    0  503  0.23515389306E+00  0.79929967552E+01 -0.33327811415E+01  0.86631821301E+01  0.00000000000E+00 0.  1.
         -3    1    6    6    0  502  0.57246718289E+02 -0.81358817978E+01  0.10745553906E+03  0.12202488354E+03  0.00000000000E+00 0.  1.
<mgrwt>
<rscale>  0 0.11631115E+04</rscale>
<asrwt>0</asrwt>
<pdfrwt beam="1">  1        2 0.19009454E+00 0.11631115E+04</pdfrwt>
<pdfrwt beam="2">  1       -2 0.42110106E-01 0.11631115E+04</pdfrwt>
<totfact> 0.95294228E+01</totfact>
</mgrwt>
</event>
<event>
12    1  0.1442183E-007  0.1967412E+04  0.7818608E-02  0.8622010E-01
          2   -1    0    0  501    0  0.00000000000E+00  0.00000000000E+00  0.17048768540E+04  0.17048768540E+04  0.00000000000E+00 0. -1.
         -2   -1    0    0    0  501 -0.00000000000E+00 -0.00000000000E+00 -0.56759396743E+03  0.56759396743E+03  0.00000000000E+00 0.  1.
         23    2    1    2    0    0  0.38453323859E+03  0.16812134338E+03  0.12002366614E+04  0.12747169457E+04  0.90579526782E+02 0.  0.
        254    2    1    2    0    0 -0.38453323859E+03 -0.16812134338E+03 -0.62953774850E+02  0.99775387569E+03  0.90300554871E+03 0.  0.
        -24    2    4    4    0    0  0.23493080311E+03  0.12160783156E+03  0.94007433207E+02  0.29184985609E+03  0.79737030656E+02 0.  0.
         24    2    4    4    0    0 -0.61946404170E+03 -0.28972917495E+03 -0.15696120806E+03  0.70590401959E+03  0.77362589632E+02 0.  0.
         13    1    3    3    0    0  0.34277003921E+03  0.12571277161E+03  0.95628584685E+03  0.10236100926E+04  0.00000000000E+00 0. -1.
        -13    1    3    3    0    0  0.41763199374E+02  0.42408571775E+02  0.24395081453E+03  0.25110685313E+03  0.00000000000E+00 0.  1.
          4    1    6    6  502    0 -0.45243375683E+03 -0.23806435313E+03 -0.14103958179E+03  0.53034244049E+03  0.00000000000E+00 0. -1.
          1    1    5    5  503    0  0.14421586884E+03  0.85011457668E+02  0.18795712136E+02  0.16845902634E+03  0.00000000000E+00 0. -1.
         -2    1    5    5    0  503  0.90714934268E+02  0.36596373893E+02  0.75211721071E+02  0.12339082976E+03  0.00000000000E+00 0.  1.
         -3    1    6    6    0  502 -0.16703028486E+03 -0.51664821818E+02 -0.15921626270E+02  0.17556157910E+03  0.00000000000E+00 0.  1.
<mgrwt>
<rscale>  0 0.19674123E+04</rscale>
<asrwt>0</asrwt>
<pdfrwt beam="1">  1        2 0.26228874E+00 0.19674123E+04</pdfrwt>
<pdfrwt beam="2">  1       -2 0.87322150E-01 0.19674123E+04</pdfrwt>
<totfact> 0.10284484E+01</totfact>
</mgrwt>
</event>
<event>
12    1  0.1442183E-007  0.1589815E+04  0.7818608E-02  0.8826830E-01
         -1   -1    0    0    0  501 -0.00000000000E+00  0.00000000000E+00  0.27551630105E+04  0.27551630105E+04  0.00000000000E+00 0.  1.
          1   -1    0    0  501    0  0.00000000000E+00 -0.00000000000E+00 -0.22934322862E+03  0.22934322862E+03  0.00000000000E+00 0. -1.
         23    2    1    2    0    0 -0.22818814240E+03  0.19210708998E+03  0.15944455284E+04  0.16245949780E+04  0.89874007028E+02 0.  0.
        254    2    1    2    0    0  0.22818814240E+03 -0.19210708998E+03  0.93137425342E+03  0.13599112611E+04  0.94494744598E+03 0.  0.
        -24    2    4    4    0    0 -0.29904863390E+03  0.14549422921E+03  0.20773021494E+03  0.39976454949E+03  0.77853687539E+02 0.  0.
         24    2    4    4    0    0  0.52723677630E+03 -0.33760131919E+03  0.72364403849E+03  0.96014671157E+03  0.79169086768E+02 0.  0.
         11    1    3    3    0    0 -0.52038938172E+02  0.20288093533E+02  0.16692888220E+03  0.17602530937E+03  0.00000000000E+00 0. -1.
        -11    1    3    3    0    0 -0.17614920423E+03  0.17181899645E+03  0.14275166462E+04  0.14485696686E+04  0.00000000000E+00 0.  1.
          4    1    6    6  502    0  0.32158412671E+03 -0.16332709106E+03  0.39007056598E+03  0.53126936263E+03  0.00000000000E+00 0. -1.
          3    1    5    5  503    0 -0.95599075003E+02  0.29297617350E+02  0.10161984343E+03  0.14256270937E+03  0.00000000000E+00 0. -1.
         -4    1    5    5    0  503 -0.20344955890E+03  0.11619661186E+03  0.10611037151E+03  0.25720184013E+03  0.00000000000E+00 0.  1.
         -3    1    6    6    0  502  0.20565264959E+03 -0.17427422813E+03  0.33357347251E+03  0.42887734894E+03  0.00000000000E+00 0.  1.
<mgrwt>
<rscale>  0 0.15898151E+04</rscale>
<asrwt>0</asrwt>
<pdfrwt beam="1">  1        1 0.35283576E-01 0.15898151E+04</pdfrwt>
<pdfrwt beam="2">  1       -1 0.42387121E+00 0.15898151E+04</pdfrwt>
<totfact> 0.58912158E-01</totfact>
</mgrwt>
</event>
<event>
12    1  0.1442183E-007  0.2898258E+04  0.7818608E-02  0.8273396E-01
         -1   -1    0    0    0  501 -0.00000000000E+00  0.00000000000E+00  0.93834805567E+03  0.93834805567E+03  0.00000000000E+00 0.  1.
          1   -1    0    0  501    0  0.00000000000E+00 -0.00000000000E+00 -0.22379490388E+04  0.22379490388E+04  0.00000000000E+00 0. -1.
         23    2    1    2    0    0  0.68545810208E+03  0.92210753180E+03 -0.12763608337E+04  0.17201793702E+04  0.98919047866E+02 0.  0.
        254    2    1    2    0    0 -0.68545810208E+03 -0.92210753180E+03 -0.23240149401E+02  0.14561177242E+04  0.89420557608E+03 0.  0.
        -24    2    4    4    0    0  0.71298242220E+02 -0.16598482462E+02  0.22219132287E+03  0.24814621864E+03  0.82756346613E+02 0.  0.
         24    2    4    4    0    0 -0.75675634431E+03 -0.90550904934E+03 -0.24543147227E+03  0.12079715056E+04  0.79572279096E+02 0.  0.
         11    1    3    3    0    0  0.39549237565E+03  0.51599231256E+03 -0.79324245412E+03  0.10256197526E+04  0.00000000000E+00 0. -1.
        -11    1    3    3    0    0  0.28996572644E+03  0.40611521925E+03 -0.48311837956E+03  0.69455961766E+03  0.00000000000E+00 0.  1.
          4    1    6    6  502    0 -0.12700403995E+03 -0.20125995176E+03 -0.45294579336E+02  0.24225439783E+03  0.00000000000E+00 0. -1.
          1    1    5    5  503    0 -0.14459521529E+02  0.12631390058E+02  0.50278899120E+02  0.53820047142E+02  0.00000000000E+00 0. -1.
         -2    1    5    5    0  503  0.85757763750E+02 -0.29229872520E+02  0.17191242375E+03  0.19432617150E+03  0.00000000000E+00 0.  1.
         -3    1    6    6    0  502 -0.62975230435E+03 -0.70424909758E+03 -0.20013689293E+03  0.96571710774E+03  0.00000000000E+00 0.  1.
<mgrwt>
<rscale>  0 0.28982582E+04</rscale>
<asrwt>0</asrwt>
<pdfrwt beam="1">  1        1 0.34429986E+00 0.28982582E+04</pdfrwt>
<pdfrwt beam="2">  1       -1 0.14436124E+00 0.28982582E+04</pdfrwt>
<totfact> 0.68098702E-01</totfact>
</mgrwt>
</event>
<event>
12    1  0.1442183E-007  0.1184978E+04  0.7818608E-02  0.9126108E-01
         -1   -1    0    0    0  501 -0.00000000000E+00  0.00000000000E+00  0.10159690247E+04  0.10159690247E+04  0.00000000000E+00 0.  1.
          1   -1    0    0  501    0  0.00000000000E+00 -0.00000000000E+00 -0.34552523749E+03  0.34552523749E+03  0.00000000000E+00 0. -1.
         23    2    1    2    0    0 -0.16826872101E+03 -0.10692518998E+03  0.31171806074E+03  0.38109120022E+03  0.91186593168E+02 0.  0.
        254    2    1    2    0    0  0.16826872101E+03  0.10692518998E+03  0.35872572642E+03  0.98040306192E+03  0.89036995587E+03 0.  0.
        -24    2    4    4    0    0 -0.25169040490E+03 -0.10069076932E+03 -0.11931534303E+03  0.30651240119E+03  0.78911406394E+02 0.  0.
         24    2    4    4    0    0  0.41995912590E+03  0.20761595930E+03  0.47804106946E+03  0.67389066073E+03  0.78328184903E+02 0.  0.
         13    1    3    3    0    0 -0.13569131502E+03 -0.67240948565E+02  0.15725160715E+03  0.21831524474E+03  0.00000000000E+00 0. -1.
        -13    1    3    3    0    0 -0.32577405987E+02 -0.39684241410E+02  0.15446645359E+03  0.16277595548E+03  0.00000000000E+00 0.  1.
          2    1    6    6  502    0  0.28185088786E+03  0.97176328470E+02  0.29783933669E+03  0.42141598484E+03  0.00000000000E+00 0. -1.
          1    1    5    5  503    0 -0.19929205907E+03 -0.88046626579E+02 -0.59209297558E+02  0.22577704528E+03  0.00000000000E+00 0. -1.
         -2    1    5    5    0  503 -0.52398345828E+02 -0.12644142741E+02 -0.60106045477E+02  0.80735355911E+02  0.00000000000E+00 0.  1.
         -1    1    6    6    0  502  0.13810823804E+03  0.11043963083E+03  0.18020173277E+03  0.25247467589E+03  0.00000000000E+00 0.  1.
<mgrwt>
<rscale>  0 0.11849775E+04</rscale>
<asrwt>0</asrwt>
<pdfrwt beam="1">  1        1 0.53157729E-01 0.11849775E+04</pdfrwt>
<pdfrwt beam="2">  1       -1 0.15630293E+00 0.11849775E+04</pdfrwt>
<totfact> 0.22507440E+01</totfact>
</mgrwt>
</event>
<event>
12    1  0.1442183E-007  0.1550782E+04  0.7818608E-02  0.8851368E-01
         -2   -1    0    0    0  501 -0.00000000000E+00  0.00000000000E+00  0.43180058250E+03  0.43180058250E+03  0.00000000000E+00 0.  1.
          2   -1    0    0  501    0  0.00000000000E+00 -0.00000000000E+00 -0.13923821270E+04  0.13923821270E+04  0.00000000000E+00 0. -1.
         23    2    1    2    0    0 -0.13555414976E+03  0.44028728108E+03 -0.49016004589E+03  0.67877715393E+03  0.90850078204E+02 0.  0.
        254    2    1    2    0    0  0.13555414976E+03 -0.44028728108E+03 -0.47042149858E+03  0.11454055556E+04  0.93724579645E+03 0.  0.
        -24    2    4    4    0    0 -0.34576996077E+03 -0.40903692453E+03 -0.33938190092E+03  0.63916842300E+03  0.80548909965E+02 0.  0.
         24    2    4    4    0    0  0.48132411052E+03 -0.31250356547E+02 -0.13103959766E+03  0.50623713255E+03  0.80344097836E+02 0.  0.
         11    1    3    3    0    0 -0.32828554397E+02  0.13072291522E+03 -0.20609588226E+03  0.24625536996E+03  0.00000000000E+00 0. -1.
        -11    1    3    3    0    0 -0.10272559536E+03  0.30956436585E+03 -0.28406416363E+03  0.43252178397E+03  0.00000000000E+00 0.  1.
          4    1    6    6  502    0  0.44105480744E+03 -0.30593144419E+02 -0.95031210940E+02  0.45221257690E+03  0.00000000000E+00 0. -1.
          3    1    5    5  503    0 -0.32802827457E+03 -0.40398786278E+03 -0.33830191141E+03  0.62069068421E+03  0.00000000000E+00 0. -1.
         -4    1    5    5    0  503 -0.17741686203E+02 -0.50490617436E+01 -0.10799895053E+01  0.18477738800E+02  0.00000000000E+00 0.  1.
         -1    1    6    6    0  502  0.40269303085E+02 -0.65721212765E+00 -0.36008386724E+02  0.54024555650E+02  0.00000000000E+00 0.  1.
<mgrwt>
<rscale>  0 0.15507823E+04</rscale>
<asrwt>0</asrwt>
<pdfrwt beam="1">  1        2 0.21421264E+00 0.15507823E+04</pdfrwt>
<pdfrwt beam="2">  1       -2 0.66430858E-01 0.15507823E+04</pdfrwt>
<totfact> 0.29303826E+01</totfact>
</mgrwt>
</event>
<event>
12    1  0.1442183E-007  0.1589832E+04  0.7818608E-02  0.8826819E-01
          2   -1    0    0  501    0  0.00000000000E+00  0.00000000000E+00  0.96435399050E+03  0.96435399050E+03  0.00000000000E+00 0.  1.
         -2   -1    0    0    0  501 -0.00000000000E+00 -0.00000000000E+00 -0.65524879064E+03  0.65524879064E+03  0.00000000000E+00 0. -1.
         23    2    1    2    0    0 -0.51417109148E+03  0.44865487005E+02  0.25650093991E+03  0.58358540039E+03  0.91620762567E+02 0.  0.
        254    2    1    2    0    0  0.51417109148E+03 -0.44865487005E+02  0.52604259951E+02  0.10360173808E+04  0.89676082755E+03 0.  0.
        -24    2    4    4    0    0  0.57271871041E+03 -0.29461623814E+03 -0.18768464341E+03  0.67548706057E+03  0.79068290745E+02 0.  0.
         24    2    4    4    0    0 -0.58547618928E+02  0.24975075113E+03  0.24028890336E+03  0.36053032019E+03  0.80250192074E+02 0.  0.
         13    1    3    3    0    0 -0.44749783322E+03  0.69679874775E+02  0.22659723083E+03  0.50641475167E+03  0.00000000000E+00 0.  1.
        -13    1    3    3    0    0 -0.66673258259E+02 -0.24814387770E+02  0.29903709080E+02  0.77170648721E+02  0.00000000000E+00 0. -1.
          2    1    6    6  502    0  0.13826630202E+01  0.12863532425E+01 -0.55726048129E+01  0.58839090826E+01  0.00000000000E+00 0. -1.
          3    1    5    5  503    0  0.10756390614E+03 -0.41164014297E+02 -0.54735885209E+01  0.11530147505E+03  0.00000000000E+00 0. -1.
         -4    1    5    5    0  503  0.46515480427E+03 -0.25345222384E+03 -0.18221105489E+03  0.56018558552E+03  0.00000000000E+00 0.  1.
         -1    1    6    6    0  502 -0.59930281948E+02  0.24846439789E+03  0.24586150817E+03  0.35464641111E+03  0.00000000000E+00 0.  1.
<mgrwt>
<rscale>  0 0.15898324E+04</rscale>
<asrwt>0</asrwt>
<pdfrwt beam="1">  1        2 0.14836215E+00 0.15898324E+04</pdfrwt>
<pdfrwt beam="2">  1       -2 0.10080751E+00 0.15898324E+04</pdfrwt>
<totfact> 0.20664343E+01</totfact>
</mgrwt>
</event>
<event>
12    1  0.1442183E-007  0.1346753E+04  0.7818608E-02  0.8993290E-01
          2   -1    0    0  501    0  0.00000000000E+00  0.00000000000E+00  0.12242345856E+04  0.12242345856E+04  0.00000000000E+00 0. -1.
         -2   -1    0    0    0  501 -0.00000000000E+00 -0.00000000000E+00 -0.37038304774E+03  0.37038304774E+03  0.00000000000E+00 0.  1.
         23    2    1    2    0    0  0.26522532734E+03  0.12657743883E+03 -0.11496954491E+02  0.30778231376E+03  0.90727341059E+02 0.  0.
        254    2    1    2    0    0 -0.26522532734E+03 -0.12657743883E+03  0.86534849233E+03  0.12868353196E+04  0.90595298123E+03 0.  0.
        -24    2    4    4    0    0 -0.37960768512E+03  0.94456789039E+02  0.93636511738E+03  0.10178594864E+04  0.78957085855E+02 0.  0.
         24    2    4    4    0    0  0.11438235778E+03 -0.22103422787E+03 -0.71016625052E+02  0.26897583316E+03  0.73247417237E+02 0.  0.
         11    1    3    3    0    0  0.27267971084E+03  0.12282569578E+03 -0.12781113989E+02  0.29933882662E+03  0.00000000000E+00 0.  1.
        -11    1    3    3    0    0 -0.74543835043E+01  0.37517430532E+01  0.12841594977E+01  0.84434871339E+01  0.00000000000E+00 0. -1.
          4    1    6    6  502    0  0.58541089713E+02 -0.10821173430E+03  0.27629618907E+01  0.12306288061E+03  0.00000000000E+00 0. -1.
          3    1    5    5  503    0 -0.34467341494E+03  0.10607950966E+03  0.81969200977E+03  0.89551527972E+03  0.00000000000E+00 0. -1.
         -4    1    5    5    0  503 -0.34934270180E+02 -0.11622720621E+02  0.11667310761E+03  0.12234420667E+03  0.00000000000E+00 0.  1.
         -3    1    6    6    0  502  0.55841268063E+02 -0.11282249357E+03 -0.73779586943E+02  0.14591295256E+03  0.00000000000E+00 0.  1.
<mgrwt>
<rscale>  0 0.13467527E+04</rscale>
<asrwt>0</asrwt>
<pdfrwt beam="1">  1        2 0.18834378E+00 0.13467527E+04</pdfrwt>
<pdfrwt beam="2">  1       -2 0.56982008E-01 0.13467527E+04</pdfrwt>
<totfact> 0.51677297E+01</totfact>
</mgrwt>
</event>
<event>
12    1  0.1442183E-007  0.1522713E+04  0.7818608E-02  0.8869488E-01
          2   -1    0    0  501    0  0.00000000000E+00  0.00000000000E+00  0.26158747917E+04  0.26158747917E+04  0.00000000000E+00 0.  1.
         -2   -1    0    0    0  501 -0.00000000000E+00 -0.00000000000E+00 -0.22159447561E+03  0.22159447561E+03  0.00000000000E+00 0. -1.
         23    2    1    2    0    0  0.20993788905E+03  0.44003970235E+03  0.75467971950E+03  0.90307411992E+03  0.91063330394E+02 0.  0.
        254    2    1    2    0    0 -0.20993788905E+03 -0.44003970235E+03  0.16396005966E+04  0.19343951474E+04  0.90326386677E+03 0.  0.
        -24    2    4    4    0    0  0.85232059433E+02  0.71141297864E+02 -0.47430623783E+02  0.14530286625E+03  0.80855863432E+02 0.  0.
         24    2    4    4    0    0 -0.29516994849E+03 -0.51118100022E+03  0.16870312204E+04  0.17890922811E+04  0.79658888171E+02 0.  0.
         13    1    3    3    0    0  0.21795225335E+03  0.41462944267E+03  0.72529726048E+03  0.86341002747E+03  0.00000000000E+00 0. -1.
        -13    1    3    3    0    0 -0.80143642991E+01  0.25410259682E+02  0.29382459016E+02  0.39664092452E+02  0.00000000000E+00 0.  1.
          4    1    6    6  502    0 -0.19283948555E+03 -0.37339732100E+03  0.12844832557E+04  0.13514843176E+04  0.00000000000E+00 0. -1.
          3    1    5    5  503    0  0.15126941865E+02  0.47647295654E+02 -0.50822160180E+02  0.71288015253E+02  0.00000000000E+00 0. -1.
         -4    1    5    5    0  503  0.70105117568E+02  0.23494002209E+02  0.33915363976E+01  0.74014850998E+02  0.00000000000E+00 0.  1.
         -3    1    6    6    0  502 -0.10233046294E+03 -0.13778367921E+03  0.40254796464E+03  0.43760796353E+03  0.00000000000E+00 0.  1.
<mgrwt>
<rscale>  0 0.15227126E+04</rscale>
<asrwt>0</asrwt>
<pdfrwt beam="1">  1        2 0.40244225E+00 0.15227126E+04</pdfrwt>
<pdfrwt beam="2">  1       -2 0.34091460E-01 0.15227126E+04</pdfrwt>
<totfact> 0.23223240E+01</totfact>
</mgrwt>
</event>
<event>
12    1  0.1442183E-007  0.1648809E+04  0.7818608E-02  0.8791111E-01
          2   -1    0    0  501    0  0.00000000000E+00  0.00000000000E+00  0.14111792661E+04  0.14111792661E+04  0.00000000000E+00 0.  1.
         -2   -1    0    0    0  501 -0.00000000000E+00 -0.00000000000E+00 -0.48161360506E+03  0.48161360506E+03  0.00000000000E+00 0. -1.
         23    2    1    2    0    0 -0.37771699994E+03 -0.10991367852E+03  0.81108461935E+03  0.90563250576E+03  0.86953015968E+02 0.  0.
        254    2    1    2    0    0  0.37771699994E+03  0.10991367852E+03  0.11848104167E+03  0.98716036538E+03  0.89760608341E+03 0.  0.
        -24    2    4    4    0    0  0.27186910230E+03  0.45013736561E+03 -0.12784540527E+03  0.54704690829E+03  0.79871243391E+02 0.  0.
         24    2    4    4    0    0  0.10584789764E+03 -0.34022368709E+03  0.24632644694E+03  0.44011345708E+03  0.77892245794E+02 0.  0.
         11    1    3    3    0    0 -0.17966042711E+03 -0.61068657807E+02  0.48734800165E+03  0.52298692599E+03  0.00000000000E+00 0.  1.
        -11    1    3    3    0    0 -0.19805657282E+03 -0.48845020715E+02  0.32373661769E+03  0.38264557978E+03  0.00000000000E+00 0. -1.
          4    1    6    6  502    0  0.45257182192E+02 -0.13572755584E+03  0.14598286129E+03  0.20440444649E+03  0.00000000000E+00 0. -1.
          3    1    5    5  503    0  0.20918543377E+02  0.93176100050E+02 -0.19881730002E+02  0.97543089276E+02  0.00000000000E+00 0. -1.
         -4    1    5    5    0  503  0.25095055893E+03  0.35696126556E+03 -0.10796367526E+03  0.44950381902E+03  0.00000000000E+00 0.  1.
         -3    1    6    6    0  502  0.60590715445E+02 -0.20449613125E+03  0.10034358564E+03  0.23570901059E+03  0.00000000000E+00 0.  1.
<mgrwt>
<rscale>  0 0.16488094E+04</rscale>
<asrwt>0</asrwt>
<pdfrwt beam="1">  1        2 0.21710450E+00 0.16488094E+04</pdfrwt>
<pdfrwt beam="2">  1       -2 0.74094401E-01 0.16488094E+04</pdfrwt>
<totfact> 0.22345491E+01</totfact>
</mgrwt>
</event>
<event>
12    1  0.1442183E-007  0.2016907E+04  0.7818608E-02  0.8598756E-01
         -2   -1    0    0    0  501 -0.00000000000E+00  0.00000000000E+00  0.30131735271E+03  0.30131735271E+03  0.00000000000E+00 0.  1.
          2   -1    0    0  501    0  0.00000000000E+00 -0.00000000000E+00 -0.33751089852E+04  0.33751089852E+04  0.00000000000E+00 0. -1.
         23    2    1    2    0    0 -0.29489080441E+03  0.26130907254E+03  0.43410708252E+02  0.40713382664E+03  0.92900189929E+02 0.  0.
        254    2    1    2    0    0  0.29489080441E+03 -0.26130907254E+03 -0.31172023407E+04  0.32692925113E+04  0.90337150340E+03 0.  0.
        -24    2    4    4    0    0 -0.20485925299E+03 -0.25248841114E+03 -0.21660843930E+04  0.21918897242E+04  0.82105141616E+02 0.  0.
         24    2    4    4    0    0  0.49975005740E+03 -0.88206614079E+01 -0.95111794778E+03  0.10774027871E+04  0.79646036122E+02 0.  0.
         11    1    3    3    0    0 -0.57054025313E+02  0.49147283789E+02  0.46314298213E+02  0.88406060466E+02  0.00000000000E+00 0. -1.
        -11    1    3    3    0    0 -0.23783677910E+03  0.21216178875E+03 -0.29035899605E+01  0.31872776618E+03  0.00000000000E+00 0.  1.
          4    1    6    6  502    0  0.24386112781E+02 -0.26787475684E+01 -0.95298285422E+02  0.98405393092E+02  0.00000000000E+00 0. -1.
          3    1    5    5  503    0 -0.17682656019E+03 -0.24706510689E+03 -0.18810134502E+04  0.19053924528E+04  0.00000000000E+00 0. -1.
         -4    1    5    5    0  503 -0.28032692799E+02 -0.54233042467E+01 -0.28507094281E+03  0.28649727141E+03  0.00000000000E+00 0.  1.
         -3    1    6    6    0  502  0.47536394461E+03 -0.61419138395E+01 -0.85581966236E+03  0.97899739398E+03  0.00000000000E+00 0.  1.
<mgrwt>
<rscale>  0 0.20169074E+04</rscale>
<asrwt>0</asrwt>
<pdfrwt beam="1">  1        2 0.51924752E+00 0.20169074E+04</pdfrwt>
<pdfrwt beam="2">  1       -2 0.46356517E-01 0.20169074E+04</pdfrwt>
<totfact> 0.40764964E+00</totfact>
</mgrwt>
</event>
<event>
12    1  0.1442183E-007  0.1217986E+04  0.7818608E-02  0.9097258E-01
         -2   -1    0    0    0  501 -0.00000000000E+00  0.00000000000E+00  0.58618970422E+03  0.58618970422E+03  0.00000000000E+00 0.  1.
          2   -1    0    0  501    0  0.00000000000E+00 -0.00000000000E+00 -0.63268290941E+03  0.63268290941E+03  0.00000000000E+00 0. -1.
         23    2    1    2    0    0  0.24208898381E+03  0.81495862477E+02 -0.10901599038E+02  0.27139954648E+03  0.91050630339E+02 0.  0.
        254    2    1    2    0    0 -0.24208898381E+03 -0.81495862477E+02 -0.35591606156E+02  0.94747306715E+03  0.91169611103E+03 0.  0.
        -24    2    4    4    0    0  0.11506164485E+03 -0.32915736143E+03 -0.26862716068E+03  0.44744216016E+03  0.80375273182E+02 0.  0.
         24    2    4    4    0    0 -0.35715062867E+03  0.24766149895E+03  0.23303555453E+03  0.50003090698E+03  0.82659232082E+02 0.  0.
         13    1    3    3    0    0  0.23801457801E+03  0.76683794594E+02  0.93012647593E+01  0.25023560343E+03  0.00000000000E+00 0. -1.
        -13    1    3    3    0    0  0.40744058055E+01  0.48120678828E+01 -0.20202863797E+02  0.21163943054E+02  0.00000000000E+00 0.  1.
          2    1    6    6  502    0 -0.22368695378E+03  0.17280938643E+03  0.19165964335E+03  0.34151479649E+03  0.00000000000E+00 0. -1.
          3    1    5    5  503    0  0.26254834658E+02 -0.12833527509E+02 -0.19823177153E+02  0.35312520778E+02  0.00000000000E+00 0. -1.
         -4    1    5    5    0  503  0.88806810195E+02 -0.31632383392E+03 -0.24880398353E+03  0.41212963939E+03  0.00000000000E+00 0.  1.
         -1    1    6    6    0  502 -0.13346367488E+03  0.74852112514E+02  0.41375911181E+02  0.15851611050E+03  0.00000000000E+00 0.  1.
<mgrwt>
<rscale>  0 0.12179856E+04</rscale>
<asrwt>0</asrwt>
<pdfrwt beam="1">  1        2 0.97335831E-01 0.12179856E+04</pdfrwt>
<pdfrwt beam="2">  1       -2 0.90183032E-01 0.12179856E+04</pdfrwt>
<totfact> 0.48213203E+01</totfact>
</mgrwt>
</event>
<event>
12    1  0.1442183E-007  0.1236997E+04  0.7818608E-02  0.9081075E-01
          1   -1    0    0  501    0  0.00000000000E+00  0.00000000000E+00  0.64584001225E+03  0.64584001225E+03  0.00000000000E+00 0. -1.
         -1   -1    0    0    0  501 -0.00000000000E+00 -0.00000000000E+00 -0.59231478283E+03  0.59231478283E+03  0.00000000000E+00 0.  1.
         23    2    1    2    0    0  0.90266700521E+02  0.65188259102E+02  0.26814604093E+03  0.30334000433E+03  0.87836624554E+02 0.  0.
        254    2    1    2    0    0 -0.90266700521E+02 -0.65188259102E+02 -0.21462081151E+03  0.93481479076E+03  0.90300554480E+03 0.  0.
        -24    2    4    4    0    0  0.36249944143E+02  0.31662028611E+03 -0.37249484198E+03  0.49548886890E+03  0.72071824411E+02 0.  0.
         24    2    4    4    0    0 -0.12651664466E+03 -0.38180854521E+03  0.15787403047E+03  0.43932592186E+03  0.79365165821E+02 0.  0.
         13    1    3    3    0    0 -0.13390285521E+02 -0.25037528626E+01  0.95497655160E+01  0.16636302057E+02  0.00000000000E+00 0.  1.
        -13    1    3    3    0    0  0.10365698604E+03  0.67692011965E+02  0.25859627541E+03  0.28670370227E+03  0.00000000000E+00 0. -1.
          4    1    6    6  502    0 -0.12775585897E+03 -0.33965955367E+03  0.11881172441E+03  0.38184603934E+03  0.00000000000E+00 0. -1.
          3    1    5    5  503    0  0.51947737444E+02  0.24986410910E+03 -0.31894544592E+03  0.40848113532E+03  0.00000000000E+00 0. -1.
         -4    1    5    5    0  503 -0.15697793301E+02  0.66756177010E+02 -0.53549396059E+02  0.87007733574E+02  0.00000000000E+00 0.  1.
         -3    1    6    6    0  502  0.12392143030E+01 -0.42148991543E+02  0.39062306057E+02  0.57479882521E+02  0.00000000000E+00 0.  1.
<mgrwt>
<rscale>  0 0.12369973E+04</rscale>
<asrwt>0</asrwt>
<pdfrwt beam="1">  1        1 0.99360002E-01 0.12369973E+04</pdfrwt>
<pdfrwt beam="2">  1       -1 0.91125351E-01 0.12369973E+04</pdfrwt>
<totfact> 0.35686602E+01</totfact>
</mgrwt>
</event>
<event>
12    1  0.1442183E-007  0.1489178E+04  0.7818608E-02  0.8891682E-01
         -1   -1    0    0    0  501 -0.00000000000E+00  0.00000000000E+00  0.25834774293E+04  0.25834774293E+04  0.00000000000E+00 0.  1.
          1   -1    0    0  501    0  0.00000000000E+00 -0.00000000000E+00 -0.21459937481E+03  0.21459937481E+03  0.00000000000E+00 0. -1.
         23    2    1    2    0    0  0.38469136142E+03 -0.19635980754E+03  0.44271726609E+03  0.62582942361E+03  0.95494880432E+02 0.  0.
        254    2    1    2    0    0 -0.38469136142E+03  0.19635980754E+03  0.19261607884E+04  0.21722473805E+04  0.90665245920E+03 0.  0.
        -24    2    4    4    0    0 -0.17371433160E+03 -0.23650835258E+02  0.18303366630E+04  0.18404566897E+04  0.80078058963E+02 0.  0.
         24    2    4    4    0    0 -0.21097702982E+03  0.22001064280E+03  0.95824125418E+02  0.33179069087E+03  0.89368951450E+02 0.  0.
         11    1    3    3    0    0  0.42921974500E+02 -0.26377342193E+02  0.10377316674E+03  0.11535566831E+03  0.00000000000E+00 0.  1.
        -11    1    3    3    0    0  0.34176938692E+03 -0.16998246535E+03  0.33894409935E+03  0.51047375529E+03  0.00000000000E+00 0. -1.
          4    1    6    6  502    0 -0.11353914453E+03  0.10582896670E+03  0.28787168678E+01  0.15523915274E+03  0.00000000000E+00 0. -1.
          1    1    5    5  503    0 -0.11994475470E+03 -0.22396466281E+02  0.15634736698E+04  0.15682277456E+04  0.00000000000E+00 0. -1.
         -2    1    5    5    0  503 -0.53769576899E+02 -0.12543689774E+01  0.26686299318E+03  0.27222894404E+03  0.00000000000E+00 0.  1.
         -3    1    6    6    0  502 -0.97437885288E+02  0.11418167610E+03  0.92945408550E+02  0.17655153813E+03  0.00000000000E+00 0.  1.
<mgrwt>
<rscale>  0 0.14891778E+04</rscale>
<asrwt>0</asrwt>
<pdfrwt beam="1">  1        1 0.33015290E-01 0.14891778E+04</pdfrwt>
<pdfrwt beam="2">  1       -1 0.39745804E+00 0.14891778E+04</pdfrwt>
<totfact> 0.98516501E-01</totfact>
</mgrwt>
</event>
<event>
12    1  0.1442183E-007  0.1906755E+04  0.7818608E-02  0.8651501E-01
          2   -1    0    0  501    0  0.00000000000E+00  0.00000000000E+00  0.10293307260E+04  0.10293307260E+04  0.00000000000E+00 0. -1.
         -2   -1    0    0    0  501 -0.00000000000E+00 -0.00000000000E+00 -0.88302902040E+03  0.88302902040E+03  0.00000000000E+00 0.  1.
         23    2    1    2    0    0 -0.24544500518E+03 -0.23114868869E+03  0.71527234226E+03  0.79604660235E+03  0.91666256956E+02 0.  0.
        254    2    1    2    0    0  0.24544500518E+03  0.23114868869E+03 -0.56897063667E+03  0.11163131440E+04  0.89930778008E+03 0.  0.
        -24    2    4    4    0    0 -0.57627563988E+02  0.43211430421E+03 -0.59638504511E+03  0.74298596939E+03  0.79431232170E+02 0.  0.
         24    2    4    4    0    0  0.30307256917E+03 -0.20096561552E+03  0.27414408447E+02  0.37332717465E+03  0.79884095648E+02 0.  0.
         11    1    3    3    0    0 -0.18152039481E+03 -0.11060239445E+03  0.45368056605E+03  0.50100758418E+03  0.00000000000E+00 0.  1.
        -11    1    3    3    0    0 -0.63924610364E+02 -0.12054629424E+03  0.26159177621E+03  0.29503901817E+03  0.00000000000E+00 0. -1.
          4    1    6    6  502    0  0.28951031625E+03 -0.16558399084E+03  0.16638399367E+02  0.33393280397E+03  0.00000000000E+00 0. -1.
          3    1    5    5  503    0 -0.77135374160E+02  0.35866968528E+03 -0.48430182275E+03  0.60757062520E+03  0.00000000000E+00 0. -1.
         -4    1    5    5    0  503  0.19507810172E+02  0.73444618927E+02 -0.11208322236E+03  0.13541534419E+03  0.00000000000E+00 0.  1.
         -3    1    6    6    0  502  0.13562252919E+02 -0.35381624677E+02  0.10776009079E+02  0.39394370672E+02  0.00000000000E+00 0.  1.
<mgrwt>
<rscale>  0 0.19067553E+04</rscale>
<asrwt>0</asrwt>
<pdfrwt beam="1">  1        2 0.15835857E+00 0.19067553E+04</pdfrwt>
<pdfrwt beam="2">  1       -2 0.13585062E+00 0.19067553E+04</pdfrwt>
<totfact> 0.87665233E+00</totfact>
</mgrwt>
</event>
<event>
12    1  0.1442183E-007  0.2033341E+04  0.7818608E-02  0.8591189E-01
          2   -1    0    0  501    0  0.00000000000E+00  0.00000000000E+00  0.19819887431E+04  0.19819887431E+04  0.00000000000E+00 0. -1.
         -2   -1    0    0    0  501 -0.00000000000E+00 -0.00000000000E+00 -0.52150583879E+03  0.52150583879E+03  0.00000000000E+00 0.  1.
         23    2    1    2    0    0  0.10965193789E+03 -0.32594820726E+03  0.14766821210E+04  0.15189541379E+04  0.91464775694E+02 0.  0.
        254    2    1    2    0    0 -0.10965193789E+03  0.32594820726E+03 -0.16199216669E+02  0.98454044404E+03  0.92238370000E+03 0.  0.
        -24    2    4    4    0    0 -0.22917597775E+03 -0.17699187873E+03  0.25571668284E+03  0.39509955836E+03  0.82854602879E+02 0.  0.
         24    2    4    4    0    0  0.11952403986E+03  0.50294008599E+03 -0.27191589951E+03  0.58944088568E+03  0.79168018200E+02 0.  0.
         11    1    3    3    0    0  0.83514974325E+02 -0.11650966692E+03  0.53140535166E+03  0.55040067332E+03  0.00000000000E+00 0.  1.
        -11    1    3    3    0    0  0.26136963570E+02 -0.20943854034E+03  0.94527676935E+03  0.96855346456E+03  0.00000000000E+00 0. -1.
          2    1    6    6  502    0  0.69984989746E+01  0.38756849650E+02  0.89133410605E+00  0.39393741371E+02  0.00000000000E+00 0. -1.
          1    1    5    5  503    0 -0.64647388576E+02 -0.96497757248E+02  0.78155885656E+02  0.13999801594E+03  0.00000000000E+00 0. -1.
         -2    1    5    5    0  503 -0.16452858918E+03 -0.80494121477E+02  0.17756079718E+03  0.25510154242E+03  0.00000000000E+00 0.  1.
         -1    1    6    6    0  502  0.11252554088E+03  0.46418323634E+03 -0.27280723361E+03  0.55004714431E+03  0.00000000000E+00 0.  1.
<mgrwt>
<rscale>  0 0.20333408E+04</rscale>
<asrwt>0</asrwt>
<pdfrwt beam="1">  1        2 0.30492134E+00 0.20333408E+04</pdfrwt>
<pdfrwt beam="2">  1       -2 0.80231669E-01 0.20333408E+04</pdfrwt>
<totfact> 0.86993226E+00</totfact>
</mgrwt>
</event>
<event>
12    1  0.1442183E-007  0.3760311E+04  0.7818608E-02  0.8054726E-01
         -2   -1    0    0    0  501 -0.00000000000E+00  0.00000000000E+00  0.16135097103E+04  0.16135097103E+04  0.00000000000E+00 0.  1.
          2   -1    0    0  501    0  0.00000000000E+00 -0.00000000000E+00 -0.21908662254E+04  0.21908662254E+04  0.00000000000E+00 0. -1.
         23    2    1    2    0    0 -0.14049735562E+04 -0.10465481136E+04 -0.10193213020E+03  0.17572181990E+04  0.90620041767E+02 0.  0.
        254    2    1    2    0    0  0.14049735562E+04  0.10465481136E+04 -0.47542438496E+03  0.20471577367E+04  0.94636821878E+03 0.  0.
        -24    2    4    4    0    0  0.62591931891E+03  0.88821460630E+03 -0.59129790938E+03  0.12397520256E+04  0.81557873559E+02 0.  0.
         24    2    4    4    0    0  0.77905423731E+03  0.15833350728E+03  0.11587352441E+03  0.80740571112E+03  0.80512759776E+02 0.  0.
         11    1    3    3    0    0 -0.10637327241E+04 -0.83559659012E+03 -0.62909149797E+02  0.13541442061E+04  0.00000000000E+00 0.  1.
        -11    1    3    3    0    0 -0.34124083212E+03 -0.21095152346E+03 -0.39022980403E+02  0.40307399290E+03  0.00000000000E+00 0. -1.
          4    1    6    6  502    0  0.55885543836E+03  0.78360627943E+02  0.94242750120E+02  0.57213764510E+03  0.00000000000E+00 0. -1.
          3    1    5    5  503    0  0.41983118988E+03  0.52701057352E+03 -0.36659493480E+03  0.76706598074E+03  0.00000000000E+00 0. -1.
         -4    1    5    5    0  503  0.20608812903E+03  0.36120403279E+03 -0.22470297458E+03  0.47268604487E+03  0.00000000000E+00 0.  1.
         -3    1    6    6    0  502  0.22019879896E+03  0.79972879340E+02  0.21630774291E+02  0.23526806602E+03  0.00000000000E+00 0.  1.
<mgrwt>
<rscale>  0 0.37603106E+04</rscale>
<asrwt>0</asrwt>
<pdfrwt beam="1">  1        2 0.33705634E+00 0.37603106E+04</pdfrwt>
<pdfrwt beam="2">  1       -2 0.24823226E+00 0.37603106E+04</pdfrwt>
<totfact> 0.27698995E-01</totfact>
</mgrwt>
</event>
<event>
12    1  0.1442183E-007  0.2221650E+04  0.7818608E-02  0.8509471E-01
          2   -1    0    0  501    0  0.00000000000E+00  0.00000000000E+00  0.29300251938E+04  0.29300251938E+04  0.00000000000E+00 0. -1.
         -2   -1    0    0    0  501 -0.00000000000E+00 -0.00000000000E+00 -0.42113349429E+03  0.42113349429E+03  0.00000000000E+00 0.  1.
         23    2    1    2    0    0 -0.79425665054E+03 -0.20175050330E+02  0.17433629670E+04  0.19180246310E+04  0.90848174117E+02 0.  0.
        254    2    1    2    0    0  0.79425665054E+03  0.20175050330E+02  0.76552873249E+03  0.14331340571E+04  0.91465202440E+03 0.  0.
        -24    2    4    4    0    0 -0.11667040901E+03  0.23325629284E+03  0.16575522917E+03  0.31895639887E+03  0.78980414612E+02 0.  0.
         24    2    4    4    0    0  0.91092705954E+03 -0.21308124251E+03  0.59977350331E+03  0.11141776582E+04  0.80447965049E+02 0.  0.
         13    1    3    3    0    0 -0.60937468442E+02  0.10879041718E+02  0.19328508300E+03  0.20295529537E+03  0.00000000000E+00 0.  1.
        -13    1    3    3    0    0 -0.73331918209E+03 -0.31054092047E+02  0.15500778840E+04  0.17150693356E+04  0.00000000000E+00 0. -1.
          4    1    6    6  502    0  0.74485628061E+03 -0.20119809978E+03  0.51181958738E+03  0.92587841759E+03  0.00000000000E+00 0. -1.
          1    1    5    5  503    0 -0.12354121860E+03  0.20667763521E+03  0.16423115582E+03  0.29146174729E+03  0.00000000000E+00 0. -1.
         -2    1    5    5    0  503  0.68708095928E+01  0.26578657632E+02  0.15240733518E+01  0.27494651581E+02  0.00000000000E+00 0.  1.
         -3    1    6    6    0  502  0.16607077893E+03 -0.11883142733E+02  0.87953915931E+02  0.18829924063E+03  0.00000000000E+00 0.  1.
<mgrwt>
<rscale>  0 0.22216496E+04</rscale>
<asrwt>0</asrwt>
<pdfrwt beam="1">  1        2 0.45077309E+00 0.22216496E+04</pdfrwt>
<pdfrwt beam="2">  1       -2 0.64789770E-01 0.22216496E+04</pdfrwt>
<totfact> 0.38649938E+00</totfact>
</mgrwt>
</event>
<event>
12    1  0.1442183E-007  0.2560306E+04  0.7818608E-02  0.8381811E-01
         -1   -1    0    0    0  501 -0.00000000000E+00  0.00000000000E+00  0.60662948738E+03  0.60662948738E+03  0.00000000000E+00 0.  1.
          1   -1    0    0  501    0  0.00000000000E+00 -0.00000000000E+00 -0.27014712756E+04  0.27014712756E+04  0.00000000000E+00 0. -1.
         23    2    1    2    0    0 -0.36949855153E+03 -0.10541034994E+04 -0.85722081029E+03  0.14106735983E+04  0.86655156840E+02 0.  0.
        254    2    1    2    0    0  0.36949855153E+03  0.10541034994E+04 -0.12376209779E+04  0.18974271647E+04  0.90601368264E+03 0.  0.
        -24    2    4    4    0    0 -0.23277485639E+01  0.70943372447E+03 -0.20245367386E+03  0.74192523945E+03  0.78510782961E+02 0.  0.
         24    2    4    4    0    0  0.37182630009E+03  0.34466977497E+03 -0.10351673040E+04  0.11555019252E+04  0.81001855524E+02 0.  0.
         13    1    3    3    0    0 -0.16327640012E+03 -0.49753940349E+03 -0.34912642443E+03  0.62935991380E+03  0.00000000000E+00 0.  1.
        -13    1    3    3    0    0 -0.20622215141E+03 -0.55656409595E+03 -0.50809438586E+03  0.78131368450E+03  0.00000000000E+00 0. -1.
          2    1    6    6  502    0  0.10242717059E+03  0.72917264935E+02 -0.19116767286E+03  0.22880850497E+03  0.00000000000E+00 0. -1.
          1    1    5    5  503    0 -0.73333504435E+01  0.63342694608E+03 -0.20469661506E+03  0.66572079603E+03  0.00000000000E+00 0. -1.
         -2    1    5    5    0  503  0.50056018796E+01  0.76006778391E+02  0.22429412006E+01  0.76204443419E+02  0.00000000000E+00 0.  1.
         -1    1    6    6    0  502  0.26939912951E+03  0.27175251003E+03 -0.84399963118E+03  0.92669342024E+03  0.00000000000E+00 0.  1.
<mgrwt>
<rscale>  0 0.25603063E+04</rscale>
<asrwt>0</asrwt>
<pdfrwt beam="1">  1        1 0.41561097E+00 0.25603063E+04</pdfrwt>
<pdfrwt beam="2">  1       -1 0.93327613E-01 0.25603063E+04</pdfrwt>
<totfact> 0.96379180E-01</totfact>
</mgrwt>
</event>
<event>
12    1  0.1442183E-007  0.1552023E+04  0.7818608E-02  0.8850577E-01
         -2   -1    0    0    0  501 -0.00000000000E+00  0.00000000000E+00  0.33950978951E+03  0.33950978951E+03  0.00000000000E+00 0.  1.
          2   -1    0    0  501    0  0.00000000000E+00 -0.00000000000E+00 -0.17737152379E+04  0.17737152379E+04  0.00000000000E+00 0. -1.
         23    2    1    2    0    0 -0.64742073594E+01  0.36523365140E+03 -0.11310125638E+04  0.11919128501E+04  0.89606290663E+02 0.  0.
        254    2    1    2    0    0  0.64742073594E+01 -0.36523365140E+03 -0.30319288458E+03  0.92131217729E+03  0.78959018946E+03 0.  0.
        -24    2    4    4    0    0 -0.11014715137E+03 -0.23149594339E+03 -0.54722222675E+03  0.60953175504E+03  0.79712158356E+02 0.  0.
         24    2    4    4    0    0  0.11662135873E+03 -0.13373770801E+03  0.24402934218E+03  0.31178042225E+03  0.78551868199E+02 0.  0.
         11    1    3    3    0    0  0.16641538775E+02  0.94571054070E+02 -0.41845551120E+03  0.42933162000E+03  0.00000000000E+00 0. -1.
        -11    1    3    3    0    0 -0.23115746134E+02  0.27066259733E+03 -0.71255705257E+03  0.76258123008E+03  0.00000000000E+00 0.  1.
          2    1    6    6  502    0  0.16363033814E+02  0.96980865185E+01  0.25603813617E+02  0.31896034698E+02  0.00000000000E+00 0. -1.
          1    1    5    5  503    0 -0.64912056410E+02 -0.94117314249E+02 -0.32368667401E+03  0.34328516839E+03  0.00000000000E+00 0. -1.
         -2    1    5    5    0  503 -0.45235094961E+02 -0.13737862914E+03 -0.22353555275E+03  0.26624658665E+03  0.00000000000E+00 0.  1.
         -1    1    6    6    0  502  0.10025832492E+03 -0.14343579453E+03  0.21842552856E+03  0.27988438755E+03  0.00000000000E+00 0.  1.
<mgrwt>
<rscale>  0 0.15520228E+04</rscale>
<asrwt>0</asrwt>
<pdfrwt beam="1">  1        2 0.27287926E+00 0.15520228E+04</pdfrwt>
<pdfrwt beam="2">  1       -2 0.52232276E-01 0.15520228E+04</pdfrwt>
<totfact> 0.29712644E+01</totfact>
</mgrwt>
</event>
<event>
12    1  0.1442183E-007  0.2608720E+04  0.7818608E-02  0.8365245E-01
          1   -1    0    0  501    0  0.00000000000E+00  0.00000000000E+00  0.15942514609E+04  0.15942514609E+04  0.00000000000E+00 0. -1.
         -1   -1    0    0    0  501 -0.00000000000E+00 -0.00000000000E+00 -0.10671812330E+04  0.10671812330E+04  0.00000000000E+00 0.  1.
         23    2    1    2    0    0  0.83371195570E+03  0.51902719376E+03 -0.37053959563E+03  0.10534338895E+04  0.89210507938E+02 0.  0.
        254    2    1    2    0    0 -0.83371195570E+03 -0.51902719376E+03  0.89760982350E+03  0.16079988044E+04  0.90304590513E+03 0.  0.
        -24    2    4    4    0    0 -0.14657887611E+03 -0.52789729954E+03  0.11912878874E+03  0.56672473309E+03  0.82609497060E+02 0.  0.
         24    2    4    4    0    0 -0.68713307959E+03  0.88701057868E+01  0.77848103476E+03  0.10412740713E+04  0.77384896783E+02 0.  0.
         11    1    3    3    0    0  0.15129956537E+02  0.18793508932E+02 -0.22302556489E+02  0.32855982541E+02  0.00000000000E+00 0. -1.
        -11    1    3    3    0    0  0.81858199917E+03  0.50023368482E+03 -0.34823703914E+03  0.10205779070E+04  0.00000000000E+00 0.  1.
          2    1    6    6  502    0 -0.39521850039E+03  0.35452766122E+02  0.48252474325E+03  0.62472769230E+03  0.00000000000E+00 0. -1.
          3    1    5    5  503    0 -0.12654429892E+03 -0.45762199068E+03  0.73176705764E+02  0.48040209846E+03  0.00000000000E+00 0. -1.
         -4    1    5    5    0  503 -0.20034577190E+02 -0.70275308864E+02  0.45952082977E+02  0.86322634627E+02  0.00000000000E+00 0.  1.
         -1    1    6    6    0  502 -0.29191457920E+03 -0.26582660335E+02  0.29595629151E+03  0.41654637901E+03  0.00000000000E+00 0.  1.
<mgrwt>
<rscale>  0 0.26087202E+04</rscale>
<asrwt>0</asrwt>
<pdfrwt beam="1">  1        1 0.24526946E+00 0.26087202E+04</pdfrwt>
<pdfrwt beam="2">  1       -1 0.16418173E+00 0.26087202E+04</pdfrwt>
<totfact> 0.13469832E+00</totfact>
</mgrwt>
</event>
<event>
12    1  0.1442183E-007  0.1560620E+04  0.7818608E-02  0.8845112E-01
          3   -1    0    0  501    0  0.00000000000E+00  0.00000000000E+00  0.49218582191E+03  0.49218582191E+03  0.00000000000E+00 0. -1.
         -3   -1    0    0    0  501 -0.00000000000E+00 -0.00000000000E+00 -0.12371017794E+04  0.12371017794E+04  0.00000000000E+00 0.  1.
         23    2    1    2    0    0  0.47492415987E+02  0.32075387668E+03 -0.67820495905E+03  0.75731459851E+03  0.91787012399E+02 0.  0.
        254    2    1    2    0    0 -0.47492415987E+02 -0.32075387668E+03 -0.66710998424E+02  0.97197300280E+03  0.91386135813E+03 0.  0.
        -24    2    4    4    0    0 -0.20432766674E+03 -0.53198997237E+03  0.17994663361E+03  0.60278128489E+03  0.78748716670E+02 0.  0.
         24    2    4    4    0    0  0.15683525075E+03  0.21123609569E+03 -0.24665763204E+03  0.36919171791E+03  0.79022484949E+02 0.  0.
         13    1    3    3    0    0  0.24450364809E+02  0.26256098830E+02 -0.38084741859E+02  0.52322563274E+02  0.00000000000E+00 0. -1.
        -13    1    3    3    0    0  0.23042051178E+02  0.29449777785E+03 -0.64012021720E+03  0.70499203523E+03  0.00000000000E+00 0.  1.
          4    1    6    6  502    0  0.11961392494E+03  0.95370864230E+02 -0.13481624884E+03  0.20390810120E+03  0.00000000000E+00 0. -1.
          1    1    5    5  503    0 -0.19706128094E+03 -0.42962293726E+03  0.14656136652E+03  0.49486286062E+03  0.00000000000E+00 0. -1.
         -2    1    5    5    0  503 -0.72663858019E+01 -0.10236703511E+03  0.33385267096E+02  0.10791842428E+03  0.00000000000E+00 0.  1.
         -3    1    6    6    0  502  0.37221325815E+02  0.11586523146E+03 -0.11184138319E+03  0.16528361671E+03  0.00000000000E+00 0.  1.
<mgrwt>
<rscale>  0 0.15606203E+04</rscale>
<asrwt>0</asrwt>
<pdfrwt beam="1">  1        3 0.75720896E-01 0.15606203E+04</pdfrwt>
<pdfrwt beam="2">  1       -3 0.19032335E+00 0.15606203E+04</pdfrwt>
<totfact> 0.69941949E-01</totfact>
</mgrwt>
</event>
<event>
12    1  0.1442183E-007  0.1402929E+04  0.7818608E-02  0.8951701E-01
         -2   -1    0    0    0  501 -0.00000000000E+00  0.00000000000E+00  0.26231721581E+03  0.26231721581E+03  0.00000000000E+00 0.  1.
          2   -1    0    0  501    0  0.00000000000E+00 -0.00000000000E+00 -0.18757924927E+04  0.18757924927E+04  0.00000000000E+00 0. -1.
         23    2    1    2    0    0  0.24901243213E+03 -0.36071533488E+02 -0.96680231271E+03  0.10028608790E+04  0.87834411867E+02 0.  0.
        254    2    1    2    0    0 -0.24901243213E+03  0.36071533488E+02 -0.64667296420E+03  0.11352488295E+04  0.89849631908E+03 0.  0.
        -24    2    4    4    0    0 -0.54366401552E+03  0.11472157984E+03 -0.21617467636E+03  0.60164290596E+03  0.80691343652E+02 0.  0.
         24    2    4    4    0    0  0.29465158339E+03 -0.78650046354E+02 -0.43049828785E+03  0.53360592356E+03  0.80007002389E+02 0.  0.
         13    1    3    3    0    0  0.82208363581E+02  0.77303533701E+01 -0.19036830273E+03  0.20750437125E+03  0.00000000000E+00 0.  1.
        -13    1    3    3    0    0  0.16680406855E+03 -0.43801886858E+02 -0.77643400998E+03  0.79535650776E+03  0.00000000000E+00 0. -1.
          2    1    6    6  502    0  0.18134477562E+03 -0.75679265648E+02 -0.22344240981E+03  0.29755636339E+03  0.00000000000E+00 0. -1.
          1    1    5    5  503    0 -0.50500308540E+03  0.91882179247E+02 -0.17986175069E+03  0.54389401586E+03  0.00000000000E+00 0. -1.
         -4    1    5    5    0  503 -0.38660930120E+02  0.22839400595E+02 -0.36312925666E+02  0.57748890100E+02  0.00000000000E+00 0.  1.
         -1    1    6    6    0  502  0.11330680777E+03 -0.29707807063E+01 -0.20705587803E+03  0.23604956016E+03  0.00000000000E+00 0.  1.
<mgrwt>
<rscale>  0 0.14029293E+04</rscale>
<asrwt>0</asrwt>
<pdfrwt beam="1">  1        2 0.28858347E+00 0.14029293E+04</pdfrwt>
<pdfrwt beam="2">  1       -2 0.40356494E-01 0.14029293E+04</pdfrwt>
<totfact> 0.44306479E+01</totfact>
</mgrwt>
</event>
<event>
12    1  0.1442183E-007  0.3204658E+04  0.7818608E-02  0.8187588E-01
         -2   -1    0    0    0  501 -0.00000000000E+00  0.00000000000E+00  0.20271884636E+04  0.20271884636E+04  0.00000000000E+00 0.  1.
          2   -1    0    0  501    0  0.00000000000E+00 -0.00000000000E+00 -0.12665115833E+04  0.12665115833E+04  0.00000000000E+00 0. -1.
         23    2    1    2    0    0 -0.65574002392E+03  0.10998412460E+04 -0.38314092645E+03  0.13397563947E+04  0.92219749666E+02 0.  0.
        254    2    1    2    0    0  0.65574002392E+03 -0.10998412460E+04  0.11438178068E+04  0.19539436521E+04  0.93270084986E+03 0.  0.
        -24    2    4    4    0    0  0.74236346210E+03 -0.92438169062E+03  0.52317013352E+03  0.12982888176E+04  0.79131823617E+02 0.  0.
         24    2    4    4    0    0 -0.86623438174E+02 -0.17545955538E+03  0.62064767324E+03  0.65565483453E+03  0.79937801668E+02 0.  0.
         13    1    3    3    0    0 -0.53617701466E+03  0.83318969187E+03 -0.31521121686E+03  0.10397350455E+04  0.00000000000E+00 0. -1.
        -13    1    3    3    0    0 -0.11956300926E+03  0.26665155413E+03 -0.67929709583E+02  0.30002134915E+03  0.00000000000E+00 0.  1.
          4    1    6    6  502    0 -0.84631484062E+02 -0.16781891742E+03  0.61984973876E+03  0.64771859305E+03  0.00000000000E+00 0. -1.
          3    1    5    5  503    0  0.10643094405E+03 -0.17731563064E+03  0.10271767017E+03  0.23090971934E+03  0.00000000000E+00 0. -1.
         -4    1    5    5    0  503  0.63593251805E+03 -0.74706605999E+03  0.42045246335E+03  0.10673790983E+04  0.00000000000E+00 0.  1.
         -3    1    6    6    0  502 -0.19919541125E+01 -0.76406379516E+01  0.79793448122E+00  0.79362414864E+01  0.00000000000E+00 0.  1.
<mgrwt>
<rscale>  0 0.32046577E+04</rscale>
<asrwt>0</asrwt>
<pdfrwt beam="1">  1        2 0.19484794E+00 0.32046577E+04</pdfrwt>
<pdfrwt beam="2">  1       -2 0.31187515E+00 0.32046577E+04</pdfrwt>
<totfact> 0.39114886E-01</totfact>
</mgrwt>
</event>
<event>
12    1  0.1442183E-007  0.3547685E+04  0.7818608E-02  0.8102581E-01
         -1   -1    0    0    0  501 -0.00000000000E+00  0.00000000000E+00  0.16065376603E+04  0.16065376603E+04  0.00000000000E+00 0.  1.
          1   -1    0    0  501    0  0.00000000000E+00 -0.00000000000E+00 -0.19585704924E+04  0.19585704924E+04  0.00000000000E+00 0. -1.
         23    2    1    2    0    0  0.11506169418E+04 -0.94276653705E+03  0.59547767080E+03  0.16048642011E+04  0.90925010189E+02 0.  0.
        254    2    1    2    0    0 -0.11506169418E+04  0.94276653705E+03 -0.94751050297E+03  0.19602439516E+04  0.85560043604E+03 0.  0.
        -24    2    4    4    0    0 -0.49273643440E+03  0.38920210100E+03 -0.89329076026E+03  0.10948552249E+04  0.80449436813E+02 0.  0.
         24    2    4    4    0    0 -0.65788050744E+03  0.55356443605E+03 -0.54219742715E+02  0.86538872668E+03  0.81960483344E+02 0.  0.
         11    1    3    3    0    0  0.54678921120E+03 -0.44830364840E+03  0.23420961106E+03  0.74485484798E+03  0.00000000000E+00 0. -1.
        -11    1    3    3    0    0  0.60382773063E+03 -0.49446288865E+03  0.36126805974E+03  0.86000935316E+03  0.00000000000E+00 0.  1.
          2    1    6    6  502    0 -0.80774744849E+02  0.10157300307E+03  0.57288621846E+01  0.12990170984E+03  0.00000000000E+00 0. -1.
          1    1    5    5  503    0 -0.21184166223E+03  0.15752549496E+03 -0.30916464516E+03  0.40653898858E+03  0.00000000000E+00 0. -1.
         -2    1    5    5    0  503 -0.28089477217E+03  0.23167660603E+03 -0.58412611510E+03  0.68831623630E+03  0.00000000000E+00 0.  1.
         -1    1    6    6    0  502 -0.57710576259E+03  0.45199143299E+03 -0.59948604900E+02  0.73548701684E+03  0.00000000000E+00 0.  1.
<mgrwt>
<rscale>  0 0.35476850E+04</rscale>
<asrwt>0</asrwt>
<pdfrwt beam="1">  1        1 0.30131854E+00 0.35476850E+04</pdfrwt>
<pdfrwt beam="2">  1       -1 0.24715964E+00 0.35476850E+04</pdfrwt>
<totfact> 0.18800907E-01</totfact>
</mgrwt>
</event>
<event>
12    1  0.1442183E-007  0.1379916E+04  0.7818608E-02  0.8968486E-01
         -1   -1    0    0    0  501 -0.00000000000E+00  0.00000000000E+00  0.11297931708E+04  0.11297931708E+04  0.00000000000E+00 0.  1.
          1   -1    0    0  501    0  0.00000000000E+00 -0.00000000000E+00 -0.42135354986E+03  0.42135354986E+03  0.00000000000E+00 0. -1.
         23    2    1    2    0    0  0.64470049003E+02  0.35448123023E+03  0.37697251316E+03  0.52941041119E+03  0.91399004373E+02 0.  0.
        254    2    1    2    0    0 -0.64470049003E+02 -0.35448123023E+03  0.33146710778E+03  0.10217363095E+04  0.89680617345E+03 0.  0.
        -24    2    4    4    0    0  0.35678103213E+03  0.54224926034E+02  0.81835370640E+02  0.37881046556E+03  0.81038839067E+02 0.  0.
         24    2    4    4    0    0 -0.42125108114E+03 -0.40870615626E+03  0.24963173714E+03  0.64292584390E+03  0.80897719653E+02 0.  0.
         11    1    3    3    0    0  0.10191091659E+02  0.13944085753E+03  0.88241402249E+02  0.16533044538E+03  0.00000000000E+00 0. -1.
        -11    1    3    3    0    0  0.54278957344E+02  0.21504037269E+03  0.28873111091E+03  0.36407996581E+03  0.00000000000E+00 0.  1.
          4    1    6    6  502    0 -0.20955385662E+03 -0.15847365960E+03  0.85016168711E+02  0.27614211659E+03  0.00000000000E+00 0. -1.
          3    1    5    5  503    0  0.11354256400E+03 -0.16214030923E+02  0.43628679145E+02  0.12271214399E+03  0.00000000000E+00 0. -1.
         -4    1    5    5    0  503  0.24323846813E+03  0.70438956957E+02  0.38206691495E+02  0.25609832157E+03  0.00000000000E+00 0.  1.
         -3    1    6    6    0  502 -0.21169722451E+03 -0.25023249665E+03  0.16461556843E+03  0.36678372731E+03  0.00000000000E+00 0.  1.
<mgrwt>
<rscale>  0 0.13799165E+04</rscale>
<asrwt>0</asrwt>
<pdfrwt beam="1">  1        1 0.64823623E-01 0.13799165E+04</pdfrwt>
<pdfrwt beam="2">  1       -1 0.17381433E+00 0.13799165E+04</pdfrwt>
<totfact> 0.12608261E+01</totfact>
</mgrwt>
</event>
<event>
12    1  0.1442183E-007  0.1758213E+04  0.7818608E-02  0.8728842E-01
         -1   -1    0    0    0  501 -0.00000000000E+00  0.00000000000E+00  0.68867376652E+03  0.68867376652E+03  0.00000000000E+00 0.  1.
          1   -1    0    0  501    0  0.00000000000E+00 -0.00000000000E+00 -0.11221983673E+04  0.11221983673E+04  0.00000000000E+00 0. -1.
         23    2    1    2    0    0 -0.29324506233E+03 -0.26115667112E+03  0.36911519528E+03  0.54626592724E+03  0.89246638193E+02 0.  0.
        254    2    1    2    0    0  0.29324506233E+03  0.26115667112E+03 -0.80263979601E+03  0.12646062065E+04  0.89487582491E+03 0.  0.
        -24    2    4    4    0    0  0.12399457518E+03 -0.27447452213E+03 -0.57354084149E+03  0.65275932645E+03  0.80216727851E+02 0.  0.
         24    2    4    4    0    0  0.16925048715E+03  0.53563119325E+03 -0.22909895452E+03  0.61184688009E+03  0.79522142394E+02 0.  0.
         13    1    3    3    0    0 -0.12134202408E+03 -0.14978483278E+03  0.13580382362E+03  0.23580089365E+03  0.00000000000E+00 0. -1.
        -13    1    3    3    0    0 -0.17190303825E+03 -0.11137183834E+03  0.23331137166E+03  0.31046503359E+03  0.00000000000E+00 0.  1.
          2    1    6    6  502    0  0.16323579297E+03  0.53300832190E+03 -0.23303749466E+03  0.60419390037E+03  0.00000000000E+00 0. -1.
          3    1    5    5  503    0  0.60935566843E+02 -0.20352398267E+03 -0.44349691292E+03  0.49175671485E+03  0.00000000000E+00 0. -1.
         -4    1    5    5    0  503  0.63059008339E+02 -0.70950539458E+02 -0.13004392857E+03  0.16100261160E+03  0.00000000000E+00 0.  1.
         -1    1    6    6    0  502  0.60146941740E+01  0.26228713478E+01  0.39385401447E+01  0.76529797194E+01  0.00000000000E+00 0.  1.
<mgrwt>
<rscale>  0 0.17582134E+04</rscale>
<asrwt>0</asrwt>
<pdfrwt beam="1">  1        1 0.17264590E+00 0.17582134E+04</pdfrwt>
<pdfrwt beam="2">  1       -1 0.10594981E+00 0.17582134E+04</pdfrwt>
<totfact> 0.96331709E+00</totfact>
</mgrwt>
</event>
<event>
12    1  0.1442183E-007  0.2047043E+04  0.7818608E-02  0.8584937E-01
         -2   -1    0    0    0  501 -0.00000000000E+00  0.00000000000E+00  0.55338159336E+03  0.55338159336E+03  0.00000000000E+00 0.  1.
          2   -1    0    0  501    0  0.00000000000E+00 -0.00000000000E+00 -0.18930813804E+04  0.18930813804E+04  0.00000000000E+00 0. -1.
         23    2    1    2    0    0 -0.36266495269E+02 -0.57862884290E+03 -0.12456509709E+04  0.13769724745E+04  0.90995921178E+02 0.  0.
        254    2    1    2    0    0  0.36266495269E+02  0.57862884290E+03 -0.94048816149E+02  0.10694904993E+04  0.89377746208E+03 0.  0.
        -24    2    4    4    0    0  0.33187604185E+03  0.35669898531E+03 -0.35717777493E+03  0.60952734163E+03  0.81066293992E+02 0.  0.
         24    2    4    4    0    0 -0.29560954658E+03  0.22192985759E+03  0.26312895878E+03  0.45996315765E+03  0.75441313143E+02 0.  0.
         13    1    3    3    0    0 -0.24086418955E+02 -0.17478261546E+03 -0.47736363992E+03  0.50892549844E+03  0.00000000000E+00 0. -1.
        -13    1    3    3    0    0 -0.12180076314E+02 -0.40384622743E+03 -0.76828733096E+03  0.86804697603E+03  0.00000000000E+00 0.  1.
          2    1    6    6  502    0 -0.24895495541E+03  0.19340579570E+03  0.25329143355E+03  0.40440193118E+03  0.00000000000E+00 0. -1.
          3    1    5    5  503    0  0.25122736628E+03  0.31518958975E+03 -0.29719055530E+03  0.50078128281E+03  0.00000000000E+00 0. -1.
         -4    1    5    5    0  503  0.80648675571E+02  0.41509395566E+02 -0.59987219622E+02  0.10874605882E+03  0.00000000000E+00 0.  1.
         -1    1    6    6    0  502 -0.46654591174E+02  0.28524061889E+02  0.98375252269E+01  0.55561226470E+02  0.00000000000E+00 0.  1.
<mgrwt>
<rscale>  0 0.20470431E+04</rscale>
<asrwt>0</asrwt>
<pdfrwt beam="1">  1        2 0.29124328E+00 0.20470431E+04</pdfrwt>
<pdfrwt beam="2">  1       -2 0.85135631E-01 0.20470431E+04</pdfrwt>
<totfact> 0.85116466E+00</totfact>
</mgrwt>
</event>
<event>
12    1  0.1442183E-007  0.1832637E+04  0.7818608E-02  0.8689133E-01
         -2   -1    0    0    0  501 -0.00000000000E+00  0.00000000000E+00  0.11239652224E+04  0.11239652224E+04  0.00000000000E+00 0.  1.
          2   -1    0    0  501    0  0.00000000000E+00 -0.00000000000E+00 -0.74703373234E+03  0.74703373234E+03  0.00000000000E+00 0. -1.
         23    2    1    2    0    0  0.39932412329E+03  0.36931550680E+03  0.57838871070E+03  0.79932113352E+03  0.92342161620E+02 0.  0.
        254    2    1    2    0    0 -0.39932412329E+03 -0.36931550680E+03 -0.20145722064E+03  0.10716778212E+04  0.90114074471E+03 0.  0.
        -24    2    4    4    0    0 -0.31391357662E+03 -0.59778558618E+03 -0.36146226331E+03  0.76984983361E+03  0.78258915627E+02 0.  0.
         24    2    4    4    0    0 -0.85410546674E+02  0.22847007938E+03  0.16000504267E+03  0.30182798763E+03  0.77491817508E+02 0.  0.
         11    1    3    3    0    0  0.15108521116E+03  0.85624514045E+02  0.20607070221E+03  0.26948735174E+03  0.00000000000E+00 0. -1.
        -11    1    3    3    0    0  0.24823891213E+03  0.28369099276E+03  0.37231800849E+03  0.52983378178E+03  0.00000000000E+00 0.  1.
          4    1    6    6  502    0 -0.65341873831E+02  0.22652861915E+03  0.14730137720E+03  0.27799725088E+03  0.00000000000E+00 0. -1.
          1    1    5    5  503    0 -0.30320795171E+03 -0.52601843426E+03 -0.32380915415E+03  0.68810088175E+03  0.00000000000E+00 0. -1.
         -2    1    5    5    0  503 -0.10705624912E+02 -0.71767151918E+02 -0.37653109168E+02  0.81748951854E+02  0.00000000000E+00 0.  1.
         -3    1    6    6    0  502 -0.20068672842E+02  0.19414602220E+01  0.12703665479E+02  0.23830736750E+02  0.00000000000E+00 0.  1.
<mgrwt>
<rscale>  0 0.18326374E+04</rscale>
<asrwt>0</asrwt>
<pdfrwt beam="1">  1        2 0.11492827E+00 0.18326374E+04</pdfrwt>
<pdfrwt beam="2">  1       -2 0.17291773E+00 0.18326374E+04</pdfrwt>
<totfact> 0.72086462E+00</totfact>
</mgrwt>
</event>
<event>
12    1  0.1442183E-007  0.1228885E+04  0.7818608E-02  0.9087943E-01
         -1   -1    0    0    0  501 -0.00000000000E+00  0.00000000000E+00  0.11056978756E+04  0.11056978756E+04  0.00000000000E+00 0.  1.
          1   -1    0    0  501    0  0.00000000000E+00 -0.00000000000E+00 -0.34144917168E+03  0.34144917168E+03  0.00000000000E+00 0. -1.
         23    2    1    2    0    0 -0.17619075596E+03  0.18666999140E+03  0.28742214060E+03  0.39601340550E+03  0.91248354837E+02 0.  0.
        254    2    1    2    0    0  0.17619075596E+03 -0.18666999140E+03  0.47682656335E+03  0.10511336418E+04  0.90090481920E+03 0.  0.
        -24    2    4    4    0    0  0.50641918465E+03 -0.11319794024E+03  0.46831125171E+03  0.70346664282E+03  0.79219472514E+02 0.  0.
         24    2    4    4    0    0 -0.33022842869E+03 -0.73472051153E+02  0.85153116403E+01  0.34766699899E+03  0.79692372511E+02 0.  0.
         13    1    3    3    0    0 -0.85288080806E+02  0.32979095280E+02  0.73206307169E+02  0.11713599303E+03  0.00000000000E+00 0. -1.
        -13    1    3    3    0    0 -0.90902675154E+02  0.15369089611E+03  0.21421583343E+03  0.27887741248E+03  0.00000000000E+00 0.  1.
          2    1    6    6  502    0 -0.25019880006E+03 -0.71527493508E+02  0.36699213210E+02  0.26279736324E+03  0.00000000000E+00 0. -1.
          1    1    5    5  503    0  0.24491650820E+03 -0.28564595778E+02  0.18116434167E+03  0.30597475519E+03  0.00000000000E+00 0. -1.
         -2    1    5    5    0  503  0.26150267645E+03 -0.84633344463E+02  0.28714691004E+03  0.39749188763E+03  0.00000000000E+00 0.  1.
         -1    1    6    6    0  502 -0.80029628635E+02 -0.19445576457E+01 -0.28183901569E+02  0.84869635746E+02  0.00000000000E+00 0.  1.
<mgrwt>
<rscale>  0 0.12288851E+04</rscale>
<asrwt>0</asrwt>
<pdfrwt beam="1">  1        1 0.52530642E-01 0.12288851E+04</pdfrwt>
<pdfrwt beam="2">  1       -1 0.17010736E+00 0.12288851E+04</pdfrwt>
<totfact> 0.17948953E+01</totfact>
</mgrwt>
</event>
<event>
12    1  0.1442183E-007  0.1750144E+04  0.7818608E-02  0.8733271E-01
         -2   -1    0    0    0  501 -0.00000000000E+00  0.00000000000E+00  0.47221653346E+03  0.47221653346E+03  0.00000000000E+00 0.  1.
          2   -1    0    0  501    0  0.00000000000E+00 -0.00000000000E+00 -0.16216098224E+04  0.16216098224E+04  0.00000000000E+00 0. -1.
         23    2    1    2    0    0 -0.45549061444E+03 -0.45612625974E+03 -0.47425336470E+03  0.80547943179E+03  0.91422078503E+02 0.  0.
        254    2    1    2    0    0  0.45549061444E+03  0.45612625974E+03 -0.67513992424E+03  0.12883469241E+04  0.88797579628E+03 0.  0.
        -24    2    4    4    0    0 -0.23061457862E+03  0.25607182120E+03 -0.10014058108E+03  0.36753735066E+03  0.79370691498E+02 0.  0.
         24    2    4    4    0    0  0.68610519307E+03  0.20005443855E+03 -0.57499934316E+03  0.92080957341E+03  0.80646831996E+02 0.  0.
         11    1    3    3    0    0 -0.35730631388E+03 -0.39235085311E+03 -0.35564252826E+03  0.63881812887E+03  0.00000000000E+00 0.  1.
        -11    1    3    3    0    0 -0.98184300567E+02 -0.63775406635E+02 -0.11861083645E+03  0.16666130292E+03  0.00000000000E+00 0. -1.
          4    1    6    6  502    0  0.20280789321E+03  0.95199395850E+02 -0.16159884569E+03  0.27623930467E+03  0.00000000000E+00 0. -1.
          1    1    5    5  503    0 -0.76889727176E+02  0.59492665939E+02  0.35979828110E+01  0.97284905952E+02  0.00000000000E+00 0. -1.
         -2    1    5    5    0  503 -0.15372485145E+03  0.19657915526E+03 -0.10373856389E+03  0.27025244471E+03  0.00000000000E+00 0.  1.
         -3    1    6    6    0  502  0.48329729985E+03  0.10485504270E+03 -0.41340049748E+03  0.64457026874E+03  0.00000000000E+00 0.  1.
<mgrwt>
<rscale>  0 0.17501440E+04</rscale>
<asrwt>0</asrwt>
<pdfrwt beam="1">  1        2 0.24947844E+00 0.17501440E+04</pdfrwt>
<pdfrwt beam="2">  1       -2 0.72648697E-01 0.17501440E+04</pdfrwt>
<totfact> 0.17611332E+01</totfact>
</mgrwt>
</event>
<event>
12    1  0.1442183E-007  0.2497179E+04  0.7818608E-02  0.8403991E-01
          2   -1    0    0  501    0  0.00000000000E+00  0.00000000000E+00  0.25417623999E+04  0.25417623999E+04  0.00000000000E+00 0.  1.
         -2   -1    0    0    0  501 -0.00000000000E+00 -0.00000000000E+00 -0.61334417519E+03  0.61334417519E+03  0.00000000000E+00 0. -1.
         23    2    1    2    0    0 -0.59343573188E+02 -0.85309193375E+02  0.22052628064E+04  0.22097171555E+04  0.94162327542E+02 0.  0.
        254    2    1    2    0    0  0.59343573188E+02  0.85309193375E+02 -0.27684458161E+03  0.94538941966E+03  0.89795262363E+03 0.  0.
        -24    2    4    4    0    0  0.43717092529E+03  0.79597159403E+02 -0.32366839440E+03  0.55553400341E+03  0.80016708925E+02 0.  0.
         24    2    4    4    0    0 -0.37782735210E+03  0.57120339724E+01  0.46823812786E+02  0.38985541625E+03  0.83717625396E+02 0.  0.
         13    1    3    3    0    0 -0.34815979438E+02 -0.31259648636E+02  0.17470048258E+04  0.17476313053E+04  0.00000000000E+00 0.  1.
        -13    1    3    3    0    0 -0.24527593751E+02 -0.54049544739E+02  0.45825798058E+03  0.46208585015E+03  0.00000000000E+00 0. -1.
          4    1    6    6  502    0 -0.40353271777E+02 -0.25744972608E+02  0.10243030185E+02  0.48950074822E+02  0.00000000000E+00 0. -1.
          3    1    5    5  503    0  0.14873826269E+03 -0.70560543124E+00 -0.14013087497E+03  0.20435320106E+03  0.00000000000E+00 0. -1.
         -4    1    5    5    0  503  0.28843266261E+03  0.80302764834E+02 -0.18353751943E+03  0.35118080235E+03  0.00000000000E+00 0.  1.
         -3    1    6    6    0  502 -0.33747408033E+03  0.31457006580E+02  0.36580782601E+02  0.34090534142E+03  0.00000000000E+00 0.  1.
<mgrwt>
<rscale>  0 0.24971785E+04</rscale>
<asrwt>0</asrwt>
<pdfrwt beam="1">  1        2 0.39104036E+00 0.24971785E+04</pdfrwt>
<pdfrwt beam="2">  1       -2 0.94360644E-01 0.24971785E+04</pdfrwt>
<totfact> 0.27799500E+00</totfact>
</mgrwt>
</event>
<event>
12    1  0.1487766E-007  0.2098413E+04  0.7818608E-02  0.8561943E-01
         -2   -1    0    0    0  501 -0.00000000000E+00  0.00000000000E+00  0.88941972040E+03  0.88941972040E+03  0.00000000000E+00 0. -1.
          2   -1    0    0  501    0  0.00000000000E+00 -0.00000000000E+00 -0.12376995977E+04  0.12376995977E+04  0.00000000000E+00 0.  1.
         23    2    1    2    0    0  0.39541580206E+03 -0.62657296151E+03  0.28985466792E+03  0.80246090399E+03  0.10478760088E+03 0.  0.
        254    2    1    2    0    0 -0.39541580206E+03  0.62657296151E+03 -0.63813454526E+03  0.13246584142E+04  0.89362010033E+03 0.  0.
        -24    2    4    4    0    0  0.10069567102E+03  0.11705639959E+03  0.17032969807E+03  0.24485196811E+03  0.84252367314E+02 0.  0.
         24    2    4    4    0    0 -0.49611147308E+03  0.50951656192E+03 -0.80846424333E+03  0.10798064460E+04  0.81448189528E+02 0.  0.
         13    1    3    3    0    0  0.21795148472E+02 -0.87813753787E+02  0.15760924750E+02  0.91840571645E+02  0.00000000000E+00 0.  1.
        -13    1    3    3    0    0  0.37362065359E+03 -0.53875920772E+03  0.27409374317E+03  0.71062033234E+03  0.00000000000E+00 0. -1.
          2    1    6    6  502    0 -0.43859394352E+03  0.41364084192E+03 -0.65921767818E+03  0.89332599908E+03  0.00000000000E+00 0. -1.
          3    1    5    5  503    0  0.11294270494E+03  0.87802741926E+02  0.14944202105E+03  0.20687748487E+03  0.00000000000E+00 0. -1.
         -4    1    5    5    0  503 -0.12247033920E+02  0.29253657667E+02  0.20887677013E+02  0.37974483245E+02  0.00000000000E+00 0.  1.
         -1    1    6    6    0  502 -0.57517529560E+02  0.95875719999E+02 -0.14924656515E+03  0.18648044696E+03  0.00000000000E+00 0.  1.
<mgrwt>
<rscale>  0 0.20984131E+04</rscale>
<asrwt>0</asrwt>
<pdfrwt beam="1">  1        2 0.19041532E+00 0.20984131E+04</pdfrwt>
<pdfrwt beam="2">  1       -2 0.13683380E+00 0.20984131E+04</pdfrwt>
<totfact> 0.63186724E+00</totfact>
</mgrwt>
</event>
<event>
12    1  0.1442183E-007  0.2367623E+04  0.7818608E-02  0.8451725E-01
          2   -1    0    0  501    0  0.00000000000E+00  0.00000000000E+00  0.31216263033E+04  0.31216263033E+04  0.00000000000E+00 0. -1.
         -2   -1    0    0    0  501 -0.00000000000E+00 -0.00000000000E+00 -0.44893580272E+03  0.44893580272E+03  0.00000000000E+00 0.  1.
         23    2    1    2    0    0  0.19856024193E+03 -0.64640974188E+03  0.21977022815E+04  0.23012680866E+04  0.93100828372E+02 0.  0.
        254    2    1    2    0    0 -0.19856024193E+03  0.64640974188E+03  0.47498821916E+03  0.12692940195E+04  0.96344266851E+03 0.  0.
        -24    2    4    4    0    0 -0.12595185224E+03  0.37132180982E+03  0.75964442545E+03  0.85856066220E+03  0.79517306455E+02 0.  0.
         24    2    4    4    0    0 -0.72608389691E+02  0.27508793205E+03 -0.28465620628E+03  0.41073335729E+03  0.82020646198E+02 0.  0.
         13    1    3    3    0    0  0.47105264454E+02 -0.29007127673E+03  0.87251808704E+03  0.92067804564E+03  0.00000000000E+00 0.  1.
        -13    1    3    3    0    0  0.15145497748E+03 -0.35633846515E+03  0.13251841944E+04  0.13805900409E+04  0.00000000000E+00 0. -1.
          2    1    6    6  502    0  0.84884370609E+01  0.21111372952E+02 -0.30776629449E+01  0.22961176818E+02  0.00000000000E+00 0. -1.
          1    1    5    5  503    0 -0.31214987644E+02  0.48076639027E+02  0.17102400244E+03  0.18037446628E+03  0.00000000000E+00 0. -1.
         -2    1    5    5    0  503 -0.94736864596E+02  0.32324517080E+03  0.58862042301E+03  0.67818619592E+03  0.00000000000E+00 0.  1.
         -1    1    6    6    0  502 -0.81096826752E+02  0.25397655910E+03 -0.28157854334E+03  0.38777218048E+03  0.00000000000E+00 0.  1.
<mgrwt>
<rscale>  0 0.23676231E+04</rscale>
<asrwt>0</asrwt>
<pdfrwt beam="1">  1        2 0.48025019E+00 0.23676231E+04</pdfrwt>
<pdfrwt beam="2">  1       -2 0.69067048E-01 0.23676231E+04</pdfrwt>
<totfact> 0.25177497E+00</totfact>
</mgrwt>
</event>
<event>
12    1  0.1442183E-007  0.2096979E+04  0.7818608E-02  0.8562575E-01
         -2   -1    0    0    0  501 -0.00000000000E+00  0.00000000000E+00  0.48403901625E+03  0.48403901625E+03  0.00000000000E+00 0.  1.
          2   -1    0    0  501    0  0.00000000000E+00 -0.00000000000E+00 -0.22711607712E+04  0.22711607712E+04  0.00000000000E+00 0. -1.
         23    2    1    2    0    0 -0.79209384605E+03  0.16321908706E+03 -0.39300600650E+03  0.90357685296E+03  0.89130672191E+02 0.  0.
        254    2    1    2    0    0  0.79209384605E+03 -0.16321908706E+03 -0.13941157484E+04  0.18516229345E+04  0.91153477175E+03 0.  0.
        -24    2    4    4    0    0  0.39595023411E+03 -0.44771617266E+03 -0.35334187825E+03  0.69889921798E+03  0.79895399186E+02 0.  0.
         24    2    4    4    0    0  0.39614361194E+03  0.28449708560E+03 -0.10407738702E+04  0.11527237165E+04  0.87711827761E+02 0.  0.
         13    1    3    3    0    0 -0.25741108270E+03  0.91631662988E+02 -0.15284564693E+03  0.31307925345E+03  0.00000000000E+00 0. -1.
        -13    1    3    3    0    0 -0.53468276336E+03  0.71587424076E+02 -0.24016035957E+03  0.59049759951E+03  0.00000000000E+00 0.  1.
          4    1    6    6  502    0  0.36653309371E+03  0.24714327493E+03 -0.98296731403E+03  0.10777991685E+04  0.00000000000E+00 0. -1.
          3    1    5    5  503    0  0.28941929743E+03 -0.37287734147E+03 -0.26194514599E+03  0.53982988155E+03  0.00000000000E+00 0. -1.
         -4    1    5    5    0  503  0.10653093668E+03 -0.74838831191E+02 -0.91396732263E+02  0.15906933643E+03  0.00000000000E+00 0.  1.
         -3    1    6    6    0  502  0.29610518239E+02  0.37353810662E+02 -0.57806556139E+02  0.74924548006E+02  0.00000000000E+00 0.  1.
<mgrwt>
<rscale>  0 0.20969792E+04</rscale>
<asrwt>0</asrwt>
<pdfrwt beam="1">  1        2 0.34940935E+00 0.20969792E+04</pdfrwt>
<pdfrwt beam="2">  1       -2 0.74467541E-01 0.20969792E+04</pdfrwt>
<totfact> 0.70393892E+00</totfact>
</mgrwt>
</event>
<event>
12    1  0.1442183E-007  0.2656032E+04  0.7818608E-02  0.8349414E-01
         -2   -1    0    0    0  501 -0.00000000000E+00  0.00000000000E+00  0.89742614368E+03  0.89742614368E+03  0.00000000000E+00 0.  1.
          2   -1    0    0  501    0  0.00000000000E+00 -0.00000000000E+00 -0.19652056563E+04  0.19652056563E+04  0.00000000000E+00 0. -1.
         23    2    1    2    0    0 -0.32106664110E+03  0.78100505380E+03 -0.13699073389E+04  0.16118244357E+04  0.90990178005E+02 0.  0.
        254    2    1    2    0    0  0.32106664110E+03 -0.78100505380E+03  0.30212782628E+03  0.12508073642E+04  0.87188597698E+03 0.  0.
        -24    2    4    4    0    0  0.50351003982E+03 -0.19743804076E+03 -0.35349584412E+02  0.54766394235E+03  0.78626080236E+02 0.  0.
         24    2    4    4    0    0 -0.18244339872E+03 -0.58356701304E+03  0.33747741069E+03  0.70314342186E+03  0.81753388516E+02 0.  0.
         13    1    3    3    0    0 -0.81564904687E+02  0.13718021541E+03 -0.31219849834E+03  0.35062679239E+03  0.00000000000E+00 0.  1.
        -13    1    3    3    0    0 -0.23950173641E+03  0.64382483839E+03 -0.10577088405E+04  0.12611976433E+04  0.00000000000E+00 0. -1.
          4    1    6    6  502    0 -0.23705282544E+02 -0.43309024440E+02  0.52405479385E+02  0.71999626999E+02  0.00000000000E+00 0. -1.
          3    1    5    5  503    0  0.22134241652E+02 -0.25594056706E+02  0.77732413033E+01  0.34718923839E+02  0.00000000000E+00 0. -1.
         -4    1    5    5    0  503  0.48137579817E+03 -0.17184398405E+03 -0.43122825715E+02  0.51294501851E+03  0.00000000000E+00 0.  1.
         -3    1    6    6    0  502 -0.15873811618E+03 -0.54025798860E+03  0.28507193130E+03  0.63114379486E+03  0.00000000000E+00 0.  1.
<mgrwt>
<rscale>  0 0.26560323E+04</rscale>
<asrwt>0</asrwt>
<pdfrwt beam="1">  1        2 0.30233933E+00 0.26560323E+04</pdfrwt>
<pdfrwt beam="2">  1       -2 0.13806556E+00 0.26560323E+04</pdfrwt>
<totfact> 0.22905141E+00</totfact>
</mgrwt>
</event>
<event>
12    1  0.1442183E-007  0.1765278E+04  0.7818608E-02  0.8724985E-01
          4   -1    0    0  501    0  0.00000000000E+00  0.00000000000E+00  0.23310510622E+04  0.23310510622E+04  0.00000000000E+00 0. -1.
         -4   -1    0    0    0  501 -0.00000000000E+00 -0.00000000000E+00 -0.33420609140E+03  0.33420609140E+03  0.00000000000E+00 0.  1.
         23    2    1    2    0    0 -0.33137820528E+03  0.33093843288E+02 -0.10043259808E+03  0.35904587560E+03  0.88997284395E+02 0.  0.
        254    2    1    2    0    0  0.33137820528E+03 -0.33093843288E+02  0.20972775689E+04  0.23062112780E+04  0.89951683721E+03 0.  0.
        -24    2    4    4    0    0  0.33561411862E+03 -0.42874490121E+03  0.13379622981E+04  0.14468220458E+04  0.81803998639E+02 0.  0.
         24    2    4    4    0    0 -0.42359133365E+01  0.39565105792E+03  0.75931527082E+03  0.85938923221E+03  0.73705287123E+02 0.  0.
         13    1    3    3    0    0 -0.77006348238E+02  0.46260702827E+02 -0.21294747373E+02  0.92322784624E+02  0.00000000000E+00 0. -1.
        -13    1    3    3    0    0 -0.25437185704E+03 -0.13166859539E+02 -0.79137850711E+02  0.26672309098E+03  0.00000000000E+00 0.  1.
          4    1    6    6  502    0 -0.21644266549E+02  0.21469440844E+03  0.47797276006E+03  0.52442360993E+03  0.00000000000E+00 0. -1.
          3    1    5    5  503    0  0.33474391080E+03 -0.40028237143E+03  0.12572418428E+04  0.13612261068E+04  0.00000000000E+00 0. -1.
         -4    1    5    5    0  503  0.87020782280E+00 -0.28462529782E+02  0.80720455277E+02  0.85595938942E+02  0.00000000000E+00 0.  1.
         -3    1    6    6    0  502  0.17408353213E+02  0.18095664949E+03  0.28134251076E+03  0.33496562229E+03  0.00000000000E+00 0.  1.
<mgrwt>
<rscale>  0 0.17652778E+04</rscale>
<asrwt>0</asrwt>
<pdfrwt beam="1">  1        4 0.35862323E+00 0.17652778E+04</pdfrwt>
<pdfrwt beam="2">  1       -4 0.51416323E-01 0.17652778E+04</pdfrwt>
<totfact> 0.90341337E-02</totfact>
</mgrwt>
</event>
<event>
12    1  0.1442183E-007  0.1665236E+04  0.7818608E-02  0.8781444E-01
          4   -1    0    0  501    0  0.00000000000E+00  0.00000000000E+00  0.28942934693E+03  0.28942934693E+03  0.00000000000E+00 0.  1.
         -4   -1    0    0    0  501 -0.00000000000E+00 -0.00000000000E+00 -0.23952395837E+04  0.23952395837E+04  0.00000000000E+00 0. -1.
         23    2    1    2    0    0  0.35975418005E+03  0.30570781068E+02 -0.52782710537E+01  0.37245987436E+03  0.91328282292E+02 0.  0.
        254    2    1    2    0    0 -0.35975418005E+03 -0.30570781068E+02 -0.21005319657E+04  0.23122090563E+04  0.89650350706E+03 0.  0.
        -24    2    4    4    0    0 -0.34698535229E+03 -0.28474398856E+03 -0.45159893657E+03  0.64187562733E+03  0.81146458430E+02 0.  0.
         24    2    4    4    0    0 -0.12768827754E+02  0.25417320749E+03 -0.16489330292E+04  0.16703334290E+04  0.79161650231E+02 0.  0.
         11    1    3    3    0    0  0.74827086889E+02  0.44020684980E+02 -0.81879727310E+01  0.87200668208E+02  0.00000000000E+00 0. -1.
        -11    1    3    3    0    0  0.28492709316E+03 -0.13449903912E+02  0.29097016772E+01  0.28525920615E+03  0.00000000000E+00 0.  1.
          4    1    6    6  502    0 -0.38891341015E+02  0.66867967614E+02 -0.46442863799E+03  0.47082674232E+03  0.00000000000E+00 0. -1.
          1    1    5    5  503    0 -0.34019956106E+02 -0.30432482365E+02 -0.16246364615E+02  0.48450363874E+02  0.00000000000E+00 0. -1.
         -2    1    5    5    0  503 -0.31296539619E+03 -0.25431150619E+03 -0.43535257196E+03  0.59342526345E+03  0.00000000000E+00 0.  1.
         -3    1    6    6    0  502  0.26122513261E+02  0.18730523988E+03 -0.11845043912E+04  0.11995066866E+04  0.00000000000E+00 0.  1.
<mgrwt>
<rscale>  0 0.16652359E+04</rscale>
<asrwt>0</asrwt>
<pdfrwt beam="1">  1        4 0.44527593E-01 0.16652359E+04</pdfrwt>
<pdfrwt beam="2">  1       -4 0.36849839E+00 0.16652359E+04</pdfrwt>
<totfact> 0.10573388E-01</totfact>
</mgrwt>
</event>
<event>
12    1  0.1442183E-007  0.1374941E+04  0.7818608E-02  0.8972160E-01
         -3   -1    0    0    0  501 -0.00000000000E+00  0.00000000000E+00  0.38789450958E+03  0.38789450958E+03  0.00000000000E+00 0.  1.
          3   -1    0    0  501    0  0.00000000000E+00 -0.00000000000E+00 -0.12184136434E+04  0.12184136434E+04  0.00000000000E+00 0. -1.
         23    2    1    2    0    0 -0.25643736468E+03 -0.23487140779E+03 -0.37348028223E+02  0.36061597090E+03  0.87888014291E+02 0.  0.
        254    2    1    2    0    0  0.25643736468E+03  0.23487140779E+03 -0.79317110555E+03  0.12456921820E+04  0.89537919872E+03 0.  0.
        -24    2    4    4    0    0  0.46415716695E+03 -0.69477287060E+02 -0.72043933942E+03  0.86328398631E+03  0.77184390769E+02 0.  0.
         24    2    4    4    0    0 -0.20771980228E+03  0.30434869486E+03 -0.72731766126E+02  0.38240819573E+03  0.71906008361E+02 0.  0.
         11    1    3    3    0    0 -0.48055207106E+02 -0.48671181659E+02 -0.43567298311E+02  0.81094366859E+02  0.00000000000E+00 0. -1.
        -11    1    3    3    0    0 -0.20838215757E+03 -0.18620022614E+03  0.62192700883E+01  0.27952160404E+03  0.00000000000E+00 0.  1.
          4    1    6    6  502    0 -0.90048382050E+02  0.19110707860E+03 -0.28185657964E+02  0.21313155073E+03  0.00000000000E+00 0. -1.
          3    1    5    5  503    0  0.91256981776E+02 -0.44048859743E+02 -0.17089513297E+03  0.19867884951E+03  0.00000000000E+00 0. -1.
         -4    1    5    5    0  503  0.37290018518E+03 -0.25428427317E+02 -0.54954420645E+03  0.66460513680E+03  0.00000000000E+00 0.  1.
         -3    1    6    6    0  502 -0.11767142023E+03  0.11324161626E+03 -0.44546108163E+02  0.16927664500E+03  0.00000000000E+00 0.  1.
<mgrwt>
<rscale>  0 0.13749414E+04</rscale>
<asrwt>0</asrwt>
<pdfrwt beam="1">  1        3 0.18744825E+00 0.13749414E+04</pdfrwt>
<pdfrwt beam="2">  1       -3 0.59676078E-01 0.13749414E+04</pdfrwt>
<totfact> 0.12448096E+00</totfact>
</mgrwt>
</event>
<event>
12    1  0.1442183E-007  0.2931596E+04  0.7818608E-02  0.8263538E-01
          1   -1    0    0  501    0  0.00000000000E+00  0.00000000000E+00  0.23712102568E+04  0.23712102568E+04  0.00000000000E+00 0. -1.
         -1   -1    0    0    0  501 -0.00000000000E+00 -0.00000000000E+00 -0.90610424746E+03  0.90610424746E+03  0.00000000000E+00 0.  1.
         23    2    1    2    0    0 -0.69576564456E+03 -0.51161674597E+03  0.18796682707E+04  0.20705800708E+04  0.91145461126E+02 0.  0.
        254    2    1    2    0    0  0.69576564456E+03  0.51161674597E+03 -0.41456226131E+03  0.12067344334E+04  0.73382872486E+03 0.  0.
        -24    2    4    4    0    0  0.59293739225E+03  0.39449713464E+02 -0.60962683335E+02  0.60271818718E+03  0.80135718440E+02 0.  0.
         24    2    4    4    0    0  0.10282825231E+03  0.47216703251E+03 -0.35359957798E+03  0.60401624626E+03  0.79294439556E+02 0.  0.
         11    1    3    3    0    0 -0.23753131889E+02 -0.33429193663E+02  0.59518402276E+02  0.72278367946E+02  0.00000000000E+00 0.  1.
        -11    1    3    3    0    0 -0.67201251267E+03 -0.47818755231E+03  0.18201498684E+04  0.19983017029E+04  0.00000000000E+00 0. -1.
          2    1    6    6  502    0  0.83253862903E+02  0.35486157812E+03 -0.22263733040E+03  0.42711277926E+03  0.00000000000E+00 0. -1.
          3    1    5    5  503    0  0.25101469786E+03 -0.17735442418E+02 -0.59658538677E+01  0.25171117550E+03  0.00000000000E+00 0. -1.
         -4    1    5    5    0  503  0.34192269439E+03  0.57185155882E+02 -0.54996829468E+02  0.35100701167E+03  0.00000000000E+00 0.  1.
         -1    1    6    6    0  502  0.19574389402E+02  0.11730545438E+03 -0.13096224757E+03  0.17690346700E+03  0.00000000000E+00 0.  1.
<mgrwt>
<rscale>  0 0.29315959E+04</rscale>
<asrwt>0</asrwt>
<pdfrwt beam="1">  1        1 0.36480157E+00 0.29315959E+04</pdfrwt>
<pdfrwt beam="2">  1       -1 0.13940065E+00 0.29315959E+04</pdfrwt>
<totfact> 0.60324201E-01</totfact>
</mgrwt>
</event>
<event>
12    1  0.1442183E-007  0.1973218E+04  0.7818608E-02  0.8619246E-01
         -2   -1    0    0    0  501 -0.00000000000E+00  0.00000000000E+00  0.33925671199E+03  0.33925671199E+03  0.00000000000E+00 0.  1.
          2   -1    0    0  501    0  0.00000000000E+00 -0.00000000000E+00 -0.28692050574E+04  0.28692050574E+04  0.00000000000E+00 0. -1.
         23    2    1    2    0    0 -0.53420688122E+03  0.33319184239E+03 -0.25935255767E+03  0.68698351075E+03  0.91042842102E+02 0.  0.
        254    2    1    2    0    0  0.53420688122E+03 -0.33319184239E+03 -0.22705957878E+04  0.25214782587E+04  0.89769347869E+03 0.  0.
        -24    2    4    4    0    0  0.31034884401E+02 -0.12189189609E+03  0.33424309406E+02  0.15212216098E+03  0.78760199476E+02 0.  0.
         24    2    4    4    0    0  0.50317199682E+03 -0.21129994630E+03 -0.23040200972E+04  0.23693560977E+04  0.86660162338E+02 0.  0.
         11    1    3    3    0    0 -0.43028229248E+03  0.24311687374E+03 -0.16847363809E+03  0.52214177409E+03  0.00000000000E+00 0.  1.
        -11    1    3    3    0    0 -0.10392458874E+03  0.90074968644E+02 -0.90878919580E+02  0.16484173666E+03  0.00000000000E+00 0. -1.
          2    1    6    6  502    0  0.81242824973E+02 -0.33422184108E+02 -0.52803992014E+03  0.53529767071E+03  0.00000000000E+00 0. -1.
          1    1    5    5  503    0 -0.18004457991E+02 -0.20876903087E+01  0.95486737054E+01  0.20486486470E+02  0.00000000000E+00 0. -1.
         -2    1    5    5    0  503  0.49039342392E+02 -0.11980420578E+03  0.23875635700E+02  0.13163567451E+03  0.00000000000E+00 0.  1.
         -1    1    6    6    0  502  0.42192917185E+03 -0.17787776219E+03 -0.17759801770E+04  0.18340584270E+04  0.00000000000E+00 0.  1.
<mgrwt>
<rscale>  0 0.19732178E+04</rscale>
<asrwt>0</asrwt>
<pdfrwt beam="1">  1        2 0.44141615E+00 0.19732178E+04</pdfrwt>
<pdfrwt beam="2">  1       -2 0.52193342E-01 0.19732178E+04</pdfrwt>
<totfact> 0.67836045E+00</totfact>
</mgrwt>
</event>
<event>
12    1  0.1442183E-007  0.1280119E+04  0.7818608E-02  0.9045481E-01
          2   -1    0    0  501    0  0.00000000000E+00  0.00000000000E+00  0.20576243986E+04  0.20576243986E+04  0.00000000000E+00 0. -1.
         -2   -1    0    0    0  501 -0.00000000000E+00 -0.00000000000E+00 -0.19910163908E+03  0.19910163908E+03  0.00000000000E+00 0.  1.
         23    2    1    2    0    0  0.29998045009E+03 -0.81360855357E+02  0.34734958322E+03  0.47550373696E+03  0.94043669036E+02 0.  0.
        254    2    1    2    0    0 -0.29998045009E+03  0.81360855357E+02  0.15111731763E+04  0.17812223007E+04  0.89022505950E+03 0.  0.
        -24    2    4    4    0    0 -0.58545695741E+03  0.16698580013E+03  0.82220830105E+03  0.10263270925E+04  0.81711101678E+02 0.  0.
         24    2    4    4    0    0  0.28547650732E+03 -0.85624944771E+02  0.68896487521E+03  0.75489520814E+03  0.79785390872E+02 0.  0.
         13    1    3    3    0    0  0.21593335848E+03 -0.98995596088E+02  0.23558183690E+03  0.33455365075E+03  0.00000000000E+00 0.  1.
        -13    1    3    3    0    0  0.84047091605E+02  0.17634740731E+02  0.11176774632E+03  0.14095008622E+03  0.00000000000E+00 0. -1.
          2    1    6    6  502    0  0.55126714205E+02  0.81128360148E+01  0.83921797312E+02  0.10073549916E+03  0.00000000000E+00 0. -1.
          3    1    5    5  503    0 -0.36028456405E+03  0.71922052651E+02  0.53797666518E+03  0.65145732096E+03  0.00000000000E+00 0. -1.
         -4    1    5    5    0  503 -0.22517239336E+03  0.95063747476E+02  0.28423163587E+03  0.37486977158E+03  0.00000000000E+00 0.  1.
         -1    1    6    6    0  502  0.23034979312E+03 -0.93737780786E+02  0.60504307790E+03  0.65415970898E+03  0.00000000000E+00 0.  1.
<mgrwt>
<rscale>  0 0.12801194E+04</rscale>
<asrwt>0</asrwt>
<pdfrwt beam="1">  1        2 0.31655758E+00 0.12801194E+04</pdfrwt>
<pdfrwt beam="2">  1       -2 0.30631023E-01 0.12801194E+04</pdfrwt>
<totfact> 0.60143607E+01</totfact>
</mgrwt>
</event>
<event>
12    1  0.1442183E-007  0.1328807E+04  0.7818608E-02  0.9007028E-01
         -2   -1    0    0    0  501 -0.00000000000E+00  0.00000000000E+00  0.38501281442E+03  0.38501281442E+03  0.00000000000E+00 0.  1.
          2   -1    0    0  501    0  0.00000000000E+00 -0.00000000000E+00 -0.11465390301E+04  0.11465390301E+04  0.00000000000E+00 0. -1.
         23    2    1    2    0    0  0.39595015703E+03 -0.55442156772E+02 -0.18943601096E+03  0.45080357460E+03  0.86530347432E+02 0.  0.
        254    2    1    2    0    0 -0.39595015703E+03  0.55442156772E+02 -0.57209020476E+03  0.10807482699E+04  0.82515408319E+03 0.  0.
        -24    2    4    4    0    0 -0.92533060330E+02 -0.36837074007E+03 -0.26102176545E+03  0.46795953358E+03  0.81205871958E+02 0.  0.
         24    2    4    4    0    0 -0.30341709670E+03  0.42381289684E+03 -0.31106843930E+03  0.61278873636E+03  0.84066374861E+02 0.  0.
         13    1    3    3    0    0  0.15642278977E+03 -0.51972424288E+02 -0.11106233497E+03  0.19875629373E+03  0.00000000000E+00 0.  1.
        -13    1    3    3    0    0  0.23952736726E+03 -0.34697324844E+01 -0.78373675985E+02  0.25204728088E+03  0.00000000000E+00 0. -1.
          4    1    6    6  502    0 -0.10857378144E+03  0.12689057225E+03 -0.58331057615E+02  0.17689543698E+03  0.00000000000E+00 0. -1.
          3    1    5    5  503    0  0.53498084091E+00 -0.20391324025E+02  0.39651496186E+01  0.20780151864E+02  0.00000000000E+00 0. -1.
         -4    1    5    5    0  503 -0.93068041171E+02 -0.34797941604E+03 -0.26498691507E+03  0.44717938172E+03  0.00000000000E+00 0.  1.
         -3    1    6    6    0  502 -0.19484331526E+03  0.29692232459E+03 -0.25273738169E+03  0.43589329938E+03  0.00000000000E+00 0.  1.
<mgrwt>
<rscale>  0 0.13288073E+04</rscale>
<asrwt>0</asrwt>
<pdfrwt beam="1">  1        2 0.17639062E+00 0.13288073E+04</pdfrwt>
<pdfrwt beam="2">  1       -2 0.59232742E-01 0.13288073E+04</pdfrwt>
<totfact> 0.53112944E+01</totfact>
</mgrwt>
</event>
<event>
12    1  0.1442183E-007  0.2232177E+04  0.7818608E-02  0.8505154E-01
         -2   -1    0    0    0  501 -0.00000000000E+00  0.00000000000E+00  0.80250388449E+03  0.80250388449E+03  0.00000000000E+00 0.  1.
          2   -1    0    0  501    0  0.00000000000E+00 -0.00000000000E+00 -0.15522085849E+04  0.15522085849E+04  0.00000000000E+00 0. -1.
         23    2    1    2    0    0 -0.70825446683E+02  0.15311894217E+03 -0.12790960707E+04  0.12933906156E+04  0.91163984574E+02 0.  0.
        254    2    1    2    0    0  0.70825446683E+02 -0.15311894217E+03  0.52939137029E+03  0.10613218538E+04  0.90426058195E+03 0.  0.
        -24    2    4    4    0    0 -0.39818900378E+03  0.20292225095E+02  0.30137951777E+03  0.50585273475E+03  0.78045617417E+02 0.  0.
         24    2    4    4    0    0  0.46901445046E+03 -0.17341116726E+03  0.22801185252E+03  0.55546911905E+03  0.80687977125E+02 0.  0.
         13    1    3    3    0    0 -0.46845262884E+02  0.10485553580E+03 -0.11097353332E+04  0.11156619881E+04  0.00000000000E+00 0. -1.
        -13    1    3    3    0    0 -0.23980183799E+02  0.48263406366E+02 -0.16936073754E+03  0.17772862749E+03  0.00000000000E+00 0.  1.
          4    1    6    6  502    0  0.24266757259E+03 -0.64894671736E+02  0.15017455953E+03  0.29266237807E+03  0.00000000000E+00 0. -1.
          1    1    5    5  503    0 -0.37471114097E+03  0.76071345454E+01  0.25829426539E+03  0.45517275314E+03  0.00000000000E+00 0. -1.
         -2    1    5    5    0  503 -0.23477862806E+02  0.12685090550E+02  0.43085252377E+02  0.50679981616E+02  0.00000000000E+00 0.  1.
         -3    1    6    6    0  502  0.22634687787E+03 -0.10851649553E+03  0.77837292984E+02  0.26280674098E+03  0.00000000000E+00 0.  1.
<mgrwt>
<rscale>  0 0.22321769E+04</rscale>
<asrwt>0</asrwt>
<pdfrwt beam="1">  1        2 0.23880132E+00 0.22321769E+04</pdfrwt>
<pdfrwt beam="2">  1       -2 0.12346214E+00 0.22321769E+04</pdfrwt>
<totfact> 0.53494892E+00</totfact>
</mgrwt>
</event>
<event>
12    1  0.1442183E-007  0.1113173E+04  0.7818608E-02  0.9192446E-01
         -2   -1    0    0    0  501 -0.00000000000E+00  0.00000000000E+00  0.55981288234E+03  0.55981288234E+03  0.00000000000E+00 0.  1.
          2   -1    0    0  501    0  0.00000000000E+00 -0.00000000000E+00 -0.55337917362E+03  0.55337917362E+03  0.00000000000E+00 0. -1.
         23    2    1    2    0    0 -0.77432077114E+02  0.11802495262E+03 -0.95302990771E+02  0.19232490250E+03  0.89334159564E+02 0.  0.
        254    2    1    2    0    0  0.77432077114E+02 -0.11802495262E+03  0.10173669949E+03  0.92086715346E+03  0.90427890736E+03 0.  0.
        -24    2    4    4    0    0 -0.29492238047E+03 -0.30638796867E+03 -0.11006387742E+03  0.44616922686E+03  0.78103290827E+02 0.  0.
         24    2    4    4    0    0  0.37235445758E+03  0.18836301605E+03  0.21180057691E+03  0.47469792660E+03  0.79687949147E+02 0.  0.
         13    1    3    3    0    0 -0.96782747257E+02  0.10757976732E+03 -0.78336845310E+02  0.16455080625E+03  0.00000000000E+00 0. -1.
        -13    1    3    3    0    0  0.19350670142E+02  0.10445185294E+02 -0.16966145461E+02  0.27774096252E+02  0.00000000000E+00 0.  1.
          4    1    6    6  502    0  0.17371462127E+03  0.11367042524E+03  0.68423892766E+02  0.21858537078E+03  0.00000000000E+00 0. -1.
          1    1    5    5  503    0 -0.35140626379E+02 -0.59744129586E+02  0.61178946086E+01  0.69581989600E+02  0.00000000000E+00 0. -1.
         -2    1    5    5    0  503 -0.25978175409E+03 -0.24664383908E+03 -0.11618177203E+03  0.37658723726E+03  0.00000000000E+00 0.  1.
         -3    1    6    6    0  502  0.19863983631E+03  0.74692590815E+02  0.14337668415E+03  0.25611255582E+03  0.00000000000E+00 0.  1.
<mgrwt>
<rscale>  0 0.11131735E+04</rscale>
<asrwt>0</asrwt>
<pdfrwt beam="1">  1        2 0.85135258E-01 0.11131735E+04</pdfrwt>
<pdfrwt beam="2">  1       -2 0.86125059E-01 0.11131735E+04</pdfrwt>
<totfact> 0.63432874E+01</totfact>
</mgrwt>
</event>
<event>
12    1  0.1442183E-007  0.1686587E+04  0.7818608E-02  0.8769051E-01
          2   -1    0    0  501    0  0.00000000000E+00  0.00000000000E+00  0.67025356808E+03  0.67025356808E+03  0.00000000000E+00 0.  1.
         -2   -1    0    0    0  501 -0.00000000000E+00 -0.00000000000E+00 -0.10610075129E+04  0.10610075129E+04  0.00000000000E+00 0. -1.
         23    2    1    2    0    0 -0.52769361074E+03  0.26224449425E+03 -0.83115943620E+02  0.60286069243E+03  0.96436677722E+02 0.  0.
        254    2    1    2    0    0  0.52769361074E+03 -0.26224449425E+03 -0.30763800122E+03  0.11284003886E+04  0.91181882825E+03 0.  0.
        -24    2    4    4    0    0  0.85027221176E+02  0.28130238704E+03  0.91731806726E+02  0.31718802389E+03  0.76373142115E+02 0.  0.
         24    2    4    4    0    0  0.44266638956E+03 -0.54354688129E+03 -0.39936980795E+03  0.81121236468E+03  0.84690687208E+02 0.  0.
         11    1    3    3    0    0 -0.53092769262E+03  0.26195502763E+03 -0.78498321590E+02  0.59721573806E+03  0.00000000000E+00 0.  1.
        -11    1    3    3    0    0  0.32340818844E+01  0.28946661605E+00 -0.46176220305E+01  0.56449543641E+01  0.00000000000E+00 0. -1.
          2    1    6    6  502    0  0.45057205463E+02 -0.56250821980E+02 -0.13436629177E+02  0.73313366729E+02  0.00000000000E+00 0. -1.
          1    1    5    5  503    0  0.42470655940E+01  0.10388408223E+03  0.58913604790E+02  0.11950210431E+03  0.00000000000E+00 0. -1.
         -2    1    5    5    0  503  0.80780155582E+02  0.17741830482E+03  0.32818201936E+02  0.19768591958E+03  0.00000000000E+00 0.  1.
         -1    1    6    6    0  502  0.39760918410E+03 -0.48729605931E+03 -0.38593317877E+03  0.73789899795E+03  0.00000000000E+00 0.  1.
<mgrwt>
<rscale>  0 0.16865872E+04</rscale>
<asrwt>0</asrwt>
<pdfrwt beam="1">  1        2 0.10311593E+00 0.16865872E+04</pdfrwt>
<pdfrwt beam="2">  1       -2 0.16323192E+00 0.16865872E+04</pdfrwt>
<totfact> 0.98239034E+00</totfact>
</mgrwt>
</event>
<event>
12    1  0.1442183E-007  0.2012858E+04  0.7818608E-02  0.8600633E-01
         -2   -1    0    0    0  501 -0.00000000000E+00  0.00000000000E+00  0.51429578778E+03  0.51429578778E+03  0.00000000000E+00 0. -1.
          2   -1    0    0  501    0  0.00000000000E+00 -0.00000000000E+00 -0.19694878248E+04  0.19694878248E+04  0.00000000000E+00 0.  1.
         23    2    1    2    0    0  0.72587014790E+03  0.64542017886E+02 -0.18007780148E+03  0.75615840865E+03  0.91073490740E+02 0.  0.
        254    2    1    2    0    0 -0.72587014790E+03 -0.64542017886E+02 -0.12751142355E+04  0.17276252039E+04  0.90979084840E+03 0.  0.
        -24    2    4    4    0    0  0.15052757621E+02 -0.12712821037E+03  0.86699022829E+02  0.17397915885E+03  0.79773803789E+02 0.  0.
         24    2    4    4    0    0 -0.74092290552E+03  0.62586192481E+02 -0.13618132583E+04  0.15536460450E+04  0.79980618086E+02 0.  0.
         13    1    3    3    0    0  0.72209996138E+03  0.58020719722E+02 -0.18432681485E+03  0.74750995499E+03  0.00000000000E+00 0. -1.
        -13    1    3    3    0    0  0.37701865205E+01  0.65212981635E+01  0.42490133749E+01  0.86484536650E+01  0.00000000000E+00 0.  1.
          4    1    6    6  502    0 -0.45533224051E+03  0.20323135735E+01 -0.79986260740E+03  0.92038675037E+03  0.00000000000E+00 0. -1.
          1    1    5    5  503    0  0.18348227733E+02 -0.10836581722E+03  0.10169233901E+03  0.14973690132E+03  0.00000000000E+00 0. -1.
         -2    1    5    5    0  503 -0.32954701118E+01 -0.18762393145E+02 -0.14993316185E+02  0.24242257527E+02  0.00000000000E+00 0.  1.
         -3    1    6    6    0  502 -0.28559066501E+03  0.60553878907E+02 -0.56195065094E+03  0.63325929467E+03  0.00000000000E+00 0.  1.
<mgrwt>
<rscale>  0 0.20128580E+04</rscale>
<asrwt>0</asrwt>
<pdfrwt beam="1">  1        2 0.30299812E+00 0.20128580E+04</pdfrwt>
<pdfrwt beam="2">  1       -2 0.79122430E-01 0.20128580E+04</pdfrwt>
<totfact> 0.91360258E+00</totfact>
</mgrwt>
</event>
<event>
12    1  0.1442183E-007  0.1380850E+04  0.7818608E-02  0.8967798E-01
         -1   -1    0    0    0  501 -0.00000000000E+00  0.00000000000E+00  0.39773842370E+03  0.39773842370E+03  0.00000000000E+00 0.  1.
          1   -1    0    0  501    0  0.00000000000E+00 -0.00000000000E+00 -0.11984933426E+04  0.11984933426E+04  0.00000000000E+00 0. -1.
         23    2    1    2    0    0  0.55190968327E+02  0.10566635186E+03 -0.65288086207E+03  0.66989600156E+03  0.91081347970E+02 0.  0.
        254    2    1    2    0    0 -0.55190968327E+02 -0.10566635186E+03 -0.14787405682E+03  0.92633576473E+03  0.90665307116E+03 0.  0.
        -24    2    4    4    0    0  0.36901954875E+02 -0.45550807728E+03 -0.26910038765E+03  0.53640493281E+03  0.80410637155E+02 0.  0.
         24    2    4    4    0    0 -0.92092923202E+02  0.34984172542E+03  0.12122633084E+03  0.38993083192E+03  0.80497770442E+02 0.  0.
         13    1    3    3    0    0  0.19827595550E+02  0.86927554998E+02 -0.57942845337E+03  0.58624812660E+03  0.00000000000E+00 0. -1.
        -13    1    3    3    0    0  0.35363372776E+02  0.18738796860E+02 -0.73452408696E+02  0.83647874959E+02  0.00000000000E+00 0.  1.
          2    1    6    6  502    0  0.14106392560E+02  0.52879774226E+02  0.10853132178E+02  0.55794724762E+02  0.00000000000E+00 0. -1.
          1    1    5    5  503    0 -0.10875588213E+02 -0.18981195432E+03 -0.14595321413E+03  0.23968562146E+03  0.00000000000E+00 0. -1.
         -2    1    5    5    0  503  0.47777543088E+02 -0.26569612296E+03 -0.12314717353E+03  0.29671931135E+03  0.00000000000E+00 0.  1.
         -1    1    6    6    0  502 -0.10619931576E+03  0.29696195119E+03  0.11037319866E+03  0.33413610716E+03  0.00000000000E+00 0.  1.
<mgrwt>
<rscale>  0 0.13808502E+04</rscale>
<asrwt>0</asrwt>
<pdfrwt beam="1">  1        1 0.18438359E+00 0.13808502E+04</pdfrwt>
<pdfrwt beam="2">  1       -1 0.61190528E-01 0.13808502E+04</pdfrwt>
<totfact> 0.28335417E+01</totfact>
</mgrwt>
</event>
<event>
12    1  0.1442183E-007  0.1244406E+04  0.7818608E-02  0.9074852E-01
          2   -1    0    0  501    0  0.00000000000E+00  0.00000000000E+00  0.72850261617E+03  0.72850261617E+03  0.00000000000E+00 0. -1.
         -2   -1    0    0    0  501 -0.00000000000E+00 -0.00000000000E+00 -0.53141433603E+03  0.53141433603E+03  0.00000000000E+00 0.  1.
         23    2    1    2    0    0  0.14746704669E+03  0.17157708094E+03 -0.82751616818E+02  0.25797392950E+03  0.92290268463E+02 0.  0.
        254    2    1    2    0    0 -0.14746704669E+03 -0.17157708094E+03  0.27983989696E+03  0.10019430227E+04  0.93509049200E+03 0.  0.
        -24    2    4    4    0    0  0.14562923269E+03  0.33320516321E+03  0.92920711246E+02  0.38364997806E+03  0.79495238129E+02 0.  0.
         24    2    4    4    0    0 -0.29309627938E+03 -0.50478224414E+03  0.18691918571E+03  0.61829304464E+03  0.81467564512E+02 0.  0.
         11    1    3    3    0    0  0.19788514306E+02  0.22167276214E+02  0.20373250294E+02  0.36028360506E+02  0.00000000000E+00 0. -1.
        -11    1    3    3    0    0  0.12767853239E+03  0.14940980472E+03 -0.10312486711E+03  0.22194556900E+03  0.00000000000E+00 0.  1.
          4    1    6    6  502    0 -0.25037771218E+02 -0.12628576784E+02  0.16490070905E+02  0.32531421390E+02  0.00000000000E+00 0. -1.
          1    1    5    5  503    0  0.71662724428E+02  0.77282227183E+02  0.18030929483E+02  0.10692615737E+03  0.00000000000E+00 0. -1.
         -2    1    5    5    0  503  0.73966508263E+02  0.25592293602E+03  0.74889781763E+02  0.27672382069E+03  0.00000000000E+00 0.  1.
         -3    1    6    6    0  502 -0.26805850817E+03 -0.49215366736E+03  0.17042911481E+03  0.58576162325E+03  0.00000000000E+00 0.  1.
<mgrwt>
<rscale>  0 0.12444063E+04</rscale>
<asrwt>0</asrwt>
<pdfrwt beam="1">  1        2 0.11207733E+00 0.12444063E+04</pdfrwt>
<pdfrwt beam="2">  1       -2 0.81756052E-01 0.12444063E+04</pdfrwt>
<totfact> 0.50445549E+01</totfact>
</mgrwt>
</event>
<event>
12    1  0.1442183E-007  0.2038148E+04  0.7818608E-02  0.8588990E-01
          1   -1    0    0  501    0  0.00000000000E+00  0.00000000000E+00  0.83313286186E+03  0.83313286186E+03  0.00000000000E+00 0. -1.
         -1   -1    0    0    0  501 -0.00000000000E+00 -0.00000000000E+00 -0.12465142404E+04  0.12465142404E+04  0.00000000000E+00 0.  1.
         23    2    1    2    0    0  0.96720162570E+02  0.87791901849E+02 -0.90479333704E+03  0.91880957821E+03  0.92183785889E+02 0.  0.
        254    2    1    2    0    0 -0.96720162570E+02 -0.87791901849E+02  0.49141195855E+03  0.11608375240E+04  0.10435496329E+04 0.  0.
        -24    2    4    4    0    0 -0.54974658085E+03  0.28950988141E+02  0.15036130690E+03  0.57639610323E+03  0.81021493068E+02 0.  0.
         24    2    4    4    0    0  0.45302641828E+03 -0.11674288999E+03  0.34105065165E+03  0.58444142077E+03  0.79964925442E+02 0.  0.
         11    1    3    3    0    0  0.25960808569E+02 -0.13072578493E+02 -0.31178148674E+03  0.31313344019E+03  0.00000000000E+00 0. -1.
        -11    1    3    3    0    0  0.70759354002E+02  0.10086448034E+03 -0.59301185030E+03  0.60567613802E+03  0.00000000000E+00 0.  1.
          4    1    6    6  502    0  0.13184514031E+03 -0.28406194955E+00  0.11334570841E+03  0.17386912127E+03  0.00000000000E+00 0. -1.
          3    1    5    5  503    0 -0.86823870711E+02  0.19821361703E+02  0.51740527806E+02  0.10299685977E+03  0.00000000000E+00 0. -1.
         -2    1    5    5    0  503 -0.46292271014E+03  0.91296264381E+01  0.98620779091E+02  0.47339924346E+03  0.00000000000E+00 0.  1.
         -3    1    6    6    0  502  0.32118127797E+03 -0.11645882804E+03  0.22770494324E+03  0.41057229951E+03  0.00000000000E+00 0.  1.
<mgrwt>
<rscale>  0 0.20381482E+04</rscale>
<asrwt>0</asrwt>
<pdfrwt beam="1">  1        1 0.12817429E+00 0.20381482E+04</pdfrwt>
<pdfrwt beam="2">  1       -1 0.19177142E+00 0.20381482E+04</pdfrwt>
<totfact> 0.32862335E+00</totfact>
</mgrwt>
</event>
<event>
12    1  0.1442183E-007  0.1138835E+04  0.7818608E-02  0.9168146E-01
          2   -1    0    0  501    0  0.00000000000E+00  0.00000000000E+00  0.63514934306E+03  0.63514934306E+03  0.00000000000E+00 0. -1.
         -2   -1    0    0    0  501 -0.00000000000E+00 -0.00000000000E+00 -0.51048799333E+03  0.51048799333E+03  0.00000000000E+00 0.  1.
         23    2    1    2    0    0 -0.56414164292E+02 -0.61454290737E+02  0.12069008404E+03  0.17031953143E+03  0.86506985942E+02 0.  0.
        254    2    1    2    0    0  0.56414164292E+02  0.61454290737E+02  0.39712656876E+01  0.97531780497E+03  0.97173548971E+03 0.  0.
        -24    2    4    4    0    0  0.12579948482E+03 -0.31486063528E+03 -0.31578660930E+03  0.47012431609E+03  0.79579896522E+02 0.  0.
         24    2    4    4    0    0 -0.69385320531E+02  0.37631492602E+03  0.31975787499E+03  0.50519348888E+03  0.80920432152E+02 0.  0.
         11    1    3    3    0    0 -0.60844823100E+02 -0.24247930036E+01  0.57922201285E+02  0.84041379813E+02  0.00000000000E+00 0.  1.
        -11    1    3    3    0    0  0.44306588082E+01 -0.59029497734E+02  0.62767882758E+02  0.86278151615E+02  0.00000000000E+00 0. -1.
          4    1    6    6  502    0 -0.89870945529E+01  0.65378463476E+01 -0.20334509090E+01  0.11298062930E+02  0.00000000000E+00 0. -1.
          3    1    5    5  503    0  0.30791351345E+02 -0.25181447978E+02 -0.16995228478E+02  0.43255640452E+02  0.00000000000E+00 0. -1.
         -4    1    5    5    0  503  0.95008133478E+02 -0.28967918730E+03 -0.29879138083E+03  0.42686867564E+03  0.00000000000E+00 0.  1.
         -3    1    6    6    0  502 -0.60398225978E+02  0.36977707967E+03  0.32179132590E+03  0.49389542595E+03  0.00000000000E+00 0.  1.
<mgrwt>
<rscale>  0 0.11388347E+04</rscale>
<asrwt>0</asrwt>
<pdfrwt beam="1">  1        2 0.97715284E-01 0.11388347E+04</pdfrwt>
<pdfrwt beam="2">  1       -2 0.78536614E-01 0.11388347E+04</pdfrwt>
<totfact> 0.66068662E+01</totfact>
</mgrwt>
</event>
<event>
12    1  0.1442183E-007  0.1632732E+04  0.7818608E-02  0.8800688E-01
         -2   -1    0    0    0  501 -0.00000000000E+00  0.00000000000E+00  0.30064591341E+03  0.30064591341E+03  0.00000000000E+00 0.  1.
          2   -1    0    0  501    0  0.00000000000E+00 -0.00000000000E+00 -0.22167375790E+04  0.22167375790E+04  0.00000000000E+00 0. -1.
         23    2    1    2    0    0  0.93016078439E+02  0.53738642653E+03 -0.91216638942E+03  0.10673229012E+04  0.98460607476E+02 0.  0.
        254    2    1    2    0    0 -0.93016078439E+02 -0.53738642653E+03 -0.10039252762E+04  0.14500605912E+04  0.89295777936E+03 0.  0.
        -24    2    4    4    0    0 -0.30656321587E+03 -0.69547727672E+03 -0.67583760898E+03  0.10204143831E+04  0.82579608450E+02 0.  0.
         24    2    4    4    0    0  0.21354713743E+03  0.15809085019E+03 -0.32808766720E+03  0.42964620811E+03  0.79744905565E+02 0.  0.
         11    1    3    3    0    0  0.96169277643E+02  0.41078555706E+03 -0.76097042064E+03  0.87009728476E+03  0.00000000000E+00 0. -1.
        -11    1    3    3    0    0 -0.31531992048E+01  0.12660086947E+03 -0.15119596878E+03  0.19722561647E+03  0.00000000000E+00 0.  1.
          4    1    6    6  502    0  0.14505982669E+03  0.97426979112E+02 -0.15371453183E+03  0.23272844019E+03  0.00000000000E+00 0. -1.
          1    1    5    5  503    0 -0.19016926838E+03 -0.40056837324E+03 -0.44522946203E+03  0.62836983229E+03  0.00000000000E+00 0. -1.
         -2    1    5    5    0  503 -0.11639394749E+03 -0.29490890348E+03 -0.23060814695E+03  0.39204455079E+03  0.00000000000E+00 0.  1.
         -3    1    6    6    0  502  0.68487310737E+02  0.60663871075E+02 -0.17437313537E+03  0.19691776792E+03  0.00000000000E+00 0.  1.
<mgrwt>
<rscale>  0 0.16327316E+04</rscale>
<asrwt>0</asrwt>
<pdfrwt beam="1">  1        2 0.34103655E+00 0.16327316E+04</pdfrwt>
<pdfrwt beam="2">  1       -2 0.46253218E-01 0.16327316E+04</pdfrwt>
<totfact> 0.21436154E+01</totfact>
</mgrwt>
</event>
<event>
12    1  0.1442183E-007  0.2337346E+04  0.7818608E-02  0.8463340E-01
          2   -1    0    0  501    0  0.00000000000E+00  0.00000000000E+00  0.20204080973E+04  0.20204080973E+04  0.00000000000E+00 0. -1.
         -2   -1    0    0    0  501 -0.00000000000E+00 -0.00000000000E+00 -0.67600062581E+03  0.67600062581E+03  0.00000000000E+00 0.  1.
         23    2    1    2    0    0 -0.57768027042E+03 -0.16547939647E+03  0.14870522884E+04  0.16061257169E+04  0.84955192434E+02 0.  0.
        254    2    1    2    0    0  0.57768027042E+03  0.16547939647E+03 -0.14264481686E+03  0.10902830062E+04  0.89848292382E+03 0.  0.
        -24    2    4    4    0    0  0.14939247988E+03  0.50248815703E+03 -0.72730964622E+02  0.53537024343E+03  0.80740592841E+02 0.  0.
         24    2    4    4    0    0  0.42828779053E+03 -0.33700876056E+03 -0.69913852236E+02  0.55491276279E+03  0.77684563177E+02 0.  0.
         11    1    3    3    0    0 -0.52910704341E+03 -0.12504352437E+03  0.13299184145E+04  0.14367578556E+04  0.00000000000E+00 0. -1.
        -11    1    3    3    0    0 -0.48573227006E+02 -0.40435872099E+02  0.15713387383E+03  0.16936786130E+03  0.00000000000E+00 0.  1.
          2    1    6    6  502    0  0.35225340318E+03 -0.24558262344E+03 -0.34278627564E+02  0.43077640290E+03  0.00000000000E+00 0. -1.
          1    1    5    5  503    0  0.34489785387E+02  0.25501745625E+03 -0.27548463331E+02  0.25880951706E+03  0.00000000000E+00 0. -1.
         -2    1    5    5    0  503  0.11490269450E+03  0.24747070078E+03 -0.45182501291E+02  0.27656072637E+03  0.00000000000E+00 0.  1.
         -1    1    6    6    0  502  0.76034387359E+02 -0.91426137125E+02 -0.35635224672E+02  0.12413635990E+03  0.00000000000E+00 0.  1.
<mgrwt>
<rscale>  0 0.23373465E+04</rscale>
<asrwt>0</asrwt>
<pdfrwt beam="1">  1        2 0.31083201E+00 0.23373465E+04</pdfrwt>
<pdfrwt beam="2">  1       -2 0.10400010E+00 0.23373465E+04</pdfrwt>
<totfact> 0.44246037E+00</totfact>
</mgrwt>
</event>
<event>
12    1  0.1442183E-007  0.2851914E+04  0.7818608E-02  0.8287330E-01
         -1   -1    0    0    0  501 -0.00000000000E+00  0.00000000000E+00  0.14811041450E+04  0.14811041450E+04  0.00000000000E+00 0.  1.
          1   -1    0    0  501    0  0.00000000000E+00 -0.00000000000E+00 -0.13728635302E+04  0.13728635302E+04  0.00000000000E+00 0. -1.
         23    2    1    2    0    0 -0.56965813039E+03  0.10075563216E+04 -0.49536445941E+03  0.12619916127E+04  0.86929604329E+02 0.  0.
        254    2    1    2    0    0  0.56965813039E+03 -0.10075563216E+04  0.60360507429E+03  0.15919760625E+04  0.91124561525E+03 0.  0.
        -24    2    4    4    0    0  0.71087064119E+03 -0.69374710303E+03  0.13705635424E+03  0.10057619730E+04  0.78425701618E+02 0.  0.
         24    2    4    4    0    0 -0.14121251080E+03 -0.31380921855E+03  0.46654872005E+03  0.58621408951E+03  0.86960058144E+02 0.  0.
         11    1    3    3    0    0 -0.17813369459E+03  0.30394566291E+03 -0.19440496009E+03  0.40237776735E+03  0.00000000000E+00 0.  1.
        -11    1    3    3    0    0 -0.39152443580E+03  0.70361065867E+03 -0.30095949932E+03  0.85961384531E+03  0.00000000000E+00 0. -1.
          4    1    6    6  502    0 -0.93343164920E+02 -0.10666710001E+03  0.17019816101E+03  0.22149092684E+03  0.00000000000E+00 0. -1.
          3    1    5    5  503    0  0.56473456885E+03 -0.57712848472E+03  0.13571788286E+03  0.81879287055E+03  0.00000000000E+00 0. -1.
         -4    1    5    5    0  503  0.14613607234E+03 -0.11661861831E+03  0.13384713815E+01  0.18696910248E+03  0.00000000000E+00 0.  1.
         -3    1    6    6    0  502 -0.47869345884E+02 -0.20714211854E+03  0.29635055904E+03  0.36472316267E+03  0.00000000000E+00 0.  1.
<mgrwt>
<rscale>  0 0.28519144E+04</rscale>
<asrwt>0</asrwt>
<pdfrwt beam="1">  1        1 0.21120977E+00 0.28519144E+04</pdfrwt>
<pdfrwt beam="2">  1       -1 0.22786218E+00 0.28519144E+04</pdfrwt>
<totfact> 0.67490139E-01</totfact>
</mgrwt>
</event>
<event>
12    1  0.1442183E-007  0.1430670E+04  0.7818608E-02  0.8931912E-01
         -2   -1    0    0    0  501 -0.00000000000E+00  0.00000000000E+00  0.24984962660E+04  0.24984962660E+04  0.00000000000E+00 0.  1.
          2   -1    0    0  501    0  0.00000000000E+00 -0.00000000000E+00 -0.20480490142E+03  0.20480490142E+03  0.00000000000E+00 0. -1.
         23    2    1    2    0    0 -0.46070540266E+02  0.35681982953E+03  0.11612422767E+04  0.12193568805E+04  0.94364671883E+02 0.  0.
        254    2    1    2    0    0  0.46070540266E+02 -0.35681982953E+03  0.11324490879E+04  0.14839442870E+04  0.88893578213E+03 0.  0.
        -24    2    4    4    0    0  0.20822001846E+03 -0.50756480728E+03  0.32369744454E+03  0.64177478615E+03  0.78212728196E+02 0.  0.
         24    2    4    4    0    0 -0.16214947820E+03  0.15074497775E+03  0.80875164334E+03  0.84216950082E+03  0.78445815098E+02 0.  0.
         13    1    3    3    0    0 -0.14468511144E+02  0.56332879218E+01  0.96677897942E+02  0.97916738599E+02  0.00000000000E+00 0. -1.
        -13    1    3    3    0    0 -0.31602029122E+02  0.35118654161E+03  0.10645643788E+04  0.11214401419E+04  0.00000000000E+00 0.  1.
          2    1    6    6  502    0 -0.10203802086E+02 -0.61059382882E+01  0.95444251230E+02  0.96182145704E+02  0.00000000000E+00 0. -1.
          1    1    5    5  503    0  0.11279989569E+03 -0.21314780007E+03  0.10621966172E+03  0.26351170311E+03  0.00000000000E+00 0. -1.
         -2    1    5    5    0  503  0.95420122778E+02 -0.29441700722E+03  0.21747778282E+03  0.37826308304E+03  0.00000000000E+00 0.  1.
         -3    1    6    6    0  502 -0.15194567611E+03  0.15685091604E+03  0.71330739211E+03  0.74598735511E+03  0.00000000000E+00 0.  1.
<mgrwt>
<rscale>  0 0.14306702E+04</rscale>
<asrwt>0</asrwt>
<pdfrwt beam="1">  1        2 0.31508448E-01 0.14306702E+04</pdfrwt>
<pdfrwt beam="2">  1       -2 0.38438402E+00 0.14306702E+04</pdfrwt>
<totfact> 0.15507001E+00</totfact>
</mgrwt>
</event>
<event>
12    1  0.1442183E-007  0.2475774E+04  0.7818608E-02  0.8411667E-01
          2   -1    0    0  501    0  0.00000000000E+00  0.00000000000E+00  0.26238245766E+04  0.26238245766E+04  0.00000000000E+00 0. -1.
         -2   -1    0    0    0  501 -0.00000000000E+00 -0.00000000000E+00 -0.58401910428E+03  0.58401910428E+03  0.00000000000E+00 0.  1.
         23    2    1    2    0    0 -0.51187199761E+03 -0.59803890987E+02  0.21020601027E+04  0.21662128588E+04  0.90730518532E+02 0.  0.
        254    2    1    2    0    0  0.51187199761E+03  0.59803890987E+02 -0.62254630387E+02  0.10416308221E+04  0.90306682098E+03 0.  0.
        -24    2    4    4    0    0  0.25731140069E+03 -0.21312334550E+02 -0.47223943651E+03  0.54422211198E+03  0.80648925856E+02 0.  0.
         24    2    4    4    0    0  0.25456059692E+03  0.81116225536E+02  0.40998480612E+03  0.49740871009E+03  0.89145634081E+02 0.  0.
         13    1    3    3    0    0 -0.50478388144E+03 -0.55930986718E+02  0.20943406465E+04  0.21550400891E+04  0.00000000000E+00 0. -1.
        -13    1    3    3    0    0 -0.70881161684E+01 -0.38729042686E+01  0.77194562535E+01  0.11172769717E+02  0.00000000000E+00 0.  1.
          2    1    6    6  502    0  0.21463906038E+02 -0.97634163841E+01  0.79386124113E+02  0.82814130821E+02  0.00000000000E+00 0. -1.
          1    1    5    5  503    0  0.50551010812E+02 -0.34677328700E+02 -0.13753455672E+03  0.15057780751E+03  0.00000000000E+00 0. -1.
         -2    1    5    5    0  503  0.20676038988E+03  0.13364994150E+02 -0.33470487978E+03  0.39364430447E+03  0.00000000000E+00 0.  1.
         -1    1    6    6    0  502  0.23309669088E+03  0.90879641920E+02  0.33059868201E+03  0.41459457927E+03  0.00000000000E+00 0.  1.
<mgrwt>
<rscale>  0 0.24757736E+04</rscale>
<asrwt>0</asrwt>
<pdfrwt beam="1">  1        2 0.40366531E+00 0.24757736E+04</pdfrwt>
<pdfrwt beam="2">  1       -2 0.89849095E-01 0.24757736E+04</pdfrwt>
<totfact> 0.27932356E+00</totfact>
</mgrwt>
</event>
<event>
12    1  0.1442183E-007  0.9366951E+03  0.7818608E-02  0.9380839E-01
          1   -1    0    0  501    0  0.00000000000E+00  0.00000000000E+00  0.61324056383E+03  0.61324056383E+03  0.00000000000E+00 0. -1.
         -1   -1    0    0    0  501 -0.00000000000E+00 -0.00000000000E+00 -0.35768905723E+03  0.35768905723E+03  0.00000000000E+00 0.  1.
         23    2    1    2    0    0 -0.50742844539E+02 -0.21999671836E+01  0.10145138167E+03  0.14613858325E+03  0.92110946926E+02 0.  0.
        254    2    1    2    0    0  0.50742844539E+02  0.21999671836E+01  0.15410012493E+03  0.82479103782E+03  0.80867405760E+03 0.  0.
        -24    2    4    4    0    0  0.39312706846E+03  0.98149622782E+02 -0.33829405595E+02  0.41487336408E+03  0.82421108568E+02 0.  0.
         24    2    4    4    0    0 -0.34238422392E+03 -0.95949655598E+02  0.18792953052E+03  0.40991767373E+03  0.79257161194E+02 0.  0.
         11    1    3    3    0    0 -0.10362663428E+02 -0.44863928940E+02  0.50925993424E+02  0.68655762464E+02  0.00000000000E+00 0. -1.
        -11    1    3    3    0    0 -0.40380181112E+02  0.42663961756E+02  0.50525388247E+02  0.77482820786E+02  0.00000000000E+00 0.  1.
          4    1    6    6  502    0 -0.75884763751E+02 -0.54968989670E+02  0.35641586804E+02  0.10025173268E+03  0.00000000000E+00 0. -1.
          1    1    5    5  503    0  0.20629914734E+03  0.83411824987E+02  0.87232919918E+01  0.22269478342E+03  0.00000000000E+00 0. -1.
         -2    1    5    5    0  503  0.18682792112E+03  0.14737797795E+02 -0.42552697587E+02  0.19217858066E+03  0.00000000000E+00 0.  1.
         -3    1    6    6    0  502 -0.26649946017E+03 -0.40980665929E+02  0.15228794372E+03  0.30966594106E+03  0.00000000000E+00 0.  1.
<mgrwt>
<rscale>  0 0.93669512E+03</rscale>
<asrwt>0</asrwt>
<pdfrwt beam="1">  1        1 0.94344702E-01 0.93669512E+03</pdfrwt>
<pdfrwt beam="2">  1       -1 0.55029086E-01 0.93669512E+03</pdfrwt>
<totfact> 0.11140752E+02</totfact>
</mgrwt>
</event>
<event>
12    1  0.1442183E-007  0.2525565E+04  0.7818608E-02  0.8393934E-01
         -2   -1    0    0    0  501 -0.00000000000E+00  0.00000000000E+00  0.98330971889E+03  0.98330971889E+03  0.00000000000E+00 0. -1.
          2   -1    0    0  501    0  0.00000000000E+00 -0.00000000000E+00 -0.16216854913E+04  0.16216854913E+04  0.00000000000E+00 0.  1.
         23    2    1    2    0    0  0.10646305304E+04  0.27817884305E+03 -0.22189581137E+03  0.11261108690E+04  0.89812600886E+02 0.  0.
        254    2    1    2    0    0 -0.10646305304E+04 -0.27817884305E+03 -0.41647996100E+03  0.14788843411E+04  0.89600318172E+03 0.  0.
        -24    2    4    4    0    0 -0.97500483775E+03 -0.32805960612E+03  0.10516332300E+02  0.10317749908E+04  0.78686082061E+02 0.  0.
         24    2    4    4    0    0 -0.89625692615E+02  0.49880763066E+02 -0.42699629330E+03  0.44710935038E+03  0.84024290542E+02 0.  0.
         13    1    3    3    0    0  0.45613278305E+03  0.13092129917E+03 -0.51901900165E+02  0.47737962837E+03  0.00000000000E+00 0. -1.
        -13    1    3    3    0    0  0.60849774732E+03  0.14725754389E+03 -0.16999391121E+03  0.64873124063E+03  0.00000000000E+00 0.  1.
          2    1    6    6  502    0 -0.85584838719E+02  0.62756539415E+02 -0.41705921928E+03  0.43035048536E+03  0.00000000000E+00 0. -1.
          3    1    5    5  503    0 -0.96328195993E+03 -0.32477252982E+03  0.19335426379E+02  0.10167414564E+04  0.00000000000E+00 0. -1.
         -4    1    5    5    0  503 -0.11722877824E+02 -0.32870763032E+01 -0.88190940786E+01  0.15033534364E+02  0.00000000000E+00 0.  1.
         -1    1    6    6    0  502 -0.40408538962E+01 -0.12875776348E+02 -0.99370740225E+01  0.16758865025E+02  0.00000000000E+00 0.  1.
<mgrwt>
<rscale>  0 0.25255646E+04</rscale>
<asrwt>0</asrwt>
<pdfrwt beam="1">  1        2 0.24949007E+00 0.25255646E+04</pdfrwt>
<pdfrwt beam="2">  1       -2 0.15127842E+00 0.25255646E+04</pdfrwt>
<totfact> 0.28278407E+00</totfact>
</mgrwt>
</event>
<event>
12    1  0.1442183E-007  0.2332127E+04  0.7818608E-02  0.8465361E-01
          2   -1    0    0  501    0  0.00000000000E+00  0.00000000000E+00  0.19242242808E+04  0.19242242808E+04  0.00000000000E+00 0. -1.
         -2   -1    0    0    0  501 -0.00000000000E+00 -0.00000000000E+00 -0.70662440878E+03  0.70662440878E+03  0.00000000000E+00 0.  1.
         23    2    1    2    0    0 -0.60198974078E+02  0.90057932750E+03  0.60603935772E+02  0.90924011898E+03  0.91529860351E+02 0.  0.
        254    2    1    2    0    0  0.60198974078E+02 -0.90057932750E+03  0.11569959362E+04  0.17216085706E+04  0.90034961667E+03 0.  0.
        -24    2    4    4    0    0  0.21392884452E+03 -0.58804770951E+03  0.14360401886E+03  0.64698497060E+03  0.80011116579E+02 0.  0.
         24    2    4    4    0    0 -0.15372987044E+03 -0.31253161799E+03  0.10133919173E+04  0.10746236000E+04  0.80893869639E+02 0.  0.
         13    1    3    3    0    0  0.21865674082E+02  0.16005835662E+03  0.23680984717E+02  0.16327147413E+03  0.00000000000E+00 0. -1.
        -13    1    3    3    0    0 -0.82064648160E+02  0.74052097088E+03  0.36922951055E+02  0.74596864485E+03  0.00000000000E+00 0.  1.
          2    1    6    6  502    0 -0.11231378841E+03 -0.27496693833E+03  0.78028989448E+03  0.83490929068E+03  0.00000000000E+00 0. -1.
          1    1    5    5  503    0  0.10931872062E+03 -0.23050507838E+03  0.26529051386E+02  0.25648969649E+03  0.00000000000E+00 0. -1.
         -2    1    5    5    0  503  0.10461012390E+03 -0.35754263113E+03  0.11707496748E+03  0.39049527412E+03  0.00000000000E+00 0.  1.
         -3    1    6    6    0  502 -0.41416082031E+02 -0.37564679655E+02  0.23310202286E+03  0.23971430927E+03  0.00000000000E+00 0.  1.
<mgrwt>
<rscale>  0 0.23321268E+04</rscale>
<asrwt>0</asrwt>
<pdfrwt beam="1">  1        2 0.29603450E+00 0.23321268E+04</pdfrwt>
<pdfrwt beam="2">  1       -2 0.10871145E+00 0.23321268E+04</pdfrwt>
<totfact> 0.45002119E+00</totfact>
</mgrwt>
</event>
<event>
12    1  0.1442183E-007  0.1140593E+04  0.7818608E-02  0.9166506E-01
         -2   -1    0    0    0  501 -0.00000000000E+00  0.00000000000E+00  0.69465826103E+03  0.69465826103E+03  0.00000000000E+00 0.  1.
          2   -1    0    0  501    0  0.00000000000E+00 -0.00000000000E+00 -0.46819856039E+03  0.46819856039E+03  0.00000000000E+00 0. -1.
         23    2    1    2    0    0  0.15131079316E+01  0.13155573504E+03 -0.11018546059E+03  0.19388140803E+03  0.90221747597E+02 0.  0.
        254    2    1    2    0    0 -0.15131079316E+01 -0.13155573504E+03  0.33664516123E+03  0.96897541339E+03  0.89904070334E+03 0.  0.
        -24    2    4    4    0    0  0.42432632037E+03 -0.62196471778E+02  0.36690163340E+02  0.43767986237E+03  0.79349017505E+02 0.  0.
         24    2    4    4    0    0 -0.42583942830E+03 -0.69359263259E+02  0.29995499789E+03  0.53129555102E+03  0.78434913659E+02 0.  0.
         11    1    3    3    0    0  0.14820597218E+02  0.37216608667E+02  0.92381675921E+01  0.41110458560E+02  0.00000000000E+00 0.  1.
        -11    1    3    3    0    0 -0.13307489287E+02  0.94339126369E+02 -0.11942362818E+03  0.15277094947E+03  0.00000000000E+00 0. -1.
          2    1    6    6  502    0 -0.14008109928E+03  0.55319406506E+01  0.12588447660E+03  0.18841501583E+03  0.00000000000E+00 0. -1.
          1    1    5    5  503    0  0.44995970524E+02 -0.27561387767E+02 -0.10683919064E+02  0.53836916568E+02  0.00000000000E+00 0. -1.
         -2    1    5    5    0  503  0.37933034984E+03 -0.34635084011E+02  0.47374082404E+02  0.38384294580E+03  0.00000000000E+00 0.  1.
         -1    1    6    6    0  502 -0.28575832902E+03 -0.74891203909E+02  0.17407052129E+03  0.34288053519E+03  0.00000000000E+00 0.  1.
<mgrwt>
<rscale>  0 0.11405928E+04</rscale>
<asrwt>0</asrwt>
<pdfrwt beam="1">  1        2 0.72030548E-01 0.11405928E+04</pdfrwt>
<pdfrwt beam="2">  1       -2 0.10687050E+00 0.11405928E+04</pdfrwt>
<totfact> 0.46369949E+01</totfact>
</mgrwt>
</event>
<event>
12    1  0.1442183E-007  0.1224539E+04  0.7818608E-02  0.9091645E-01
         -2   -1    0    0    0  501 -0.00000000000E+00  0.00000000000E+00  0.27593153503E+03  0.27593153503E+03  0.00000000000E+00 0. -1.
          2   -1    0    0  501    0  0.00000000000E+00 -0.00000000000E+00 -0.13585752793E+04  0.13585752793E+04  0.00000000000E+00 0.  1.
         23    2    1    2    0    0 -0.81573237269E+02 -0.26074495013E+03 -0.24811981079E+03  0.38065828820E+03  0.93247894402E+02 0.  0.
        254    2    1    2    0    0  0.81573237269E+02  0.26074495013E+03 -0.83452393343E+03  0.12538485261E+04  0.89502168066E+03 0.  0.
        -24    2    4    4    0    0  0.14963199064E+03  0.65436956110E+02 -0.97415666105E+03  0.99140149234E+03  0.84994063947E+02 0.  0.
         24    2    4    4    0    0 -0.68058753373E+02  0.19530799402E+03  0.13963272761E+03  0.26244703375E+03  0.81264632302E+02 0.  0.
         11    1    3    3    0    0 -0.78164340190E+02 -0.26380919442E+03 -0.25312744835E+03  0.37386957652E+03  0.00000000000E+00 0.  1.
        -11    1    3    3    0    0 -0.34088970794E+01  0.30642442905E+01  0.50076375579E+01  0.67887116805E+01  0.00000000000E+00 0. -1.
          4    1    6    6  502    0 -0.46762846681E+02  0.11165671670E+03  0.12657864975E+03  0.17514605559E+03  0.00000000000E+00 0. -1.
          1    1    5    5  503    0  0.12642510782E+03  0.72561652492E+02 -0.92671675404E+03  0.93811110404E+03  0.00000000000E+00 0. -1.
         -2    1    5    5    0  503  0.23206882818E+02 -0.71246963818E+01 -0.47439907003E+02  0.53290388300E+02  0.00000000000E+00 0.  1.
         -3    1    6    6    0  502 -0.21295906692E+02  0.83651277320E+02  0.13054077859E+02  0.87300978161E+02  0.00000000000E+00 0.  1.
<mgrwt>
<rscale>  0 0.12245387E+04</rscale>
<asrwt>0</asrwt>
<pdfrwt beam="1">  1        2 0.20901158E+00 0.12245387E+04</pdfrwt>
<pdfrwt beam="2">  1       -2 0.42451005E-01 0.12245387E+04</pdfrwt>
<totfact> 0.79174112E+01</totfact>
</mgrwt>
</event>
<event>
12    1  0.1442183E-007  0.2621489E+04  0.7818608E-02  0.8360938E-01
          1   -1    0    0  501    0  0.00000000000E+00  0.00000000000E+00  0.79741110048E+03  0.79741110048E+03  0.00000000000E+00 0. -1.
         -1   -1    0    0    0  501 -0.00000000000E+00 -0.00000000000E+00 -0.21545361981E+04  0.21545361981E+04  0.00000000000E+00 0.  1.
         23    2    1    2    0    0 -0.53031433060E+03  0.33361225341E+03  0.49287318834E+03  0.80268967403E+03  0.94107960069E+02 0.  0.
        254    2    1    2    0    0  0.53031433060E+03 -0.33361225341E+03 -0.18499982860E+04  0.21492576246E+04  0.89681896377E+03 0.  0.
        -24    2    4    4    0    0 -0.95717240837E+02 -0.42034367901E+03 -0.95206556638E+03  0.10482767383E+04  0.81269174438E+02 0.  0.
         24    2    4    4    0    0  0.62603157144E+03  0.86731425600E+02 -0.89793271960E+03  0.11009808863E+04  0.80236365609E+02 0.  0.
         13    1    3    3    0    0 -0.45300295535E+03  0.26320590983E+03  0.44622444729E+03  0.68818986180E+03  0.00000000000E+00 0. -1.
        -13    1    3    3    0    0 -0.77311375247E+02  0.70406343587E+02  0.46648741052E+02  0.11449981223E+03  0.00000000000E+00 0.  1.
          2    1    6    6  502    0  0.24733482704E+02  0.18604544821E+02 -0.58230657921E+02  0.65944550772E+02  0.00000000000E+00 0. -1.
          3    1    5    5  503    0  0.13616002903E+02 -0.53097926018E+02 -0.10058814395E+03  0.11455461573E+03  0.00000000000E+00 0. -1.
         -4    1    5    5    0  503 -0.10933324374E+03 -0.36724575300E+03 -0.85147742243E+03  0.93372212258E+03  0.00000000000E+00 0.  1.
         -1    1    6    6    0  502  0.60129808873E+03  0.68126880779E+02 -0.83970206168E+03  0.10350363355E+04  0.00000000000E+00 0.  1.
<mgrwt>
<rscale>  0 0.26214890E+04</rscale>
<asrwt>0</asrwt>
<pdfrwt beam="1">  1        1 0.12267863E+00 0.26214890E+04</pdfrwt>
<pdfrwt beam="2">  1       -1 0.33146710E+00 0.26214890E+04</pdfrwt>
<totfact> 0.40231840E-01</totfact>
</mgrwt>
</event>
<event>
12    1  0.1442183E-007  0.1556714E+04  0.7818608E-02  0.8847590E-01
         -2   -1    0    0    0  501 -0.00000000000E+00  0.00000000000E+00  0.65352485181E+03  0.65352485181E+03  0.00000000000E+00 0.  1.
          2   -1    0    0  501    0  0.00000000000E+00 -0.00000000000E+00 -0.92703418477E+03  0.92703418477E+03  0.00000000000E+00 0. -1.
         23    2    1    2    0    0 -0.19233615892E+03 -0.27645839871E+03 -0.50136256266E+03  0.61236059310E+03  0.10098827902E+03 0.  0.
        254    2    1    2    0    0  0.19233615892E+03  0.27645839871E+03  0.22785322971E+03  0.96819844348E+03  0.87867439216E+03 0.  0.
        -24    2    4    4    0    0 -0.33110886786E+03  0.11036383419E+02  0.14375028986E+03  0.36991361733E+03  0.80106518588E+02 0.  0.
         24    2    4    4    0    0  0.52344502678E+03  0.26542201529E+03  0.84102939852E+02  0.59828482615E+03  0.80174100870E+02 0.  0.
         13    1    3    3    0    0 -0.14709038391E+03 -0.24214742228E+03 -0.46629618283E+03  0.54562174194E+03  0.00000000000E+00 0. -1.
        -13    1    3    3    0    0 -0.45245775010E+02 -0.34310976430E+02 -0.35066379831E+02  0.66738851161E+02  0.00000000000E+00 0.  1.
          4    1    6    6  502    0  0.12471503892E+03  0.27023986849E+02  0.12222371318E+02  0.12819330387E+03  0.00000000000E+00 0. -1.
          3    1    5    5  503    0 -0.37268433914E+02  0.25030243968E+02  0.67328912353E+01  0.45395826943E+02  0.00000000000E+00 0. -1.
         -4    1    5    5    0  503 -0.29384043395E+03 -0.13993860549E+02  0.13701739862E+03  0.32451779039E+03  0.00000000000E+00 0.  1.
         -1    1    6    6    0  502  0.39872998786E+03  0.23839802844E+03  0.71880568534E+02  0.47009152228E+03  0.00000000000E+00 0.  1.
<mgrwt>
<rscale>  0 0.15567143E+04</rscale>
<asrwt>0</asrwt>
<pdfrwt beam="1">  1        2 0.14262064E+00 0.15567143E+04</pdfrwt>
<pdfrwt beam="2">  1       -2 0.10054228E+00 0.15567143E+04</pdfrwt>
<totfact> 0.22065154E+01</totfact>
</mgrwt>
</event>
<event>
12    1  0.1442183E-007  0.1257770E+04  0.7818608E-02  0.9063741E-01
          1   -1    0    0  501    0  0.00000000000E+00  0.00000000000E+00  0.43295198770E+03  0.43295198770E+03  0.00000000000E+00 0. -1.
         -1   -1    0    0    0  501 -0.00000000000E+00 -0.00000000000E+00 -0.91348750351E+03  0.91348750351E+03  0.00000000000E+00 0.  1.
         23    2    1    2    0    0  0.22687647639E+03 -0.77711588043E+02  0.10018816492E+03  0.27577427856E+03  0.92204977455E+02 0.  0.
        254    2    1    2    0    0 -0.22687647639E+03  0.77711588043E+02 -0.58072368073E+03  0.10706652127E+04  0.86693251050E+03 0.  0.
        -24    2    4    4    0    0 -0.17208723566E+03  0.43790311254E+03 -0.49461377051E+03  0.68771478795E+03  0.83280819767E+02 0.  0.
         24    2    4    4    0    0 -0.54789240736E+02 -0.36019152450E+03 -0.86109910218E+02  0.38295042470E+03  0.80599726541E+02 0.  0.
         13    1    3    3    0    0 -0.14384267262E+01  0.97178039185E+01 -0.31974047317E+01  0.10330933233E+02  0.00000000000E+00 0.  1.
        -13    1    3    3    0    0  0.22831490312E+03 -0.87429391962E+02  0.10338556965E+03  0.26544334532E+03  0.00000000000E+00 0. -1.
          4    1    6    6  502    0 -0.18509752442E+02 -0.13667285591E+03 -0.73192530957E+02  0.15613848682E+03  0.00000000000E+00 0. -1.
          1    1    5    5  503    0  0.95770735840E+00  0.66685276537E+02 -0.89724320202E+02  0.11179578233E+03  0.00000000000E+00 0. -1.
         -2    1    5    5    0  503 -0.17304494302E+03  0.37121783600E+03 -0.40488945031E+03  0.57591900563E+03  0.00000000000E+00 0.  1.
         -3    1    6    6    0  502 -0.36279488294E+02 -0.22351866858E+03 -0.12917379261E+02  0.22681193788E+03  0.00000000000E+00 0.  1.
<mgrwt>
<rscale>  0 0.12577698E+04</rscale>
<asrwt>0</asrwt>
<pdfrwt beam="1">  1        1 0.66607999E-01 0.12577698E+04</pdfrwt>
<pdfrwt beam="2">  1       -1 0.14053654E+00 0.12577698E+04</pdfrwt>
<totfact> 0.22069457E+01</totfact>
</mgrwt>
</event>
<event>
12    1  0.1442183E-007  0.1314281E+04  0.7818608E-02  0.9018316E-01
         -1   -1    0    0    0  501 -0.00000000000E+00  0.00000000000E+00  0.24699512829E+03  0.24699512829E+03  0.00000000000E+00 0.  1.
          1   -1    0    0  501    0  0.00000000000E+00 -0.00000000000E+00 -0.17483498874E+04  0.17483498874E+04  0.00000000000E+00 0. -1.
         23    2    1    2    0    0 -0.14474464255E+03  0.50512353030E+02  0.60111313017E+02  0.18828246637E+03  0.91292978022E+02 0.  0.
        254    2    1    2    0    0  0.14474464255E+03 -0.50512353030E+02 -0.15614660722E+04  0.18070625493E+04  0.89654684951E+03 0.  0.
        -24    2    4    4    0    0  0.48549221252E+02 -0.19884677628E+02 -0.16481682827E+04  0.16509338986E+04  0.79822439912E+02 0.  0.
         24    2    4    4    0    0  0.96195421296E+02 -0.30627675402E+02  0.86702210576E+02  0.15612865078E+03  0.81653344673E+02 0.  0.
         11    1    3    3    0    0 -0.14353024121E+03  0.68538760046E+02  0.60600866584E+02  0.17020856853E+03  0.00000000000E+00 0.  1.
        -11    1    3    3    0    0 -0.12144013379E+01 -0.18026407017E+02 -0.48955356689E+00  0.18073897843E+02  0.00000000000E+00 0. -1.
          2    1    6    6  502    0  0.14059728314E+02  0.11655941296E+02 -0.11278300279E+02  0.21464784763E+02  0.00000000000E+00 0. -1.
          3    1    5    5  503    0  0.27941709103E+01 -0.28338785369E+02 -0.19986809784E+03  0.20188647969E+03  0.00000000000E+00 0. -1.
         -4    1    5    5    0  503  0.45755050342E+02  0.84541077411E+01 -0.14483001849E+04  0.14490474189E+04  0.00000000000E+00 0.  1.
         -1    1    6    6    0  502  0.82135692982E+02 -0.42283616698E+02  0.97980510855E+02  0.13466386602E+03  0.00000000000E+00 0.  1.
<mgrwt>
<rscale>  0 0.13142814E+04</rscale>
<asrwt>0</asrwt>
<pdfrwt beam="1">  1        1 0.26897690E+00 0.13142814E+04</pdfrwt>
<pdfrwt beam="2">  1       -1 0.37999251E-01 0.13142814E+04</pdfrwt>
<totfact> 0.29010099E+01</totfact>
</mgrwt>
</event>
<event>
12    1  0.1442183E-007  0.2236433E+04  0.7818608E-02  0.8503415E-01
          2   -1    0    0  501    0  0.00000000000E+00  0.00000000000E+00  0.11696881948E+04  0.11696881948E+04  0.00000000000E+00 0.  1.
         -2   -1    0    0    0  501 -0.00000000000E+00 -0.00000000000E+00 -0.10690098979E+04  0.10690098979E+04  0.00000000000E+00 0. -1.
         23    2    1    2    0    0 -0.88937145331E+03  0.15780677609E+03  0.23012085001E+03  0.93681958767E+03  0.93759125866E+02 0.  0.
        254    2    1    2    0    0  0.88937145331E+03 -0.15780677609E+03 -0.12944255313E+03  0.13018785050E+04  0.92857294094E+03 0.  0.
        -24    2    4    4    0    0  0.81125479477E+03  0.22605972272E+03  0.81220156698E+02  0.84992943879E+03  0.80907334593E+02 0.  0.
         24    2    4    4    0    0  0.78116658542E+02 -0.38386649881E+03 -0.21066270982E+03  0.45194906620E+03  0.80146614893E+02 0.  0.
         13    1    3    3    0    0 -0.71750247361E+03  0.14708729638E+03  0.15348068957E+03  0.74833200818E+03  0.00000000000E+00 0.  1.
        -13    1    3    3    0    0 -0.17186897970E+03  0.10719479705E+02  0.76640160447E+02  0.18848757949E+03  0.00000000000E+00 0. -1.
          2    1    6    6  502    0 -0.71421917971E+01 -0.89025671420E+02 -0.73966490918E+02  0.11596388599E+03  0.00000000000E+00 0. -1.
          3    1    5    5  503    0  0.62000765686E+02 -0.16705723588E+01  0.16390264907E+02  0.64152369725E+02  0.00000000000E+00 0. -1.
         -4    1    5    5    0  503  0.74925402909E+03  0.22773029508E+03  0.64829891791E+02  0.78577706906E+03  0.00000000000E+00 0.  1.
         -1    1    6    6    0  502  0.85258850339E+02 -0.29484082739E+03 -0.13669621891E+03  0.33598518021E+03  0.00000000000E+00 0.  1.
<mgrwt>
<rscale>  0 0.22364331E+04</rscale>
<asrwt>0</asrwt>
<pdfrwt beam="1">  1        2 0.17995203E+00 0.22364331E+04</pdfrwt>
<pdfrwt beam="2">  1       -2 0.16446306E+00 0.22364331E+04</pdfrwt>
<totfact> 0.42051885E+00</totfact>
</mgrwt>
</event>
<event>
12    1  0.1442183E-007  0.1383672E+04  0.7818608E-02  0.8965723E-01
          1   -1    0    0  501    0  0.00000000000E+00  0.00000000000E+00  0.12387354908E+04  0.12387354908E+04  0.00000000000E+00 0. -1.
         -1   -1    0    0    0  501 -0.00000000000E+00 -0.00000000000E+00 -0.38639182751E+03  0.38639182751E+03  0.00000000000E+00 0.  1.
         23    2    1    2    0    0 -0.87847408147E+02  0.89063095935E+02 -0.18465730684E+03  0.24094685339E+03  0.91146382329E+02 0.  0.
        254    2    1    2    0    0  0.87847408147E+02 -0.89063095935E+02  0.10370009702E+04  0.13841804650E+04  0.90825940418E+03 0.  0.
        -24    2    4    4    0    0  0.10720174035E+03  0.38000022055E+03  0.67087069236E+03  0.78259195513E+03  0.80562408191E+02 0.  0.
         24    2    4    4    0    0 -0.19354332206E+02 -0.46906331649E+03  0.36613027781E+03  0.60158850984E+03  0.86385009052E+02 0.  0.
         11    1    3    3    0    0 -0.54338683561E+01  0.97075660597E+01  0.10129756097E+02  0.15045787540E+02  0.00000000000E+00 0. -1.
        -11    1    3    3    0    0 -0.82413539791E+02  0.79355529876E+02 -0.19478706294E+03  0.22590106585E+03  0.00000000000E+00 0.  1.
          4    1    6    6  502    0 -0.50309196354E+02 -0.37084616453E+03  0.29264968563E+03  0.47508076312E+03  0.00000000000E+00 0. -1.
          3    1    5    5  503    0  0.10241032363E+03  0.22454106955E+03  0.38977771462E+03  0.46133852333E+03  0.00000000000E+00 0. -1.
         -4    1    5    5    0  503  0.47914167250E+01  0.15545915100E+03  0.28109297774E+03  0.32125343180E+03  0.00000000000E+00 0.  1.
         -3    1    6    6    0  502  0.30954864147E+02 -0.98217151960E+02  0.73480592177E+02  0.12650774672E+03  0.00000000000E+00 0.  1.
<mgrwt>
<rscale>  0 0.13836723E+04</rscale>
<asrwt>0</asrwt>
<pdfrwt beam="1">  1        1 0.19057469E+00 0.13836723E+04</pdfrwt>
<pdfrwt beam="2">  1       -1 0.59444897E-01 0.13836723E+04</pdfrwt>
<totfact> 0.28043985E+01</totfact>
</mgrwt>
</event>
<event>
12    1  0.1442183E-007  0.1655155E+04  0.7818608E-02  0.8787363E-01
         -1   -1    0    0    0  501 -0.00000000000E+00  0.00000000000E+00  0.95972318686E+03  0.95972318686E+03  0.00000000000E+00 0. -1.
          1   -1    0    0  501    0  0.00000000000E+00 -0.00000000000E+00 -0.71362685628E+03  0.71362685628E+03  0.00000000000E+00 0.  1.
         23    2    1    2    0    0 -0.21576778507E+03  0.82987797900E+02 -0.44771986677E+03  0.51210069324E+03  0.91385607413E+02 0.  0.
        254    2    1    2    0    0  0.21576778507E+03 -0.82987797900E+02  0.69381619735E+03  0.11612493499E+04  0.90204014615E+03 0.  0.
        -24    2    4    4    0    0 -0.21797744972E+03 -0.32083249055E+03  0.15508057321E+03  0.42517576642E+03  0.79226211478E+02 0.  0.
         24    2    4    4    0    0  0.43374523479E+03  0.23784469265E+03  0.53873562414E+03  0.73607358348E+03  0.82844559557E+02 0.  0.
         11    1    3    3    0    0 -0.46856613367E+01 -0.14386842998E+02 -0.17825530761E+02  0.23381322044E+02  0.00000000000E+00 0. -1.
        -11    1    3    3    0    0 -0.21108212373E+03  0.97374640898E+02 -0.42989433601E+03  0.48871937120E+03  0.00000000000E+00 0.  1.
          4    1    6    6  502    0  0.41180597491E+03  0.23128990980E+03  0.53360117128E+03  0.71260746090E+03  0.00000000000E+00 0. -1.
          1    1    5    5  503    0 -0.12858836337E+03 -0.23732674667E+03  0.79515980792E+02  0.28139250715E+03  0.00000000000E+00 0. -1.
         -4    1    5    5    0  503 -0.89389086348E+02 -0.83505743887E+02  0.75564592419E+02  0.14378325927E+03  0.00000000000E+00 0.  1.
         -3    1    6    6    0  502  0.21939259881E+02  0.65547828493E+01  0.51344528603E+01  0.23466122570E+02  0.00000000000E+00 0.  1.
<mgrwt>
<rscale>  0 0.16551547E+04</rscale>
<asrwt>0</asrwt>
<pdfrwt beam="1">  1        1 0.10978875E+00 0.16551547E+04</pdfrwt>
<pdfrwt beam="2">  1       -1 0.14764972E+00 0.16551547E+04</pdfrwt>
<totfact> 0.91992006E+00</totfact>
</mgrwt>
</event>
<event>
12    1  0.1442183E-007  0.1652913E+04  0.7818608E-02  0.8788685E-01
         -2   -1    0    0    0  501 -0.00000000000E+00  0.00000000000E+00  0.13611345967E+04  0.13611345967E+04  0.00000000000E+00 0.  1.
          2   -1    0    0  501    0  0.00000000000E+00 -0.00000000000E+00 -0.50180978899E+03  0.50180978899E+03  0.00000000000E+00 0. -1.
         23    2    1    2    0    0  0.30063023213E+03  0.16451799434E+03  0.82646731282E+03  0.89946856968E+03  0.92470437113E+02 0.  0.
        254    2    1    2    0    0 -0.30063023213E+03 -0.16451799434E+03  0.32857494935E+02  0.96347581605E+03  0.89986739368E+03 0.  0.
        -24    2    4    4    0    0 -0.19872426303E+03 -0.40817655904E+03  0.32336835284E+03  0.56297382409E+03  0.79202265887E+02 0.  0.
         24    2    4    4    0    0 -0.10190596910E+03  0.24365856471E+03 -0.29051085790E+03  0.40050199197E+03  0.79063040154E+02 0.  0.
         11    1    3    3    0    0  0.92716357521E+01  0.34266112461E+02  0.71968559570E+02  0.80247138636E+02  0.00000000000E+00 0. -1.
        -11    1    3    3    0    0  0.29135859638E+03  0.13025188188E+03  0.75449875325E+03  0.81922143104E+03  0.00000000000E+00 0.  1.
          2    1    6    6  502    0 -0.86354813739E+02  0.18180130287E+03 -0.16714173072E+03  0.26162038477E+03  0.00000000000E+00 0. -1.
          1    1    5    5  503    0 -0.35575803559E+02 -0.85085532060E+02  0.10710981240E+03  0.14134248292E+03  0.00000000000E+00 0. -1.
         -2    1    5    5    0  503 -0.16314845947E+03 -0.32309102698E+03  0.21625854044E+03  0.42163134117E+03  0.00000000000E+00 0.  1.
         -1    1    6    6    0  502 -0.15551155364E+02  0.61857261833E+02 -0.12336912718E+03  0.13888160719E+03  0.00000000000E+00 0.  1.
<mgrwt>
<rscale>  0 0.16529134E+04</rscale>
<asrwt>0</asrwt>
<pdfrwt beam="1">  1        2 0.77201507E-01 0.16529134E+04</pdfrwt>
<pdfrwt beam="2">  1       -2 0.20940532E+00 0.16529134E+04</pdfrwt>
<totfact> 0.67596546E+00</totfact>
</mgrwt>
</event>
<event>
12    1  0.1442183E-007  0.1299271E+04  0.7818608E-02  0.9030143E-01
          2   -1    0    0  501    0  0.00000000000E+00  0.00000000000E+00  0.11557295823E+04  0.11557295823E+04  0.00000000000E+00 0.  1.
         -2   -1    0    0    0  501 -0.00000000000E+00 -0.00000000000E+00 -0.36516020650E+03  0.36516020650E+03  0.00000000000E+00 0. -1.
         23    2    1    2    0    0  0.53697792463E+02  0.11066075781E+03 -0.15468797880E+03  0.21807281586E+03  0.92185280801E+02 0.  0.
        254    2    1    2    0    0 -0.53697792463E+02 -0.11066075781E+03  0.94525735461E+03  0.13028169730E+04  0.88808295915E+03 0.  0.
        -24    2    4    4    0    0  0.16894629290E+02 -0.47271591573E+03  0.33465651355E+03  0.58492042179E+03  0.79944682645E+02 0.  0.
         24    2    4    4    0    0 -0.70592421753E+02  0.36205515792E+03  0.61060084106E+03  0.71789655116E+03  0.80466413312E+02 0.  0.
         13    1    3    3    0    0  0.52238585866E+02  0.12696955726E+03 -0.13975035769E+03  0.19590890944E+03  0.00000000000E+00 0. -1.
        -13    1    3    3    0    0  0.14592065972E+01 -0.16308799447E+02 -0.14937621108E+02  0.22163906417E+02  0.00000000000E+00 0.  1.
          4    1    6    6  502    0 -0.58862455783E+02  0.32927896337E+03  0.58770638493E+03  0.67623089200E+03  0.00000000000E+00 0. -1.
          3    1    5    5  503    0  0.10836661095E+02 -0.38617299286E+03  0.30826234999E+03  0.49423950678E+03  0.00000000000E+00 0. -1.
         -4    1    5    5    0  503  0.60579681952E+01 -0.86542922868E+02  0.26394163557E+02  0.90680915010E+02  0.00000000000E+00 0.  1.
         -3    1    6    6    0  502 -0.11729965971E+02  0.32776194551E+02  0.22894456140E+02  0.41665659155E+02  0.00000000000E+00 0.  1.
<mgrwt>
<rscale>  0 0.12992713E+04</rscale>
<asrwt>0</asrwt>
<pdfrwt beam="1">  1        2 0.17780455E+00 0.12992713E+04</pdfrwt>
<pdfrwt beam="2">  1       -2 0.56178494E-01 0.12992713E+04</pdfrwt>
<totfact> 0.58718748E+01</totfact>
</mgrwt>
</event>
<event>
12    1  0.1710305E-007  0.1420134E+04  0.7818608E-02  0.8939372E-01
         -2   -1    0    0    0  501 -0.00000000000E+00  0.00000000000E+00  0.77649980371E+03  0.77649980371E+03  0.00000000000E+00 0.  1.
          2   -1    0    0  501    0  0.00000000000E+00 -0.00000000000E+00 -0.64931817927E+03  0.64931817927E+03  0.00000000000E+00 0. -1.
         23    2    1    2    0    0  0.21933486895E+03 -0.11672214461E+03  0.37746405388E+03  0.46171800070E+03  0.94723579023E+02 0.  0.
        254    2    1    2    0    0 -0.21933486895E+03  0.11672214461E+03 -0.25028242944E+03  0.96409998228E+03  0.89728236223E+03 0.  0.
        -24    2    4    4    0    0 -0.30302854862E+03 -0.22354659269E+03 -0.41715681569E+03  0.56799015513E+03  0.82423461875E+02 0.  0.
         24    2    4    4    0    0  0.83693679678E+02  0.34026873729E+03  0.16687438625E+03  0.39610982715E+03  0.79173788445E+02 0.  0.
         13    1    3    3    0    0  0.40723295327E+02 -0.46445417770E+02  0.40317787395E+02  0.73763728177E+02  0.00000000000E+00 0. -1.
        -13    1    3    3    0    0  0.17861157362E+03 -0.70276726837E+02  0.33714626648E+03  0.38795427252E+03  0.00000000000E+00 0.  1.
          2    1    6    6  502    0  0.68791753433E+02  0.33120726186E+03  0.16967715721E+03  0.37844536373E+03  0.00000000000E+00 0. -1.
          3    1    5    5  503    0 -0.25269552084E+03 -0.21995506408E+03 -0.36204523363E+03  0.49326666993E+03  0.00000000000E+00 0. -1.
         -4    1    5    5    0  503 -0.50333027788E+02 -0.35915286023E+01 -0.55111582060E+02  0.74723485205E+02  0.00000000000E+00 0.  1.
         -1    1    6    6    0  502  0.14901926245E+02  0.90614754332E+01 -0.28027709532E+01  0.17664463418E+02  0.00000000000E+00 0.  1.
<mgrwt>
<rscale>  0 0.14201344E+04</rscale>
<asrwt>0</asrwt>
<pdfrwt beam="1">  1        2 0.99895105E-01 0.14201344E+04</pdfrwt>
<pdfrwt beam="2">  1       -2 0.11946151E+00 0.14201344E+04</pdfrwt>
<totfact> 0.23491818E+01</totfact>
</mgrwt>
</event>
<event>
12    1  0.1442183E-007  0.1054778E+04  0.7818608E-02  0.9250425E-01
         -1   -1    0    0    0  501 -0.00000000000E+00  0.00000000000E+00  0.37609014407E+03  0.37609014407E+03  0.00000000000E+00 0.  1.
          1   -1    0    0  501    0  0.00000000000E+00 -0.00000000000E+00 -0.73955469406E+03  0.73955469406E+03  0.00000000000E+00 0. -1.
         23    2    1    2    0    0 -0.65335720206E+02  0.10758568827E+03 -0.62449936532E+02  0.16779722973E+03  0.91719567580E+02 0.  0.
        254    2    1    2    0    0  0.65335720206E+02 -0.10758568827E+03 -0.30101461346E+03  0.94784760840E+03  0.88992238682E+03 0.  0.
        -24    2    4    4    0    0 -0.34665429628E+02 -0.41299747669E+03 -0.42045079686E+03  0.59606701992E+03  0.82148718129E+02 0.  0.
         24    2    4    4    0    0  0.10000114983E+03  0.30541178842E+03  0.11943618340E+03  0.35178058848E+03  0.78790799310E+02 0.  0.
         13    1    3    3    0    0 -0.56536850030E+02  0.10049168104E+03 -0.84545443913E+02  0.14297875876E+03  0.00000000000E+00 0. -1.
        -13    1    3    3    0    0 -0.87988701759E+01  0.70940072296E+01  0.22095507381E+02  0.24818470972E+02  0.00000000000E+00 0.  1.
          2    1    6    6  502    0  0.89960965253E+02  0.15282789839E+03  0.74946340980E+02  0.19252609128E+03  0.00000000000E+00 0. -1.
          1    1    5    5  503    0 -0.51212664978E+02 -0.14930641791E+03 -0.17078190547E+03  0.23255451559E+03  0.00000000000E+00 0. -1.
         -2    1    5    5    0  503  0.16547235350E+02 -0.26369105878E+03 -0.24966889139E+03  0.36351250433E+03  0.00000000000E+00 0.  1.
         -1    1    6    6    0  502  0.10040184581E+02  0.15258389003E+03  0.44489842415E+02  0.15925449720E+03  0.00000000000E+00 0.  1.
<mgrwt>
<rscale>  0 0.10547781E+04</rscale>
<asrwt>0</asrwt>
<pdfrwt beam="1">  1        1 0.11377764E+00 0.10547781E+04</pdfrwt>
<pdfrwt beam="2">  1       -1 0.57860023E-01 0.10547781E+04</pdfrwt>
<totfact> 0.75703702E+01</totfact>
</mgrwt>
</event>
<event>
12    1  0.1442183E-007  0.1592314E+04  0.7818608E-02  0.8825284E-01
         -2   -1    0    0    0  501 -0.00000000000E+00  0.00000000000E+00  0.14698974317E+04  0.14698974317E+04  0.00000000000E+00 0.  1.
          2   -1    0    0  501    0  0.00000000000E+00 -0.00000000000E+00 -0.43123121019E+03  0.43123121019E+03  0.00000000000E+00 0. -1.
         23    2    1    2    0    0  0.22625513396E+03  0.16084824364E+03 -0.17527992419E+03  0.34046714921E+03  0.90173636611E+02 0.  0.
        254    2    1    2    0    0 -0.22625513396E+03 -0.16084824364E+03  0.12139461458E+04  0.15606614927E+04  0.94071010782E+03 0.  0.
        -24    2    4    4    0    0 -0.50832573299E+03 -0.11420057738E+03  0.31522988124E+03  0.61434399864E+03  0.81313270382E+02 0.  0.
         24    2    4    4    0    0  0.28207059903E+03 -0.46647666257E+02  0.89871626451E+03  0.94631749408E+03  0.78013126497E+02 0.  0.
         11    1    3    3    0    0  0.82962397615E+01  0.11930406876E+02  0.10278643622E+02  0.17799233610E+02  0.00000000000E+00 0.  1.
        -11    1    3    3    0    0  0.21795889420E+03  0.14891783676E+03 -0.18555856782E+03  0.32266791560E+03  0.00000000000E+00 0. -1.
          2    1    6    6  502    0  0.26233745957E+03 -0.31875256298E+02  0.86555202490E+03  0.90499573615E+03  0.00000000000E+00 0. -1.
          1    1    5    5  503    0 -0.16301487450E+03 -0.67550226112E+02  0.13410617906E+03  0.22163336757E+03  0.00000000000E+00 0. -1.
         -2    1    5    5    0  503 -0.34531085849E+03 -0.46650351267E+02  0.18112370218E+03  0.39271063107E+03  0.00000000000E+00 0.  1.
         -1    1    6    6    0  502  0.19733139462E+02 -0.14772409959E+02  0.33164239616E+02  0.41321757929E+02  0.00000000000E+00 0.  1.
<mgrwt>
<rscale>  0 0.15923136E+04</rscale>
<asrwt>0</asrwt>
<pdfrwt beam="1">  1        2 0.66343264E-01 0.15923136E+04</pdfrwt>
<pdfrwt beam="2">  1       -2 0.22613806E+00 0.15923136E+04</pdfrwt>
<totfact> 0.63302219E+00</totfact>
</mgrwt>
</event>
<event>
12    1  0.1442183E-007  0.1670958E+04  0.7818608E-02  0.8778103E-01
         -1   -1    0    0    0  501 -0.00000000000E+00  0.00000000000E+00  0.33384303657E+03  0.33384303657E+03  0.00000000000E+00 0. -1.
          1   -1    0    0  501    0  0.00000000000E+00 -0.00000000000E+00 -0.20908794780E+04  0.20908794780E+04  0.00000000000E+00 0.  1.
         23    2    1    2    0    0  0.55605465524E+03  0.76074357551E+02 -0.92843463907E+03  0.10887431035E+04  0.91578267055E+02 0.  0.
        254    2    1    2    0    0 -0.55605465524E+03 -0.76074357551E+02 -0.82860180231E+03  0.13359794110E+04  0.88502878614E+03 0.  0.
        -24    2    4    4    0    0  0.94241306145E+02 -0.30611683556E+03 -0.40574528025E+03  0.52315772545E+03  0.80472557104E+02 0.  0.
         24    2    4    4    0    0 -0.65029596139E+03  0.23004247801E+03 -0.42285652206E+03  0.81282168554E+03  0.77891431823E+02 0.  0.
         11    1    3    3    0    0  0.54888963689E+02  0.36263066332E+02 -0.11493383404E+03  0.13242958325E+03  0.00000000000E+00 0. -1.
        -11    1    3    3    0    0  0.50116569155E+03  0.39811291218E+02 -0.81350080504E+03  0.95631352029E+03  0.00000000000E+00 0.  1.
          2    1    6    6  502    0 -0.59768466101E+03  0.19312673945E+03 -0.39971749402E+03  0.74451256976E+03  0.00000000000E+00 0. -1.
          3    1    5    5  503    0  0.53024204910E+02 -0.89202744013E+02 -0.17740067692E+03  0.20552298172E+03  0.00000000000E+00 0. -1.
         -4    1    5    5    0  503  0.41217101235E+02 -0.21691409155E+03 -0.22834460334E+03  0.31763474372E+03  0.00000000000E+00 0.  1.
         -1    1    6    6    0  502 -0.52611300372E+02  0.36915738559E+02 -0.23139028037E+02  0.68309115780E+02  0.00000000000E+00 0.  1.
<mgrwt>
<rscale>  0 0.16709585E+04</rscale>
<asrwt>0</asrwt>
<pdfrwt beam="1">  1        1 0.32167376E+00 0.16709585E+04</pdfrwt>
<pdfrwt beam="2">  1       -1 0.51360468E-01 0.16709585E+04</pdfrwt>
<totfact> 0.94075001E+00</totfact>
</mgrwt>
</event>
<event>
12    1  0.1442183E-007  0.1495379E+04  0.7818608E-02  0.8887532E-01
          1   -1    0    0  501    0  0.00000000000E+00  0.00000000000E+00  0.10417408089E+04  0.10417408089E+04  0.00000000000E+00 0.  1.
         -1   -1    0    0    0  501 -0.00000000000E+00 -0.00000000000E+00 -0.53663980384E+03  0.53663980384E+03  0.00000000000E+00 0. -1.
         23    2    1    2    0    0  0.40633549843E+03 -0.13071278197E+02  0.59426410203E+03  0.72581043784E+03  0.91496301148E+02 0.  0.
        254    2    1    2    0    0 -0.40633549843E+03  0.13071278197E+02 -0.89163096983E+02  0.85257017489E+03  0.74407422321E+03 0.  0.
        -24    2    4    4    0    0  0.90451695498E+02  0.86003101844E+02 -0.27311333914E+03  0.31149331127E+03  0.82819950539E+02 0.  0.
         24    2    4    4    0    0 -0.49678719393E+03 -0.72931823647E+02  0.18395024216E+03  0.54107686361E+03  0.82522201833E+02 0.  0.
         13    1    3    3    0    0  0.32189098257E+03  0.27155431063E+02  0.46866896108E+03  0.56921157506E+03  0.00000000000E+00 0.  1.
        -13    1    3    3    0    0  0.84444515863E+02 -0.40226709260E+02  0.12559514094E+03  0.15659886279E+03  0.00000000000E+00 0. -1.
          2    1    6    6  502    0 -0.20969319043E+03 -0.46955889310E+02  0.38918547841E+02  0.21838210325E+03  0.00000000000E+00 0. -1.
          3    1    5    5  503    0  0.96949476144E+02  0.46875572176E+02 -0.17261720858E+03  0.20345324006E+03  0.00000000000E+00 0. -1.
         -4    1    5    5    0  503 -0.64977806466E+01  0.39127529669E+02 -0.10049613056E+03  0.10804007122E+03  0.00000000000E+00 0.  1.
         -1    1    6    6    0  502 -0.28709400349E+03 -0.25975934337E+02  0.14503169431E+03  0.32269476036E+03  0.00000000000E+00 0.  1.
<mgrwt>
<rscale>  0 0.14953790E+04</rscale>
<asrwt>0</asrwt>
<pdfrwt beam="1">  1        1 0.16026782E+00 0.14953790E+04</pdfrwt>
<pdfrwt beam="2">  1       -1 0.82559970E-01 0.14953790E+04</pdfrwt>
<totfact> 0.19818981E+01</totfact>
</mgrwt>
</event>
<event>
12    1  0.1442183E-007  0.2814989E+04  0.7818608E-02  0.8298630E-01
         -1   -1    0    0    0  501 -0.00000000000E+00  0.00000000000E+00  0.21709027486E+04  0.21709027486E+04  0.00000000000E+00 0.  1.
          1   -1    0    0  501    0  0.00000000000E+00 -0.00000000000E+00 -0.91254247176E+03  0.91254247176E+03  0.00000000000E+00 0. -1.
         23    2    1    2    0    0  0.46678448490E+03 -0.10639483179E+04  0.11052588077E+04  0.16061223055E+04  0.90321922729E+02 0.  0.
        254    2    1    2    0    0 -0.46678448490E+03  0.10639483179E+04  0.15310146916E+03  0.14773229149E+04  0.89953830183E+03 0.  0.
        -24    2    4    4    0    0 -0.30801675895E+02 -0.29205947208E+02 -0.22152803863E+03  0.23949095947E+03  0.80495448168E+02 0.  0.
         24    2    4    4    0    0 -0.43598280901E+03  0.10931542651E+04  0.37462950779E+03  0.12378319554E+04  0.82543471393E+02 0.  0.
         11    1    3    3    0    0  0.44612681128E+03 -0.10240965458E+04  0.10836286548E+04  0.15562949362E+04  0.00000000000E+00 0.  1.
        -11    1    3    3    0    0  0.20657673618E+02 -0.39851772040E+02  0.21630152844E+02  0.49827369247E+02  0.00000000000E+00 0. -1.
          2    1    6    6  502    0 -0.17530825976E+03  0.54043339579E+03  0.19880845005E+03  0.60193524655E+03  0.00000000000E+00 0. -1.
          1    1    5    5  503    0  0.95676330435E+01 -0.11255237216E+02 -0.12489022909E+01  0.14824969605E+02  0.00000000000E+00 0. -1.
         -2    1    5    5    0  503 -0.40369308938E+02 -0.17950709992E+02 -0.22027913634E+03  0.22466598986E+03  0.00000000000E+00 0.  1.
         -1    1    6    6    0  502 -0.26067454925E+03  0.55272086930E+03  0.17582105774E+03  0.63589670885E+03  0.00000000000E+00 0.  1.
<mgrwt>
<rscale>  0 0.28149891E+04</rscale>
<asrwt>0</asrwt>
<pdfrwt beam="1">  1        1 0.14039115E+00 0.28149891E+04</pdfrwt>
<pdfrwt beam="2">  1       -1 0.33398504E+00 0.28149891E+04</pdfrwt>
<totfact> 0.30452487E-01</totfact>
</mgrwt>
</event>
<event>
12    1  0.1442183E-007  0.2965274E+04  0.7818608E-02  0.8253717E-01
          1   -1    0    0  501    0  0.00000000000E+00  0.00000000000E+00  0.15663091105E+04  0.15663091105E+04  0.00000000000E+00 0. -1.
         -1   -1    0    0    0  501 -0.00000000000E+00 -0.00000000000E+00 -0.14034346253E+04  0.14034346253E+04  0.00000000000E+00 0.  1.
         23    2    1    2    0    0 -0.10998698778E+04  0.75419293342E+03  0.21073755804E+03  0.13533998520E+04  0.93595470889E+02 0.  0.
        254    2    1    2    0    0  0.10998698778E+04 -0.75419293342E+03 -0.47863072865E+02  0.16163438839E+04  0.91200655063E+03 0.  0.
        -24    2    4    4    0    0  0.32233217383E+03 -0.51078319945E+03  0.35364823486E+03  0.70450458389E+03  0.80387359567E+02 0.  0.
         24    2    4    4    0    0  0.77753770393E+03 -0.24340973397E+03 -0.40151130772E+03  0.91183929999E+03  0.80164824903E+02 0.  0.
         13    1    3    3    0    0 -0.86864626833E+03  0.64022043235E+03  0.16729633175E+03  0.10919782984E+04  0.00000000000E+00 0. -1.
        -13    1    3    3    0    0 -0.23122360943E+03  0.11397250107E+03  0.43441226283E+02  0.26142155363E+03  0.00000000000E+00 0.  1.
          2    1    6    6  502    0  0.61183007183E+03 -0.22521257801E+03 -0.31759653944E+03  0.72520638715E+03  0.00000000000E+00 0. -1.
          1    1    5    5  503    0  0.24638576871E+03 -0.44570116195E+03  0.29328900439E+03  0.58768521581E+03  0.00000000000E+00 0. -1.
         -2    1    5    5    0  503  0.75946405123E+02 -0.65082037501E+02  0.60359230465E+02  0.11681936808E+03  0.00000000000E+00 0.  1.
         -1    1    6    6    0  502  0.16570763210E+03 -0.18197155958E+02 -0.83914768286E+02  0.18663291284E+03  0.00000000000E+00 0.  1.
<mgrwt>
<rscale>  0 0.29652740E+04</rscale>
<asrwt>0</asrwt>
<pdfrwt beam="1">  1        1 0.24097063E+00 0.29652740E+04</pdfrwt>
<pdfrwt beam="2">  1       -1 0.21591302E+00 0.29652740E+04</pdfrwt>
<totfact> 0.58907667E-01</totfact>
</mgrwt>
</event>
<event>
12    1  0.1442183E-007  0.1261773E+04  0.7818608E-02  0.9060441E-01
          2   -1    0    0  501    0  0.00000000000E+00  0.00000000000E+00  0.13729257344E+04  0.13729257344E+04  0.00000000000E+00 0. -1.
         -2   -1    0    0    0  501 -0.00000000000E+00 -0.00000000000E+00 -0.28990495594E+03  0.28990495594E+03  0.00000000000E+00 0.  1.
         23    2    1    2    0    0 -0.13403515523E+03 -0.19638987315E+02 -0.98284039086E+02  0.19053473305E+03  0.91063821014E+02 0.  0.
        254    2    1    2    0    0  0.13403515523E+03  0.19638987315E+02  0.11813048175E+04  0.14722959573E+04  0.86822992419E+03 0.  0.
        -24    2    4    4    0    0  0.37413450599E+03  0.24439043237E+03  0.34731661660E+03  0.57224958472E+03  0.84483389095E+02 0.  0.
         24    2    4    4    0    0 -0.24009935076E+03 -0.22475144506E+03  0.83398820095E+03  0.90004637258E+03  0.79913973676E+02 0.  0.
         11    1    3    3    0    0 -0.11414284416E+03 -0.27854841896E+02 -0.11413719996E+03  0.16380409489E+03  0.00000000000E+00 0.  1.
        -11    1    3    3    0    0 -0.19892311074E+02  0.82158545808E+01  0.15853160874E+02  0.26730638153E+02  0.00000000000E+00 0. -1.
          4    1    6    6  502    0 -0.20025060761E+03 -0.14240936474E+03  0.64067552026E+03  0.68618208609E+03  0.00000000000E+00 0. -1.
          1    1    5    5  503    0  0.19293676754E+03  0.82555054928E+02  0.18776760678E+03  0.28159653321E+03  0.00000000000E+00 0. -1.
         -2    1    5    5    0  503  0.18119773845E+03  0.16183537745E+03  0.15954900982E+03  0.29065305150E+03  0.00000000000E+00 0.  1.
         -3    1    6    6    0  502 -0.39848743153E+02 -0.82342080316E+02  0.19331268069E+03  0.21386428649E+03  0.00000000000E+00 0.  1.
<mgrwt>
<rscale>  0 0.12617733E+04</rscale>
<asrwt>0</asrwt>
<pdfrwt beam="1">  1        2 0.21121934E+00 0.12617733E+04</pdfrwt>
<pdfrwt beam="2">  1       -2 0.44600763E-01 0.12617733E+04</pdfrwt>
<totfact> 0.70237029E+01</totfact>
</mgrwt>
</event>
<event>
12    1  0.1442183E-007  0.1688525E+04  0.7818608E-02  0.8767936E-01
          1   -1    0    0  501    0  0.00000000000E+00  0.00000000000E+00  0.24191842887E+04  0.24191842887E+04  0.00000000000E+00 0. -1.
         -1   -1    0    0    0  501 -0.00000000000E+00 -0.00000000000E+00 -0.29463607957E+03  0.29463607957E+03  0.00000000000E+00 0.  1.
         23    2    1    2    0    0 -0.51354586788E+03 -0.20379842526E+03  0.39703169959E+03  0.68699188348E+03  0.95186768687E+02 0.  0.
        254    2    1    2    0    0  0.51354586788E+03  0.20379842526E+03  0.17275165095E+04  0.20268284848E+04  0.90468627678E+03 0.  0.
        -24    2    4    4    0    0  0.76429261312E+03  0.10994803338E+03  0.13496534345E+04  0.15569584459E+04  0.79520062291E+02 0.  0.
         24    2    4    4    0    0 -0.25074674523E+03  0.93850391882E+02  0.37786307501E+03  0.46987003891E+03  0.79470269320E+02 0.  0.
         13    1    3    3    0    0 -0.43746760037E+03 -0.20600647538E+03  0.32851411508E+03  0.58458369210E+03  0.00000000000E+00 0.  1.
        -13    1    3    3    0    0 -0.76078267519E+02  0.22080501231E+01  0.68517584513E+02  0.10240819138E+03  0.00000000000E+00 0. -1.
          2    1    6    6  502    0 -0.16006459609E+03  0.18730931745E+02  0.20633652268E+03  0.26181345137E+03  0.00000000000E+00 0. -1.
          1    1    5    5  503    0  0.47683590881E+03  0.10600293132E+03  0.86984109207E+03  0.99761346765E+03  0.00000000000E+00 0. -1.
         -2    1    5    5    0  503  0.28745670430E+03  0.39451020609E+01  0.47981234245E+03  0.55934497820E+03  0.00000000000E+00 0.  1.
         -1    1    6    6    0  502 -0.90682149143E+02  0.75119460138E+02  0.17152655233E+03  0.20805658754E+03  0.00000000000E+00 0.  1.
<mgrwt>
<rscale>  0 0.16885248E+04</rscale>
<asrwt>0</asrwt>
<pdfrwt beam="1">  1        1 0.37218218E+00 0.16885248E+04</pdfrwt>
<pdfrwt beam="2">  1       -1 0.45328629E-01 0.16885248E+04</pdfrwt>
<totfact> 0.71006970E+00</totfact>
</mgrwt>
</event>
<event>
12    1  0.1442183E-007  0.2311701E+04  0.7818608E-02  0.8473322E-01
         -1   -1    0    0    0  501 -0.00000000000E+00  0.00000000000E+00  0.26226576434E+04  0.26226576434E+04  0.00000000000E+00 0.  1.
          1   -1    0    0  501    0  0.00000000000E+00 -0.00000000000E+00 -0.50940321977E+03  0.50940321977E+03  0.00000000000E+00 0. -1.
         23    2    1    2    0    0  0.83089971675E+03  0.51522391802E+03  0.95246749055E+03  0.13678464223E+04  0.89215971495E+02 0.  0.
        254    2    1    2    0    0 -0.83089971675E+03 -0.51522391802E+03  0.11607869331E+04  0.17642144408E+04  0.89954225260E+03 0.  0.
        -24    2    4    4    0    0 -0.21824822794E+03 -0.19605880850E+02  0.90042179186E+03  0.93051909471E+03  0.84200372959E+02 0.  0.
         24    2    4    4    0    0 -0.61265148881E+03 -0.49561803717E+03  0.26036514121E+03  0.83369534611E+03  0.79239118164E+02 0.  0.
         13    1    3    3    0    0  0.59234914744E+03  0.41128755127E+03  0.68263524598E+03  0.99298833898E+03  0.00000000000E+00 0. -1.
        -13    1    3    3    0    0  0.23855056931E+03  0.10393636675E+03  0.26983224457E+03  0.37485808336E+03  0.00000000000E+00 0.  1.
          2    1    6    6  502    0 -0.12723770973E+03 -0.14570687855E+03  0.56233671767E+02  0.20145013049E+03  0.00000000000E+00 0. -1.
          3    1    5    5  503    0 -0.17333077149E+03 -0.26105358104E+02  0.55222234045E+03  0.57937428262E+03  0.00000000000E+00 0. -1.
         -4    1    5    5    0  503 -0.44917456445E+02  0.64994772543E+01  0.34819945141E+03  0.35114481209E+03  0.00000000000E+00 0.  1.
         -1    1    6    6    0  502 -0.48541377908E+03 -0.34991115862E+03  0.20413146945E+03  0.63224521561E+03  0.00000000000E+00 0.  1.
<mgrwt>
<rscale>  0 0.23117009E+04</rscale>
<asrwt>0</asrwt>
<pdfrwt beam="1">  1        1 0.78369727E-01 0.23117009E+04</pdfrwt>
<pdfrwt beam="2">  1       -1 0.40348578E+00 0.23117009E+04</pdfrwt>
<totfact> 0.26422671E-01</totfact>
</mgrwt>
</event>
<event>
12    1  0.1442183E-007  0.1228294E+04  0.7818608E-02  0.9088445E-01
         -2   -1    0    0    0  501 -0.00000000000E+00  0.00000000000E+00  0.13899778101E+03  0.13899778101E+03  0.00000000000E+00 0.  1.
          2   -1    0    0  501    0  0.00000000000E+00 -0.00000000000E+00 -0.27135429971E+04  0.27135429971E+04  0.00000000000E+00 0. -1.
         23    2    1    2    0    0 -0.19177281405E+03 -0.13233988252E+03 -0.10186876635E+04  0.10490130173E+04  0.91722941320E+02 0.  0.
        254    2    1    2    0    0  0.19177281405E+03  0.13233988252E+03 -0.15558575526E+04  0.18035277608E+04  0.88188945077E+03 0.  0.
        -24    2    4    4    0    0  0.16204045710E+03 -0.57025750909E+02 -0.15826487119E+04  0.15939271187E+04  0.79483761798E+02 0.  0.
         24    2    4    4    0    0  0.29732356947E+02  0.18936563343E+03  0.26791159281E+02  0.20960064217E+03  0.80444433038E+02 0.  0.
         11    1    3    3    0    0 -0.31450179956E+02 -0.40385691989E+01 -0.53214979283E+02  0.61945604206E+02  0.00000000000E+00 0.  1.
        -11    1    3    3    0    0 -0.16032263410E+03 -0.12830131332E+03 -0.96547268425E+03  0.98706741312E+03  0.00000000000E+00 0. -1.
          2    1    6    6  502    0 -0.90805779182E+01  0.13149063960E+03  0.41887031183E+02  0.13829956103E+03  0.00000000000E+00 0. -1.
          1    1    5    5  503    0  0.16591113498E+03 -0.53494277315E+02 -0.15752210073E+04  0.15848373305E+04  0.00000000000E+00 0. -1.
         -2    1    5    5    0  503 -0.38706778731E+01 -0.35314735943E+01 -0.74277045914E+01  0.90897881406E+01  0.00000000000E+00 0.  1.
         -1    1    6    6    0  502  0.38812934865E+02  0.57874993826E+02 -0.15095871902E+02  0.71301081140E+02  0.00000000000E+00 0.  1.
<mgrwt>
<rscale>  0 0.12282939E+04</rscale>
<asrwt>0</asrwt>
<pdfrwt beam="1">  1        2 0.41746814E+00 0.12282939E+04</pdfrwt>
<pdfrwt beam="2">  1       -2 0.21384275E-01 0.12282939E+04</pdfrwt>
<totfact> 0.49184378E+01</totfact>
</mgrwt>
</event>
<event>
12    1  0.1442183E-007  0.1442620E+04  0.7818608E-02  0.8923533E-01
          1   -1    0    0  501    0  0.00000000000E+00  0.00000000000E+00  0.54498362708E+03  0.54498362708E+03  0.00000000000E+00 0. -1.
         -1   -1    0    0    0  501 -0.00000000000E+00 -0.00000000000E+00 -0.95468534642E+03  0.95468534642E+03  0.00000000000E+00 0.  1.
         23    2    1    2    0    0 -0.11214644397E+03 -0.14195175311E+03 -0.58322239939E+03  0.61549350679E+03  0.77180079313E+02 0.  0.
        254    2    1    2    0    0  0.11214644397E+03  0.14195175311E+03  0.17352068005E+03  0.88417546671E+03  0.84789722516E+03 0.  0.
        -24    2    4    4    0    0  0.11410020876E+03 -0.24491007151E+03 -0.19637859013E+03  0.34323268145E+03  0.79021023701E+02 0.  0.
         24    2    4    4    0    0 -0.19537647870E+01  0.38686182462E+03  0.36989927019E+03  0.54094278526E+03  0.78279871616E+02 0.  0.
         13    1    3    3    0    0 -0.51854552561E+02 -0.91483426022E+02 -0.43697483188E+03  0.44944979202E+03  0.00000000000E+00 0.  1.
        -13    1    3    3    0    0 -0.60291891413E+02 -0.50468327085E+02 -0.14624756752E+03  0.16604371477E+03  0.00000000000E+00 0. -1.
          4    1    6    6  502    0  0.25342233854E+02  0.49985918940E+02  0.64209287372E+02  0.85227070193E+02  0.00000000000E+00 0. -1.
          3    1    5    5  503    0  0.11760370526E+03 -0.23067780439E+03 -0.20108499071E+03  0.32783845781E+03  0.00000000000E+00 0. -1.
         -4    1    5    5    0  503 -0.35034965015E+01 -0.14232267116E+02  0.47064005789E+01  0.15394223637E+02  0.00000000000E+00 0.  1.
         -1    1    6    6    0  502 -0.27295998641E+02  0.33687590568E+03  0.30568998281E+03  0.45571571507E+03  0.00000000000E+00 0.  1.
<mgrwt>
<rscale>  0 0.14426197E+04</rscale>
<asrwt>0</asrwt>
<pdfrwt beam="1">  1        1 0.83843636E-01 0.14426197E+04</pdfrwt>
<pdfrwt beam="2">  1       -1 0.14687467E+00 0.14426197E+04</pdfrwt>
<totfact> 0.14101070E+01</totfact>
</mgrwt>
</event>
<event>
12    1  0.1442183E-007  0.2421323E+04  0.7818608E-02  0.8431563E-01
         -2   -1    0    0    0  501 -0.00000000000E+00  0.00000000000E+00  0.50090443566E+03  0.50090443566E+03  0.00000000000E+00 0. -1.
          2   -1    0    0  501    0  0.00000000000E+00 -0.00000000000E+00 -0.29261102599E+04  0.29261102599E+04  0.00000000000E+00 0.  1.
         23    2    1    2    0    0  0.29788278539E+02  0.71271601075E+03  0.27012410468E+02  0.72006830322E+03  0.94431125531E+02 0.  0.
        254    2    1    2    0    0 -0.29788278539E+02 -0.71271601075E+03 -0.24522182348E+04  0.27069463924E+04  0.89740350282E+03 0.  0.
        -24    2    4    4    0    0 -0.16787474727E+03 -0.41744635305E+03 -0.22891824761E+04  0.23346337445E+04  0.87834637887E+02 0.  0.
         24    2    4    4    0    0  0.13808646873E+03 -0.29526965770E+03 -0.16303575865E+03  0.37231264789E+03  0.76052650017E+02 0.  0.
         13    1    3    3    0    0 -0.16620342894E+02  0.48217416474E+03  0.42910308069E+02  0.48436500232E+03  0.00000000000E+00 0. -1.
        -13    1    3    3    0    0  0.46408621434E+02  0.23054184601E+03 -0.15897897601E+02  0.23570330090E+03  0.00000000000E+00 0.  1.
          2    1    6    6  502    0  0.13909469859E+03 -0.23060800329E+03 -0.14103144457E+03  0.30400206366E+03  0.00000000000E+00 0. -1.
          3    1    5    5  503    0 -0.90298500279E+02 -0.27742229923E+03 -0.16577202658E+04  0.16831973832E+04  0.00000000000E+00 0. -1.
         -4    1    5    5    0  503 -0.77576246986E+02 -0.14002405382E+03 -0.63146221030E+03  0.65143636127E+03  0.00000000000E+00 0.  1.
         -1    1    6    6    0  502 -0.10082298591E+01 -0.64661654412E+02 -0.22004314085E+02  0.68310584225E+02  0.00000000000E+00 0.  1.
<mgrwt>
<rscale>  0 0.24213233E+04</rscale>
<asrwt>0</asrwt>
<pdfrwt beam="1">  1        2 0.45017082E+00 0.24213233E+04</pdfrwt>
<pdfrwt beam="2">  1       -2 0.77062219E-01 0.24213233E+04</pdfrwt>
<totfact> 0.26129489E+00</totfact>
</mgrwt>
</event>
<event>
12    1  0.1442183E-007  0.1537666E+04  0.7818608E-02  0.8859784E-01
         -1   -1    0    0    0  501 -0.00000000000E+00  0.00000000000E+00  0.33504855791E+03  0.33504855791E+03  0.00000000000E+00 0.  1.
          1   -1    0    0  501    0  0.00000000000E+00 -0.00000000000E+00 -0.17642352702E+04  0.17642352702E+04  0.00000000000E+00 0. -1.
         23    2    1    2    0    0 -0.38173775405E+02  0.13355537315E+03 -0.11093106595E+04  0.11217172636E+04  0.91570766545E+02 0.  0.
        254    2    1    2    0    0  0.38173775405E+02 -0.13355537315E+03 -0.31987605272E+03  0.97756656446E+03  0.91324773420E+03 0.  0.
        -24    2    4    4    0    0 -0.18368164585E+02 -0.21223055715E+03 -0.61527289090E+03  0.65605908550E+03  0.80458651055E+02 0.  0.
         24    2    4    4    0    0  0.56541939990E+02  0.78675183994E+02  0.29539683819E+03  0.32150747896E+03  0.81981653181E+02 0.  0.
         11    1    3    3    0    0 -0.12148789056E+02  0.29853532781E+01 -0.15904198190E+02  0.20234844447E+02  0.00000000000E+00 0.  1.
        -11    1    3    3    0    0 -0.26024986349E+02  0.13057001987E+03 -0.10934064613E+04  0.11014824192E+04  0.00000000000E+00 0. -1.
          2    1    6    6  502    0 -0.19891032261E+02  0.18724815372E+02  0.94316058443E+02  0.98192620677E+02  0.00000000000E+00 0. -1.
          1    1    5    5  503    0 -0.20840171414E+02 -0.17000146244E+02 -0.37198826792E+02  0.45902836858E+02  0.00000000000E+00 0. -1.
         -2    1    5    5    0  503  0.24720068288E+01 -0.19523041090E+03 -0.57807406411E+03  0.61015624864E+03  0.00000000000E+00 0.  1.
         -1    1    6    6    0  502  0.76432972251E+02  0.59950368623E+02  0.20108077975E+03  0.22331485828E+03  0.00000000000E+00 0.  1.
<mgrwt>
<rscale>  0 0.15376664E+04</rscale>
<asrwt>0</asrwt>
<pdfrwt beam="1">  1        1 0.27142081E+00 0.15376664E+04</pdfrwt>
<pdfrwt beam="2">  1       -1 0.51545932E-01 0.15376664E+04</pdfrwt>
<totfact> 0.15737705E+01</totfact>
</mgrwt>
</event>
<event>
12    1  0.1442183E-007  0.1371743E+04  0.7818608E-02  0.8974531E-01
          1   -1    0    0  501    0  0.00000000000E+00  0.00000000000E+00  0.70037525238E+03  0.70037525238E+03  0.00000000000E+00 0. -1.
         -1   -1    0    0    0  501 -0.00000000000E+00 -0.00000000000E+00 -0.67166770678E+03  0.67166770678E+03  0.00000000000E+00 0.  1.
         23    2    1    2    0    0 -0.20744297229E+03  0.25092800768E+03  0.23751300762E+03  0.41322209191E+03  0.91337925649E+02 0.  0.
        254    2    1    2    0    0  0.20744297229E+03 -0.25092800768E+03 -0.20880546202E+03  0.95882086726E+03  0.87734843861E+03 0.  0.
        -24    2    4    4    0    0  0.29123925538E+03 -0.44616309540E+03 -0.39293634721E+03  0.66669519688E+03  0.78750879393E+02 0.  0.
         24    2    4    4    0    0 -0.83796283087E+02  0.19523508772E+03  0.18413088519E+03  0.29212567038E+03  0.79338943014E+02 0.  0.
         13    1    3    3    0    0 -0.73448793775E+02  0.90314891092E+02  0.14104660523E+03  0.18288151822E+03  0.00000000000E+00 0. -1.
        -13    1    3    3    0    0 -0.13399417852E+03  0.16061311659E+03  0.96466402386E+02  0.23034057368E+03  0.00000000000E+00 0.  1.
          2    1    6    6  502    0  0.14792244493E+02  0.42480576757E+02  0.36567233297E+02  0.57970444623E+02  0.00000000000E+00 0. -1.
          1    1    5    5  503    0  0.10809831498E+02 -0.59442148288E+02 -0.35486826358E+02  0.70068083284E+02  0.00000000000E+00 0. -1.
         -2    1    5    5    0  503  0.28042942388E+03 -0.38672094711E+03 -0.35744952085E+03  0.59662711359E+03  0.00000000000E+00 0.  1.
         -1    1    6    6    0  502 -0.98588527580E+02  0.15275451097E+03  0.14756365189E+03  0.23415522576E+03  0.00000000000E+00 0.  1.
<mgrwt>
<rscale>  0 0.13717426E+04</rscale>
<asrwt>0</asrwt>
<pdfrwt beam="1">  1        1 0.10775004E+00 0.13717426E+04</pdfrwt>
<pdfrwt beam="2">  1       -1 0.10333349E+00 0.13717426E+04</pdfrwt>
<totfact> 0.23516856E+01</totfact>
</mgrwt>
</event>
<event>
12    1  0.1442183E-007  0.1979622E+04  0.7818608E-02  0.8616208E-01
          2   -1    0    0  501    0  0.00000000000E+00  0.00000000000E+00  0.21373522051E+04  0.21373522051E+04  0.00000000000E+00 0.  1.
         -2   -1    0    0    0  501 -0.00000000000E+00 -0.00000000000E+00 -0.45838299093E+03  0.45838299093E+03  0.00000000000E+00 0. -1.
         23    2    1    2    0    0  0.48808303565E+03  0.37742763938E+03  0.89794060889E+02  0.63015460557E+03  0.91406678572E+02 0.  0.
        254    2    1    2    0    0 -0.48808303565E+03 -0.37742763938E+03  0.15891751533E+04  0.19655805905E+04  0.97844402863E+03 0.  0.
        -24    2    4    4    0    0 -0.66011693961E+03 -0.33712866526E+03  0.59716823219E+03  0.95503094988E+03  0.77872375038E+02 0.  0.
         24    2    4    4    0    0  0.17203390396E+03 -0.40298974119E+02  0.99200692111E+03  0.10105496406E+04  0.76897159653E+02 0.  0.
         11    1    3    3    0    0  0.40427561391E+03  0.32856868614E+03  0.10646064474E+03  0.53172363347E+03  0.00000000000E+00 0. -1.
        -11    1    3    3    0    0  0.83807421739E+02  0.48858953241E+02 -0.16666583848E+02  0.98430972095E+02  0.00000000000E+00 0.  1.
          2    1    6    6  502    0  0.78243018484E+02 -0.32375392702E+02  0.28525936687E+03  0.29756182951E+03  0.00000000000E+00 0. -1.
          1    1    5    5  503    0 -0.24252198371E+03 -0.10972348821E+03  0.26022009616E+03  0.37225079570E+03  0.00000000000E+00 0. -1.
         -2    1    5    5    0  503 -0.41759495590E+03 -0.22740517705E+03  0.33694813602E+03  0.58278015418E+03  0.00000000000E+00 0.  1.
         -1    1    6    6    0  502  0.93790885474E+02 -0.79235814165E+01  0.70674755424E+03  0.71298781109E+03  0.00000000000E+00 0.  1.
<mgrwt>
<rscale>  0 0.19796221E+04</rscale>
<asrwt>0</asrwt>
<pdfrwt beam="1">  1        2 0.32882341E+00 0.19796221E+04</pdfrwt>
<pdfrwt beam="2">  1       -2 0.70520462E-01 0.19796221E+04</pdfrwt>
<totfact> 0.95309223E+00</totfact>
</mgrwt>
</event>
<event>
12    1  0.1442183E-007  0.1738494E+04  0.7818608E-02  0.8739710E-01
         -2   -1    0    0    0  501 -0.00000000000E+00  0.00000000000E+00  0.12051017276E+04  0.12051017276E+04  0.00000000000E+00 0.  1.
          2   -1    0    0  501    0  0.00000000000E+00 -0.00000000000E+00 -0.62699271136E+03  0.62699271136E+03  0.00000000000E+00 0. -1.
         23    2    1    2    0    0 -0.13274471494E+03  0.46332098943E+03  0.55669796322E+03  0.74106002028E+03  0.83485524586E+02 0.  0.
        254    2    1    2    0    0  0.13274471494E+03 -0.46332098943E+03  0.21411053016E+02  0.10910344187E+04  0.97857558264E+03 0.  0.
        -24    2    4    4    0    0  0.33133088129E+03 -0.66351220812E+03  0.16653063442E+03  0.76409216291E+03  0.77947277026E+02 0.  0.
         24    2    4    4    0    0 -0.19858616635E+03  0.20019121869E+03 -0.14511958140E+03  0.32694225577E+03  0.79489346431E+02 0.  0.
         13    1    3    3    0    0 -0.92430767425E+02  0.32284015967E+03  0.32639937550E+03  0.46830093721E+03  0.00000000000E+00 0. -1.
        -13    1    3    3    0    0 -0.40313947516E+02  0.14048082977E+03  0.23029858772E+03  0.27275908308E+03  0.00000000000E+00 0.  1.
          2    1    6    6  502    0 -0.99125501802E+02  0.81392771522E+02 -0.10786959282E+03  0.16759026648E+03  0.00000000000E+00 0. -1.
          1    1    5    5  503    0  0.28391817877E+03 -0.60877758467E+03  0.16483644916E+03  0.69165796085E+03  0.00000000000E+00 0. -1.
         -2    1    5    5    0  503  0.47412702516E+02 -0.54734623448E+02  0.16941852616E+01  0.72434202057E+02  0.00000000000E+00 0.  1.
         -1    1    6    6    0  502 -0.99460664545E+02  0.11879844717E+03 -0.37249988583E+02  0.15935198929E+03  0.00000000000E+00 0.  1.
<mgrwt>
<rscale>  0 0.17384936E+04</rscale>
<asrwt>0</asrwt>
<pdfrwt beam="1">  1        2 0.96460417E-01 0.17384936E+04</pdfrwt>
<pdfrwt beam="2">  1       -2 0.18540027E+00 0.17384936E+04</pdfrwt>
<totfact> 0.74185125E+00</totfact>
</mgrwt>
</event>
<event>
12    1  0.1442183E-007  0.2209945E+04  0.7818608E-02  0.8514300E-01
         -2   -1    0    0    0  501 -0.00000000000E+00  0.00000000000E+00  0.71103290709E+03  0.71103290709E+03  0.00000000000E+00 0.  1.
          2   -1    0    0  501    0  0.00000000000E+00 -0.00000000000E+00 -0.17171692627E+04  0.17171692627E+04  0.00000000000E+00 0. -1.
         23    2    1    2    0    0  0.72665902717E+03 -0.33796794371E+03  0.73547872908E+02  0.81004985816E+03  0.92281148468E+02 0.  0.
        254    2    1    2    0    0 -0.72665902717E+03  0.33796794371E+03 -0.10796842285E+04  0.16181523116E+04  0.90024618721E+03 0.  0.
        -24    2    4    4    0    0 -0.65440332555E+03 -0.74992944986E+02 -0.29678615612E+03  0.72642259141E+03  0.75763477753E+02 0.  0.
         24    2    4    4    0    0 -0.72255701621E+02  0.41296088869E+03 -0.78289807240E+03  0.89172972022E+03  0.80591067455E+02 0.  0.
         11    1    3    3    0    0  0.24811272683E+03 -0.11907614924E+03 -0.18498355917E+02  0.27582828663E+03  0.00000000000E+00 0. -1.
        -11    1    3    3    0    0  0.47854630034E+03 -0.21889179447E+03  0.92046228824E+02  0.53422157154E+03  0.00000000000E+00 0.  1.
          2    1    6    6  502    0 -0.24423717884E+02  0.72161039824E+02 -0.88798022263E+02  0.11699924111E+03  0.00000000000E+00 0. -1.
          1    1    5    5  503    0 -0.14494712977E+03  0.45871657260E+01 -0.40272381973E+02  0.15050773159E+03  0.00000000000E+00 0. -1.
         -2    1    5    5    0  503 -0.50945619578E+03 -0.79580110712E+02 -0.25651377414E+03  0.57591485982E+03  0.00000000000E+00 0.  1.
         -1    1    6    6    0  502 -0.47831983737E+02  0.34079984887E+03 -0.69410005014E+03  0.77473047911E+03  0.00000000000E+00 0.  1.
<mgrwt>
<rscale>  0 0.22099447E+04</rscale>
<asrwt>0</asrwt>
<pdfrwt beam="1">  1        2 0.26417989E+00 0.22099447E+04</pdfrwt>
<pdfrwt beam="2">  1       -2 0.10938968E+00 0.22099447E+04</pdfrwt>
<totfact> 0.58351252E+00</totfact>
</mgrwt>
</event>
<event>
12    1  0.1442183E-007  0.1871509E+04  0.7818608E-02  0.8669170E-01
          2   -1    0    0  501    0  0.00000000000E+00  0.00000000000E+00  0.19376769447E+04  0.19376769447E+04  0.00000000000E+00 0. -1.
         -2   -1    0    0    0  501 -0.00000000000E+00 -0.00000000000E+00 -0.45190013267E+03  0.45190013267E+03  0.00000000000E+00 0.  1.
         23    2    1    2    0    0 -0.23242212042E+03 -0.30462961134E+03 -0.19849056608E+03  0.44041841899E+03  0.88037700996E+02 0.  0.
        254    2    1    2    0    0  0.23242212042E+03  0.30462961134E+03  0.16842673781E+04  0.19491586584E+04  0.90312990894E+03 0.  0.
        -24    2    4    4    0    0  0.25209620435E+03  0.23941003210E+03  0.11265398565E+03  0.37409695813E+03  0.79924676301E+02 0.  0.
         24    2    4    4    0    0 -0.19674083934E+02  0.65219579241E+02  0.15716133925E+04  0.15750617003E+04  0.78803814275E+02 0.  0.
         13    1    3    3    0    0  0.28321331343E+00 -0.42814213950E+02 -0.23921890760E+02  0.49044816071E+02  0.00000000000E+00 0. -1.
        -13    1    3    3    0    0 -0.23270533373E+03 -0.26181539739E+03 -0.17456867532E+03  0.39137360292E+03  0.00000000000E+00 0.  1.
          2    1    6    6  502    0 -0.23097922793E+02  0.39258782099E+02  0.32532875957E+03  0.32850200580E+03  0.00000000000E+00 0. -1.
          3    1    5    5  503    0  0.17042752558E+03  0.14108066335E+03  0.33540721158E+02  0.22377282012E+03  0.00000000000E+00 0. -1.
         -4    1    5    5    0  503  0.81668678765E+02  0.98329368753E+02  0.79113264496E+02  0.15032413801E+03  0.00000000000E+00 0.  1.
         -1    1    6    6    0  502  0.34238388588E+01  0.25960797142E+02  0.12462846329E+04  0.12465596945E+04  0.00000000000E+00 0.  1.
<mgrwt>
<rscale>  0 0.18715090E+04</rscale>
<asrwt>0</asrwt>
<pdfrwt beam="1">  1        2 0.29810414E+00 0.18715090E+04</pdfrwt>
<pdfrwt beam="2">  1       -2 0.69523098E-01 0.18715090E+04</pdfrwt>
<totfact> 0.12815913E+01</totfact>
</mgrwt>
</event>
<event>
12    1  0.1442183E-007  0.2295508E+04  0.7818608E-02  0.8479695E-01
         -2   -1    0    0    0  501 -0.00000000000E+00  0.00000000000E+00  0.42839630454E+03  0.42839630454E+03  0.00000000000E+00 0.  1.
          2   -1    0    0  501    0  0.00000000000E+00 -0.00000000000E+00 -0.30750469535E+04  0.30750469535E+04  0.00000000000E+00 0. -1.
         23    2    1    2    0    0 -0.18164995205E+03 -0.88951192164E+03 -0.14231402971E+04  0.16905119816E+04  0.90963128398E+02 0.  0.
        254    2    1    2    0    0  0.18164995205E+03  0.88951192164E+03 -0.12235103518E+04  0.18129312764E+04  0.98260575426E+03 0.  0.
        -24    2    4    4    0    0  0.90200303962E+02 -0.16991061796E+02 -0.79169079236E+03  0.80085892008E+03  0.78586946420E+02 0.  0.
         24    2    4    4    0    0  0.91449648087E+02  0.90650298343E+03 -0.43181955943E+03  0.10120723564E+04  0.87815861188E+02 0.  0.
         11    1    3    3    0    0 -0.18573059128E+03 -0.84424110386E+03 -0.13762342165E+04  0.16251952230E+04  0.00000000000E+00 0.  1.
        -11    1    3    3    0    0  0.40806392342E+01 -0.45270817781E+02 -0.46906080590E+02  0.65316758611E+02  0.00000000000E+00 0. -1.
          2    1    6    6  502    0  0.77307763691E+02  0.34433214020E+03 -0.16025283931E+03  0.38758493986E+03  0.00000000000E+00 0. -1.
          3    1    5    5  503    0 -0.13057221815E+02 -0.11299531518E+02 -0.99930736388E+02  0.10141164888E+03  0.00000000000E+00 0. -1.
         -4    1    5    5    0  503  0.10325752578E+03 -0.56915302783E+01 -0.69176005597E+03  0.69944727120E+03  0.00000000000E+00 0.  1.
         -1    1    6    6    0  502  0.14141884395E+02  0.56217084324E+03 -0.27156672013E+03  0.62448741649E+03  0.00000000000E+00 0.  1.
<mgrwt>
<rscale>  0 0.22955076E+04</rscale>
<asrwt>0</asrwt>
<pdfrwt beam="1">  1        2 0.47308414E+00 0.22955076E+04</pdfrwt>
<pdfrwt beam="2">  1       -2 0.65907125E-01 0.22955076E+04</pdfrwt>
<totfact> 0.30030208E+00</totfact>
</mgrwt>
</event>
<event>
12    1  0.1442183E-007  0.3512597E+04  0.7818608E-02  0.8110811E-01
          2   -1    0    0  501    0  0.00000000000E+00  0.00000000000E+00  0.32678577206E+04  0.32678577206E+04  0.00000000000E+00 0. -1.
         -2   -1    0    0    0  501 -0.00000000000E+00 -0.00000000000E+00 -0.94391632299E+03  0.94391632299E+03  0.00000000000E+00 0.  1.
         23    2    1    2    0    0  0.82930655101E+03 -0.64800482890E+03 -0.41950722722E+03  0.11366761137E+04  0.91578709389E+02 0.  0.
        254    2    1    2    0    0 -0.82930655101E+03  0.64800482890E+03  0.27434486248E+04  0.30750979298E+04  0.90667376014E+03 0.  0.
        -24    2    4    4    0    0 -0.32123883613E+03  0.71913601144E+03  0.11268833669E+04  0.13771950959E+04  0.80307016273E+02 0.  0.
         24    2    4    4    0    0 -0.50806771488E+03 -0.71131182537E+02  0.16165652579E+04  0.16979028339E+04  0.79989701232E+02 0.  0.
         13    1    3    3    0    0  0.18617683595E+03 -0.17644958722E+03 -0.69435747479E+02  0.26573971119E+03  0.00000000000E+00 0. -1.
        -13    1    3    3    0    0  0.64312971506E+03 -0.47155524168E+03 -0.35007147974E+03  0.87093640255E+03  0.00000000000E+00 0.  1.
          2    1    6    6  502    0 -0.49615320321E+02  0.15718635889E+02  0.13970586740E+03  0.14908549530E+03  0.00000000000E+00 0. -1.
          1    1    5    5  503    0 -0.15379019648E+03  0.30026783328E+03  0.42116220136E+03  0.53962004790E+03  0.00000000000E+00 0. -1.
         -2    1    5    5    0  503 -0.16744863964E+03  0.41886817815E+03  0.70572116551E+03  0.83757504800E+03  0.00000000000E+00 0.  1.
         -1    1    6    6    0  502 -0.45845239456E+03 -0.86849818427E+02  0.14768593905E+04  0.15488173386E+04  0.00000000000E+00 0.  1.
<mgrwt>
<rscale>  0 0.35125969E+04</rscale>
<asrwt>0</asrwt>
<pdfrwt beam="1">  1        2 0.50274733E+00 0.35125969E+04</pdfrwt>
<pdfrwt beam="2">  1       -2 0.14521790E+00 0.35125969E+04</pdfrwt>
<totfact> 0.31311967E-01</totfact>
</mgrwt>
</event>
<event>
12    1  0.1442183E-007  0.1702032E+04  0.7818608E-02  0.8760206E-01
         -2   -1    0    0    0  501 -0.00000000000E+00  0.00000000000E+00  0.93347124394E+03  0.93347124394E+03  0.00000000000E+00 0.  1.
          2   -1    0    0  501    0  0.00000000000E+00 -0.00000000000E+00 -0.77584456952E+03  0.77584456952E+03  0.00000000000E+00 0. -1.
         23    2    1    2    0    0 -0.52870686405E+03  0.22936026055E+03 -0.84735464275E+02  0.58982492755E+03  0.92608147842E+02 0.  0.
        254    2    1    2    0    0  0.52870686405E+03 -0.22936026055E+03  0.24236213870E+03  0.11194908859E+04  0.92864598214E+03 0.  0.
        -24    2    4    4    0    0  0.77694620227E+03 -0.26661778410E+03  0.15385135950E+03  0.83953275755E+03  0.80090986691E+02 0.  0.
         24    2    4    4    0    0 -0.24823933823E+03  0.37257523543E+02  0.88510779201E+02  0.27995812836E+03  0.86784235296E+02 0.  0.
         11    1    3    3    0    0 -0.21498797084E+03  0.13469204140E+03 -0.10968021877E+02  0.25393320210E+03  0.00000000000E+00 0. -1.
        -11    1    3    3    0    0 -0.31371889321E+03  0.94668219147E+02 -0.73767442399E+02  0.33589172546E+03  0.00000000000E+00 0.  1.
          2    1    6    6  502    0 -0.24046571657E+03  0.41851947418E+02  0.10132949581E+03  0.26427828717E+03  0.00000000000E+00 0. -1.
          3    1    5    5  503    0  0.36960801628E+03 -0.16722008011E+03  0.87867430538E+02  0.41508231261E+03  0.00000000000E+00 0. -1.
         -4    1    5    5    0  503  0.40733818600E+03 -0.99397703981E+02  0.65983928957E+02  0.42445044494E+03  0.00000000000E+00 0.  1.
         -1    1    6    6    0  502 -0.77736216577E+01 -0.45944238743E+01 -0.12818716605E+02  0.15679841192E+02  0.00000000000E+00 0.  1.
<mgrwt>
<rscale>  0 0.17020324E+04</rscale>
<asrwt>0</asrwt>
<pdfrwt beam="1">  1        2 0.11936070E+00 0.17020324E+04</pdfrwt>
<pdfrwt beam="2">  1       -2 0.14361096E+00 0.17020324E+04</pdfrwt>
<totfact> 0.11465699E+01</totfact>
</mgrwt>
</event>
<event>
12    1  0.1442183E-007  0.1515171E+04  0.7818608E-02  0.8874427E-01
          2   -1    0    0  501    0  0.00000000000E+00  0.00000000000E+00  0.13800597643E+04  0.13800597643E+04  0.00000000000E+00 0. -1.
         -2   -1    0    0    0  501 -0.00000000000E+00 -0.00000000000E+00 -0.41587733189E+03  0.41587733189E+03  0.00000000000E+00 0.  1.
         23    2    1    2    0    0  0.18141717220E+03 -0.40597551189E+03  0.61940592187E+02  0.45829658575E+03  0.92037041034E+02 0.  0.
        254    2    1    2    0    0 -0.18141717220E+03  0.40597551189E+03  0.90224184023E+03  0.13376405105E+04  0.88176725405E+03 0.  0.
        -24    2    4    4    0    0 -0.18058358386E+03  0.31601520453E+03  0.10686633834E+04  0.11317683104E+04  0.79887678491E+02 0.  0.
         24    2    4    4    0    0 -0.83358833486E+00  0.89960307359E+02 -0.16642154316E+03  0.20587220005E+03  0.81201483694E+02 0.  0.
         11    1    3    3    0    0  0.11010069517E+02  0.89503638063E+00  0.85373437542E+01  0.13960979882E+02  0.00000000000E+00 0. -1.
        -11    1    3    3    0    0  0.17040710268E+03 -0.40687054827E+03  0.53403248433E+02  0.44433560586E+03  0.00000000000E+00 0.  1.
          2    1    6    6  502    0 -0.33709789982E+02  0.50251482481E+02 -0.12798311080E+03  0.14156707980E+03  0.00000000000E+00 0. -1.
          3    1    5    5  503    0 -0.73167712493E+02  0.61997002089E+02  0.31218600754E+03  0.32658420924E+03  0.00000000000E+00 0. -1.
         -4    1    5    5    0  503 -0.10741587137E+03  0.25401820244E+03  0.75647737585E+03  0.80518410117E+03  0.00000000000E+00 0.  1.
         -1    1    6    6    0  502  0.32876201647E+02  0.39708824878E+02 -0.38438432361E+02  0.64305120249E+02  0.00000000000E+00 0.  1.
<mgrwt>
<rscale>  0 0.15151707E+04</rscale>
<asrwt>0</asrwt>
<pdfrwt beam="1">  1        2 0.21231688E+00 0.15151707E+04</pdfrwt>
<pdfrwt beam="2">  1       -2 0.63981129E-01 0.15151707E+04</pdfrwt>
<totfact> 0.32382023E+01</totfact>
</mgrwt>
</event>
<event>
12    1  0.1442183E-007  0.2257181E+04  0.7818608E-02  0.8494998E-01
          2   -1    0    0  501    0  0.00000000000E+00  0.00000000000E+00  0.28880334409E+04  0.28880334409E+04  0.00000000000E+00 0. -1.
         -2   -1    0    0    0  501 -0.00000000000E+00 -0.00000000000E+00 -0.44103258147E+03  0.44103258147E+03  0.00000000000E+00 0.  1.
         23    2    1    2    0    0 -0.24529346740E+03  0.30147149924E+03  0.23057928114E+04  0.23401922611E+04  0.93623606639E+02 0.  0.
        254    2    1    2    0    0  0.24529346740E+03 -0.30147149924E+03  0.14120804800E+03  0.98887376126E+03  0.89826368783E+03 0.  0.
        -24    2    4    4    0    0 -0.26945156209E+03 -0.27021464210E+03 -0.11743402191E+03  0.40639445483E+03  0.75799777693E+02 0.  0.
         24    2    4    4    0    0  0.51474502949E+03 -0.31256857144E+02  0.25864206991E+03  0.58247930642E+03  0.80293122854E+02 0.  0.
         13    1    3    3    0    0 -0.79144580751E+02  0.54854949509E+02  0.75811299213E+03  0.76420431757E+03  0.00000000000E+00 0.  1.
        -13    1    3    3    0    0 -0.16614888665E+03  0.24661654973E+03  0.15476798193E+04  0.15759879435E+04  0.00000000000E+00 0. -1.
          4    1    6    6  502    0  0.35509949834E+02 -0.71955014900E+01  0.43511950114E+02  0.56621741245E+02  0.00000000000E+00 0. -1.
          1    1    5    5  503    0 -0.40203276594E+02 -0.18669324179E+02 -0.34306881564E+02  0.56051844188E+02  0.00000000000E+00 0. -1.
         -2    1    5    5    0  503 -0.22924828550E+03 -0.25154531792E+03 -0.83127140344E+02  0.35034261064E+03  0.00000000000E+00 0.  1.
         -3    1    6    6    0  502  0.47923507966E+03 -0.24061355654E+02  0.21513011980E+03  0.52585756518E+03  0.00000000000E+00 0.  1.
<mgrwt>
<rscale>  0 0.22571813E+04</rscale>
<asrwt>0</asrwt>
<pdfrwt beam="1">  1        2 0.44431282E+00 0.22571813E+04</pdfrwt>
<pdfrwt beam="2">  1       -2 0.67851168E-01 0.22571813E+04</pdfrwt>
<totfact> 0.37013370E+00</totfact>
</mgrwt>
</event>
<event>
12    1  0.1442183E-007  0.1867346E+04  0.7818608E-02  0.8671283E-01
          4   -1    0    0  501    0  0.00000000000E+00  0.00000000000E+00  0.82849160410E+03  0.82849160410E+03  0.00000000000E+00 0. -1.
         -4   -1    0    0    0  501 -0.00000000000E+00 -0.00000000000E+00 -0.10522074606E+04  0.10522074606E+04  0.00000000000E+00 0.  1.
         23    2    1    2    0    0  0.29243667227E+03  0.25508470777E+03 -0.68613487590E+03  0.79338842600E+03  0.89981726803E+02 0.  0.
        254    2    1    2    0    0 -0.29243667227E+03 -0.25508470777E+03  0.46241901940E+03  0.10873106387E+04  0.90433713852E+03 0.  0.
        -24    2    4    4    0    0 -0.17422000401E+03  0.28934968929E+03 -0.18421811542E+02  0.34686938980E+03  0.76832011255E+02 0.  0.
         24    2    4    4    0    0 -0.11821666826E+03 -0.54443439705E+03  0.48084083094E+03  0.74044124890E+03  0.81617063269E+02 0.  0.
         13    1    3    3    0    0  0.19956497779E+03  0.13782580377E+03 -0.35387259949E+03  0.42900809925E+03  0.00000000000E+00 0.  1.
        -13    1    3    3    0    0  0.92871694475E+02  0.11725890399E+03 -0.33226227641E+03  0.36438032676E+03  0.00000000000E+00 0. -1.
          4    1    6    6  502    0 -0.11645126160E+03 -0.51947006657E+03  0.47760940558E+03  0.71520681672E+03  0.00000000000E+00 0. -1.
          3    1    5    5  503    0 -0.11792093427E+03  0.23563248399E+03  0.10890456828E+02  0.26371692456E+03  0.00000000000E+00 0. -1.
         -4    1    5    5    0  503 -0.56299069741E+02  0.53717205297E+02 -0.29312268370E+02  0.83152465241E+02  0.00000000000E+00 0.  1.
         -3    1    6    6    0  502 -0.17654066531E+01 -0.24964330490E+02  0.32314253658E+01  0.25234432178E+02  0.00000000000E+00 0.  1.
<mgrwt>
<rscale>  0 0.18673458E+04</rscale>
<asrwt>0</asrwt>
<pdfrwt beam="1">  1        4 0.12746025E+00 0.18673458E+04</pdfrwt>
<pdfrwt beam="2">  1       -4 0.16187807E+00 0.18673458E+04</pdfrwt>
<totfact> 0.20705344E-01</totfact>
</mgrwt>
</event>
<event>
12    1  0.1442183E-007  0.1840156E+04  0.7818608E-02  0.8685232E-01
          1   -1    0    0  501    0  0.00000000000E+00  0.00000000000E+00  0.96318114529E+03  0.96318114529E+03  0.00000000000E+00 0. -1.
         -1   -1    0    0    0  501 -0.00000000000E+00 -0.00000000000E+00 -0.87890394478E+03  0.87890394478E+03  0.00000000000E+00 0.  1.
         23    2    1    2    0    0  0.28669481083E+03 -0.34806458616E+03  0.56871694879E+03  0.73158152264E+03  0.91813320007E+02 0.  0.
        254    2    1    2    0    0 -0.28669481083E+03  0.34806458616E+03 -0.48443974828E+03  0.11105035674E+04  0.89173619017E+03 0.  0.
        -24    2    4    4    0    0 -0.42764416008E+03  0.10421287636E+02 -0.57887159385E+03  0.72424443151E+03  0.80309049999E+02 0.  0.
         24    2    4    4    0    0  0.14094934925E+03  0.33764329852E+03  0.94431845573E+02  0.38625913592E+03  0.80056420934E+02 0.  0.
         13    1    3    3    0    0  0.28082000161E+03 -0.29736873746E+03  0.51123401806E+03  0.65471234947E+03  0.00000000000E+00 0. -1.
        -13    1    3    3    0    0  0.58748092158E+01 -0.50695848697E+02  0.57482930735E+02  0.76869173173E+02  0.00000000000E+00 0.  1.
          2    1    6    6  502    0  0.85311340896E+02  0.14131953163E+03  0.98456551308E+01  0.16536677970E+03  0.00000000000E+00 0. -1.
          3    1    5    5  503    0 -0.45059765000E+02  0.14402350744E+02 -0.10523096746E+03  0.11537489606E+03  0.00000000000E+00 0. -1.
         -4    1    5    5    0  503 -0.38258439508E+03 -0.39810631071E+01 -0.47364062639E+03  0.60886953545E+03  0.00000000000E+00 0.  1.
         -1    1    6    6    0  502  0.55638008358E+02  0.19632376690E+03  0.84586190442E+02  0.22089235622E+03  0.00000000000E+00 0.  1.
<mgrwt>
<rscale>  0 0.18401562E+04</rscale>
<asrwt>0</asrwt>
<pdfrwt beam="1">  1        1 0.14818171E+00 0.18401562E+04</pdfrwt>
<pdfrwt beam="2">  1       -1 0.13521599E+00 0.18401562E+04</pdfrwt>
<totfact> 0.69801959E+00</totfact>
</mgrwt>
</event>
<event>
12    1  0.1442183E-007  0.1398792E+04  0.7818608E-02  0.8954694E-01
         -2   -1    0    0    0  501 -0.00000000000E+00  0.00000000000E+00  0.26563185452E+03  0.26563185452E+03  0.00000000000E+00 0.  1.
          2   -1    0    0  501    0  0.00000000000E+00 -0.00000000000E+00 -0.18414756680E+04  0.18414756680E+04  0.00000000000E+00 0. -1.
         23    2    1    2    0    0  0.31488971519E+03 -0.18712547808E+03 -0.25581323802E+03  0.45698182384E+03  0.96023420552E+02 0.  0.
        254    2    1    2    0    0 -0.31488971519E+03  0.18712547808E+03 -0.13200305755E+04  0.16501256987E+04  0.91992533610E+03 0.  0.
        -24    2    4    4    0    0  0.72153581431E+02 -0.16561825378E+03 -0.10247061939E+04  0.10437897193E+04  0.82696124517E+02 0.  0.
         24    2    4    4    0    0 -0.38704329662E+03  0.35274373186E+03 -0.29532438160E+03  0.60633597941E+03  0.78715790860E+02 0.  0.
         13    1    3    3    0    0  0.20009530373E+03 -0.16926622459E+03 -0.16733241026E+03  0.31094906477E+03  0.00000000000E+00 0. -1.
        -13    1    3    3    0    0  0.11479441147E+03 -0.17859253484E+02 -0.88480827765E+02  0.14603275907E+03  0.00000000000E+00 0.  1.
          4    1    6    6  502    0 -0.18493906150E+03  0.22038156367E+03 -0.15096777270E+03  0.32490269077E+03  0.00000000000E+00 0. -1.
          1    1    5    5  503    0 -0.40845768701E+01  0.59164663019E+01 -0.13371089146E+02  0.15181382238E+02  0.00000000000E+00 0. -1.
         -2    1    5    5    0  503  0.76238158301E+02 -0.17153472008E+03 -0.10113351047E+04  0.10286083370E+04  0.00000000000E+00 0.  1.
         -3    1    6    6    0  502 -0.20210423512E+03  0.13236216819E+03 -0.14435660890E+03  0.28143328864E+03  0.00000000000E+00 0.  1.
<mgrwt>
<rscale>  0 0.13987918E+04</rscale>
<asrwt>0</asrwt>
<pdfrwt beam="1">  1        2 0.28330394E+00 0.13987918E+04</pdfrwt>
<pdfrwt beam="2">  1       -2 0.40866440E-01 0.13987918E+04</pdfrwt>
<totfact> 0.45173944E+01</totfact>
</mgrwt>
</event>
<event>
12    1  0.1442183E-007  0.1160301E+04  0.7818608E-02  0.9148333E-01
         -2   -1    0    0    0  501 -0.00000000000E+00  0.00000000000E+00  0.78448089776E+02  0.78448089776E+02  0.00000000000E+00 0.  1.
          2   -1    0    0  501    0  0.00000000000E+00 -0.00000000000E+00 -0.42904104353E+04  0.42904104353E+04  0.00000000000E+00 0. -1.
         23    2    1    2    0    0 -0.17631022786E+03  0.66117451279E+01 -0.43763308228E+03  0.48194329919E+03  0.98069451458E+02 0.  0.
        254    2    1    2    0    0  0.17631022786E+03 -0.66117451279E+01 -0.37743292632E+04  0.38869152259E+04  0.91182211764E+03 0.  0.
        -24    2    4    4    0    0  0.42440095376E+03 -0.86299229052E+02 -0.33769382919E+04  0.34055221577E+04  0.79405368313E+02 0.  0.
         24    2    4    4    0    0 -0.24809072590E+03  0.79687483924E+02 -0.39739097129E+03  0.48139306818E+03  0.76945426427E+02 0.  0.
         13    1    3    3    0    0 -0.15987786658E+02 -0.20419128236E+01 -0.35546974319E+00  0.16121572161E+02  0.00000000000E+00 0.  1.
        -13    1    3    3    0    0 -0.16032244120E+03  0.86536579515E+01 -0.43727761254E+03  0.46582172703E+03  0.00000000000E+00 0. -1.
          4    1    6    6  502    0 -0.19764574671E+03  0.84320345158E+02 -0.27547192685E+03  0.34936877978E+03  0.00000000000E+00 0. -1.
          3    1    5    5  503    0  0.17426817043E+03  0.22670787171E+01 -0.14318586685E+04  0.14424263522E+04  0.00000000000E+00 0. -1.
         -4    1    5    5    0  503  0.25013278333E+03 -0.88566307769E+02 -0.19450796234E+04  0.19630958055E+04  0.00000000000E+00 0.  1.
         -3    1    6    6    0  502 -0.50444979191E+02 -0.46328612334E+01 -0.12191904444E+03  0.13202428840E+03  0.00000000000E+00 0.  1.
<mgrwt>
<rscale>  0 0.11603008E+04</rscale>
<asrwt>0</asrwt>
<pdfrwt beam="1">  1        2 0.66006305E+00 0.11603008E+04</pdfrwt>
<pdfrwt beam="2">  1       -2 0.12068939E-01 0.11603008E+04</pdfrwt>
<totfact> 0.10202297E+01</totfact>
</mgrwt>
</event>
<event>
12    1  0.1442183E-007  0.1541656E+04  0.7818608E-02  0.8857215E-01
          1   -1    0    0  501    0  0.00000000000E+00  0.00000000000E+00  0.13658517079E+04  0.13658517079E+04  0.00000000000E+00 0. -1.
         -1   -1    0    0    0  501 -0.00000000000E+00 -0.00000000000E+00 -0.43502211865E+03  0.43502211865E+03  0.00000000000E+00 0.  1.
         23    2    1    2    0    0 -0.20301419372E+03  0.21649300123E+03 -0.16578549410E+03  0.35294105792E+03  0.94860834259E+02 0.  0.
        254    2    1    2    0    0  0.20301419372E+03 -0.21649300123E+03  0.10966150833E+04  0.14479327686E+04  0.89769743176E+03 0.  0.
        -24    2    4    4    0    0  0.24423582849E+03 -0.24935256252E+03  0.10977169790E+02  0.35800721248E+03  0.78872210441E+02 0.  0.
         24    2    4    4    0    0 -0.41221634766E+02  0.32859561290E+02  0.10856379135E+04  0.10899255561E+04  0.80926291497E+02 0.  0.
         11    1    3    3    0    0 -0.83478292807E+02  0.15689996375E+03 -0.10214585643E+03  0.20498780447E+03  0.00000000000E+00 0. -1.
        -11    1    3    3    0    0 -0.11953590091E+03  0.59593037477E+02 -0.63639637669E+02  0.14795325345E+03  0.00000000000E+00 0.  1.
          2    1    6    6  502    0 -0.17657321095E+01 -0.25814146616E+02  0.28858490920E+03  0.28974253708E+03  0.00000000000E+00 0. -1.
          3    1    5    5  503    0  0.21114327828E+03 -0.19955056147E+03 -0.18958368954E+02  0.29113799186E+03  0.00000000000E+00 0. -1.
         -4    1    5    5    0  503  0.33092550205E+02 -0.49802001041E+02  0.29935538743E+02  0.66869220622E+02  0.00000000000E+00 0.  1.
         -1    1    6    6    0  502 -0.39455902657E+02  0.58673707906E+02  0.79705300433E+03  0.80018301905E+03  0.00000000000E+00 0.  1.
<mgrwt>
<rscale>  0 0.15416559E+04</rscale>
<asrwt>0</asrwt>
<pdfrwt beam="1">  1        1 0.21013103E+00 0.15416559E+04</pdfrwt>
<pdfrwt beam="2">  1       -1 0.66926480E-01 0.15416559E+04</pdfrwt>
<totfact> 0.17707206E+01</totfact>
</mgrwt>
</event>
<event>
12    1  0.1442183E-007  0.2120871E+04  0.7818608E-02  0.8552105E-01
         -1   -1    0    0    0  501 -0.00000000000E+00  0.00000000000E+00  0.11436090655E+04  0.11436090655E+04  0.00000000000E+00 0.  1.
          1   -1    0    0  501    0  0.00000000000E+00 -0.00000000000E+00 -0.98331087266E+03  0.98331087266E+03  0.00000000000E+00 0. -1.
         23    2    1    2    0    0  0.67287699371E+03 -0.37803351283E+03  0.45721139940E+03  0.90170114826E+03  0.91377850470E+02 0.  0.
        254    2    1    2    0    0 -0.67287699371E+03  0.37803351283E+03 -0.29691320661E+03  0.12252187899E+04  0.90406351838E+03 0.  0.
        -24    2    4    4    0    0 -0.79255707962E+03  0.53246601349E+03 -0.15421931381E+03  0.97054734300E+03  0.80695528240E+02 0.  0.
         24    2    4    4    0    0  0.11968008591E+03 -0.15443250066E+03 -0.14269389280E+03  0.25467144685E+03  0.79519045369E+02 0.  0.
         13    1    3    3    0    0  0.42099951997E+03 -0.26825639074E+03  0.25505517864E+03  0.56058472254E+03  0.00000000000E+00 0.  1.
        -13    1    3    3    0    0  0.25187747374E+03 -0.10977712209E+03  0.20215622076E+03  0.34111642573E+03  0.00000000000E+00 0. -1.
          4    1    6    6  502    0  0.23895946418E+02 -0.39672611563E+02  0.23695299396E+01  0.46373990938E+02  0.00000000000E+00 0. -1.
          1    1    5    5  503    0 -0.45123066238E+03  0.31674167503E+03 -0.12767133068E+03  0.56589254108E+03  0.00000000000E+00 0. -1.
         -2    1    5    5    0  503 -0.34132641724E+03  0.21572433845E+03 -0.26547983133E+02  0.40465480192E+03  0.00000000000E+00 0.  1.
         -3    1    6    6    0  502  0.95784139493E+02 -0.11475988910E+03 -0.14506342274E+03  0.20829745592E+03  0.00000000000E+00 0.  1.
<mgrwt>
<rscale>  0 0.21208708E+04</rscale>
<asrwt>0</asrwt>
<pdfrwt beam="1">  1        1 0.15127860E+00 0.21208708E+04</pdfrwt>
<pdfrwt beam="2">  1       -1 0.17593986E+00 0.21208708E+04</pdfrwt>
<totfact> 0.31876538E+00</totfact>
</mgrwt>
</event>
<event>
12    1  0.1442183E-007  0.1444482E+04  0.7818608E-02  0.8922235E-01
          2   -1    0    0  501    0  0.00000000000E+00  0.00000000000E+00  0.19220375176E+04  0.19220375176E+04  0.00000000000E+00 0. -1.
         -2   -1    0    0    0  501 -0.00000000000E+00 -0.00000000000E+00 -0.27139538167E+03  0.27139538167E+03  0.00000000000E+00 0.  1.
         23    2    1    2    0    0 -0.22030289886E+03  0.15426837491E+03  0.10172147475E+04  0.10561720008E+04  0.91876840876E+02 0.  0.
        254    2    1    2    0    0  0.22030289886E+03 -0.15426837491E+03  0.63342738835E+03  0.11372608984E+04  0.90542807338E+03 0.  0.
        -24    2    4    4    0    0 -0.18413400806E+03 -0.40598193141E+03  0.23105685442E+03  0.50860020331E+03  0.80995279298E+02 0.  0.
         24    2    4    4    0    0  0.40443690692E+03  0.25171355651E+03  0.40237053393E+03  0.62866069513E+03  0.79895536895E+02 0.  0.
         13    1    3    3    0    0 -0.55287717100E+02  0.97404616634E+01  0.33166375042E+03  0.33638140793E+03  0.00000000000E+00 0. -1.
        -13    1    3    3    0    0 -0.16501518176E+03  0.14452791324E+03  0.68555099712E+03  0.71979059286E+03  0.00000000000E+00 0.  1.
          2    1    6    6  502    0  0.87854403759E+02  0.55839433933E+02  0.47798955838E+02  0.11454771417E+03  0.00000000000E+00 0. -1.
          3    1    5    5  503    0 -0.53663744769E+02 -0.61833732997E+02  0.66324584481E+02  0.10536678103E+03  0.00000000000E+00 0. -1.
         -4    1    5    5    0  503 -0.13047026330E+03 -0.34414819842E+03  0.16473226994E+03  0.40323342227E+03  0.00000000000E+00 0.  1.
         -1    1    6    6    0  502  0.31658250317E+03  0.19587412257E+03  0.35457157809E+03  0.51411298096E+03  0.00000000000E+00 0.  1.
<mgrwt>
<rscale>  0 0.14444821E+04</rscale>
<asrwt>0</asrwt>
<pdfrwt beam="1">  1        2 0.29569807E+00 0.14444821E+04</pdfrwt>
<pdfrwt beam="2">  1       -2 0.41753137E-01 0.14444821E+04</pdfrwt>
<totfact> 0.38940675E+01</totfact>
</mgrwt>
</event>
<event>
12    1  0.1442183E-007  0.2422475E+04  0.7818608E-02  0.8431137E-01
         -1   -1    0    0    0  501 -0.00000000000E+00  0.00000000000E+00  0.20417445627E+04  0.20417445627E+04  0.00000000000E+00 0.  1.
          1   -1    0    0  501    0  0.00000000000E+00 -0.00000000000E+00 -0.71855026224E+03  0.71855026224E+03  0.00000000000E+00 0. -1.
         23    2    1    2    0    0  0.74154223946E+03 -0.45196062970E+03 -0.83163153026E+02  0.87726407917E+03  0.92319287689E+02 0.  0.
        254    2    1    2    0    0 -0.74154223946E+03  0.45196062970E+03  0.14063574535E+04  0.18830307458E+04  0.90211429365E+03 0.  0.
        -24    2    4    4    0    0 -0.37943291231E+03  0.20451275503E+03  0.34810148578E+02  0.44080801553E+03  0.85470218169E+02 0.  0.
         24    2    4    4    0    0 -0.36210932715E+03  0.24744787467E+03  0.13715473049E+04  0.14422227302E+04  0.80689395330E+02 0.  0.
         13    1    3    3    0    0  0.55817451288E+03 -0.31096158231E+03 -0.28509778661E+02  0.63958478717E+03  0.00000000000E+00 0. -1.
        -13    1    3    3    0    0  0.18336772658E+03 -0.14099904739E+03 -0.54653374365E+02  0.23767929200E+03  0.00000000000E+00 0.  1.
          2    1    6    6  502    0 -0.36094426014E+03  0.23223103318E+03  0.12983681429E+04  0.13674691390E+04  0.00000000000E+00 0. -1.
          1    1    5    5  503    0 -0.26372482658E+03  0.12563028896E+03  0.60796117159E+02  0.29837882217E+03  0.00000000000E+00 0. -1.
         -2    1    5    5    0  503 -0.11570808573E+03  0.78882466068E+02 -0.25985968581E+02  0.14242919335E+03  0.00000000000E+00 0.  1.
         -1    1    6    6    0  502 -0.11650670141E+01  0.15216841482E+02  0.73179162032E+02  0.74753591229E+02  0.00000000000E+00 0.  1.
<mgrwt>
<rscale>  0 0.24224748E+04</rscale>
<asrwt>0</asrwt>
<pdfrwt beam="1">  1        1 0.11054619E+00 0.24224748E+04</pdfrwt>
<pdfrwt beam="2">  1       -1 0.31411455E+00 0.24224748E+04</pdfrwt>
<totfact> 0.62605047E-01</totfact>
</mgrwt>
</event>
<event>
12    1  0.1442183E-007  0.1693034E+04  0.7818608E-02  0.8765347E-01
         -1   -1    0    0    0  501 -0.00000000000E+00  0.00000000000E+00  0.34769688031E+03  0.34769688031E+03  0.00000000000E+00 0.  1.
          1   -1    0    0  501    0  0.00000000000E+00 -0.00000000000E+00 -0.20609648082E+04  0.20609648082E+04  0.00000000000E+00 0. -1.
         23    2    1    2    0    0  0.25318035280E+03  0.18887037641E+03  0.11576798586E+03  0.34847021557E+03  0.90867785617E+02 0.  0.
        254    2    1    2    0    0 -0.25318035280E+03 -0.18887037641E+03 -0.18290359137E+04  0.20601914729E+04  0.89400459798E+03 0.  0.
        -24    2    4    4    0    0  0.14102050422E+03  0.69675139148E+02 -0.14224266463E+04  0.14328065981E+04  0.69969820702E+02 0.  0.
         24    2    4    4    0    0 -0.39420085702E+03 -0.25854551556E+03 -0.40660926744E+03  0.62738487482E+03  0.77721203686E+02 0.  0.
         11    1    3    3    0    0 -0.13235733578E+01 -0.71958835523E+01  0.13903129770E+01  0.74475201715E+01  0.00000000000E+00 0. -1.
        -11    1    3    3    0    0  0.25450392615E+03  0.19606625997E+03  0.11437767288E+03  0.34102269540E+03  0.00000000000E+00 0.  1.
          2    1    6    6  502    0 -0.12820166067E+03 -0.53307642142E+02 -0.15176064466E+03  0.20569069930E+03  0.00000000000E+00 0. -1.
          1    1    5    5  503    0  0.53126019218E+02  0.64290967179E+02 -0.75630487620E+03  0.76088945856E+03  0.00000000000E+00 0. -1.
         -2    1    5    5    0  503  0.87894485004E+02  0.53841719691E+01 -0.66612177008E+03  0.67191713952E+03  0.00000000000E+00 0.  1.
         -1    1    6    6    0  502 -0.26599919634E+03 -0.20523787342E+03 -0.25484862278E+03  0.42169417553E+03  0.00000000000E+00 0.  1.
<mgrwt>
<rscale>  0 0.16930340E+04</rscale>
<asrwt>0</asrwt>
<pdfrwt beam="1">  1        1 0.31707151E+00 0.16930340E+04</pdfrwt>
<pdfrwt beam="2">  1       -1 0.53491828E-01 0.16930340E+04</pdfrwt>
<totfact> 0.90986770E+00</totfact>
</mgrwt>
</event>
<event>
12    1  0.1442183E-007  0.1162252E+04  0.7818608E-02  0.9146555E-01
         -2   -1    0    0    0  501 -0.00000000000E+00  0.00000000000E+00  0.10346969234E+03  0.10346969234E+03  0.00000000000E+00 0.  1.
          2   -1    0    0  501    0  0.00000000000E+00 -0.00000000000E+00 -0.32638282022E+04  0.32638282022E+04  0.00000000000E+00 0. -1.
         23    2    1    2    0    0  0.21291515814E+03  0.10342148402E+03 -0.51136412362E+03  0.57155229719E+03  0.95655076051E+02 0.  0.
        254    2    1    2    0    0 -0.21291515814E+03 -0.10342148402E+03 -0.26489943862E+04  0.27957455973E+04  0.86197060205E+03 0.  0.
        -24    2    4    4    0    0  0.30499458388E+02  0.32707744416E+03 -0.15733992884E+04  0.16094116595E+04  0.81918848470E+02 0.  0.
         24    2    4    4    0    0 -0.24341461653E+03 -0.43049892818E+03 -0.10755950979E+04  0.11863339378E+04  0.76833552259E+02 0.  0.
         13    1    3    3    0    0  0.10672239044E+03  0.78675005412E+02 -0.18611898947E+03  0.22851630869E+03  0.00000000000E+00 0.  1.
        -13    1    3    3    0    0  0.10619276771E+03  0.24746478604E+02 -0.32524513415E+03  0.34303598850E+03  0.00000000000E+00 0. -1.
          2    1    6    6  502    0 -0.14059939811E+03 -0.17166796589E+03 -0.48769233813E+03  0.53580024070E+03  0.00000000000E+00 0. -1.
          1    1    5    5  503    0 -0.15586641030E+02  0.18546368778E+02 -0.72646092182E+02  0.76579147833E+02  0.00000000000E+00 0. -1.
         -2    1    5    5    0  503  0.46086099418E+02  0.30853107538E+03 -0.15007531962E+04  0.15328325117E+04  0.00000000000E+00 0.  1.
         -1    1    6    6    0  502 -0.10281521842E+03 -0.25883096228E+03 -0.58790275975E+03  0.65053369713E+03  0.00000000000E+00 0.  1.
<mgrwt>
<rscale>  0 0.11622518E+04</rscale>
<asrwt>0</asrwt>
<pdfrwt beam="1">  1        2 0.50212749E+00 0.11622518E+04</pdfrwt>
<pdfrwt beam="2">  1       -2 0.15918412E-01 0.11622518E+04</pdfrwt>
<totfact> 0.37778355E+01</totfact>
</mgrwt>
</event>
<event>
12    1  0.1442183E-007  0.1222152E+04  0.7818608E-02  0.9093685E-01
          1   -1    0    0  501    0  0.00000000000E+00  0.00000000000E+00  0.25705707447E+04  0.25705707447E+04  0.00000000000E+00 0. -1.
         -1   -1    0    0    0  501 -0.00000000000E+00 -0.00000000000E+00 -0.14526489629E+03  0.14526489629E+03  0.00000000000E+00 0.  1.
         23    2    1    2    0    0  0.10481156709E+03 -0.23839385459E+03  0.55269194925E+03  0.61786818402E+03  0.92063062975E+02 0.  0.
        254    2    1    2    0    0 -0.10481156709E+03  0.23839385459E+03  0.18726138991E+04  0.20979674569E+04  0.90937755668E+03 0.  0.
        -24    2    4    4    0    0 -0.40460371422E+01 -0.33409040767E+03  0.51768388024E+03  0.62145112597E+03  0.81068681988E+02 0.  0.
         24    2    4    4    0    0 -0.10076552995E+03  0.57248426227E+03  0.13549300189E+04  0.14765163309E+04  0.79832304901E+02 0.  0.
         13    1    3    3    0    0  0.99955697313E+02 -0.22612690522E+03  0.55178805124E+03  0.60464416990E+03  0.00000000000E+00 0.  1.
        -13    1    3    3    0    0  0.48558697747E+01 -0.12266949369E+02  0.90389800199E+00  0.13224014130E+02  0.00000000000E+00 0. -1.
          2    1    6    6  502    0 -0.10943164951E+03  0.42038339076E+03  0.10037923180E+04  0.10937533995E+04  0.00000000000E+00 0. -1.
          3    1    5    5  503    0  0.18530144784E+02 -0.21005222128E+03  0.26152686197E+03  0.33594880780E+03  0.00000000000E+00 0. -1.
         -4    1    5    5    0  503 -0.22576181926E+02 -0.12403818639E+03  0.25615701827E+03  0.28550231817E+03  0.00000000000E+00 0.  1.
         -1    1    6    6    0  502  0.86661195647E+01  0.15210087151E+03  0.35113770086E+03  0.38276293147E+03  0.00000000000E+00 0.  1.
<mgrwt>
<rscale>  0 0.12221517E+04</rscale>
<asrwt>0</asrwt>
<pdfrwt beam="1">  1        1 0.39547239E+00 0.12221517E+04</pdfrwt>
<pdfrwt beam="2">  1       -1 0.22348448E-01 0.12221517E+04</pdfrwt>
<totfact> 0.20413998E+01</totfact>
</mgrwt>
</event>
<event>
12    1  0.1442183E-007  0.3380691E+04  0.7818608E-02  0.8142662E-01
          1   -1    0    0  501    0  0.00000000000E+00  0.00000000000E+00  0.20286286190E+04  0.20286286190E+04  0.00000000000E+00 0. -1.
         -1   -1    0    0    0  501 -0.00000000000E+00 -0.00000000000E+00 -0.14084724974E+04  0.14084724974E+04  0.00000000000E+00 0.  1.
         23    2    1    2    0    0 -0.18643944246E+03  0.13258024135E+04 -0.54514740908E+03  0.14486308218E+04  0.93988589718E+02 0.  0.
        254    2    1    2    0    0  0.18643944246E+03 -0.13258024135E+04  0.11653035307E+04  0.19884702946E+04  0.89642070953E+03 0.  0.
        -24    2    4    4    0    0 -0.10998364772E+03 -0.11464170006E+04  0.55164763708E+03  0.12792811109E+04  0.76659658322E+02 0.  0.
         24    2    4    4    0    0  0.29642309018E+03 -0.17938541286E+03  0.61365589367E+03  0.70918918368E+03  0.79561093992E+02 0.  0.
         13    1    3    3    0    0 -0.12105300763E+02  0.33087318221E+03 -0.11114738444E+03  0.34925254770E+03  0.00000000000E+00 0. -1.
        -13    1    3    3    0    0 -0.17433414170E+03  0.99492923126E+03 -0.43400002464E+03  0.10993782741E+04  0.00000000000E+00 0.  1.
          4    1    6    6  502    0  0.33058163056E+02 -0.59164607068E+01  0.26797720253E+02  0.42964688556E+02  0.00000000000E+00 0. -1.
          1    1    5    5  503    0  0.19750692584E+01 -0.34488302779E+03  0.16870391013E+03  0.38393907465E+03  0.00000000000E+00 0. -1.
         -2    1    5    5    0  503 -0.11195871698E+03 -0.80153397282E+03  0.38294372696E+03  0.89534203626E+03  0.00000000000E+00 0.  1.
         -1    1    6    6    0  502  0.26336492712E+03 -0.17346895216E+03  0.58685817342E+03  0.66622449513E+03  0.00000000000E+00 0.  1.
<mgrwt>
<rscale>  0 0.33806908E+04</rscale>
<asrwt>0</asrwt>
<pdfrwt beam="1">  1        1 0.31209671E+00 0.33806908E+04</pdfrwt>
<pdfrwt beam="2">  1       -1 0.21668808E+00 0.33806908E+04</pdfrwt>
<totfact> 0.27201710E-01</totfact>
</mgrwt>
</event>
<event>
12    1  0.1442183E-007  0.1618271E+04  0.7818608E-02  0.8809401E-01
          2   -1    0    0  501    0  0.00000000000E+00  0.00000000000E+00  0.38047738236E+04  0.38047738236E+04  0.00000000000E+00 0. -1.
         -2   -1    0    0    0  501 -0.00000000000E+00 -0.00000000000E+00 -0.17207347043E+03  0.17207347043E+03  0.00000000000E+00 0.  1.
         23    2    1    2    0    0 -0.15594546228E+02 -0.20320681176E+03 -0.53927957367E+01  0.22344602842E+03  0.91448603881E+02 0.  0.
        254    2    1    2    0    0  0.15594546228E+02  0.20320681176E+03  0.36380931489E+04  0.37534012656E+04  0.90042384596E+03 0.  0.
        -24    2    4    4    0    0 -0.38639302471E+00 -0.85589169095E+01 -0.21724517232E+02  0.86559891561E+02  0.83350199879E+02 0.  0.
         24    2    4    4    0    0  0.15980939252E+02  0.21176572867E+03  0.36598176662E+04  0.36668413741E+04  0.79750854685E+02 0.  0.
         11    1    3    3    0    0 -0.35681604538E+02 -0.18822743009E+03 -0.22805970205E+02  0.19293225396E+03  0.00000000000E+00 0.  1.
        -11    1    3    3    0    0  0.20087058310E+02 -0.14979381676E+02  0.17413174468E+02  0.30513774464E+02  0.00000000000E+00 0. -1.
          4    1    6    6  502    0  0.32295410838E+02  0.31829728844E+02  0.61648623397E+03  0.61815160105E+03  0.00000000000E+00 0. -1.
          3    1    5    5  503    0 -0.25264380572E+02 -0.37304433517E+02 -0.17403877740E+02  0.48299116411E+02  0.00000000000E+00 0. -1.
         -4    1    5    5    0  503  0.24877987547E+02  0.28745516608E+02 -0.43206394926E+01  0.38260775150E+02  0.00000000000E+00 0.  1.
         -3    1    6    6    0  502 -0.16314471585E+02  0.17993599983E+03  0.30433314322E+04  0.30486897730E+04  0.00000000000E+00 0.  1.
<mgrwt>
<rscale>  0 0.16182715E+04</rscale>
<asrwt>0</asrwt>
<pdfrwt beam="1">  1        2 0.58534976E+00 0.16182715E+04</pdfrwt>
<pdfrwt beam="2">  1       -2 0.26472844E-01 0.16182715E+04</pdfrwt>
<totfact> 0.61257506E+00</totfact>
</mgrwt>
</event>
<event>
12    1  0.1442183E-007  0.1775650E+04  0.7818608E-02  0.8719357E-01
          2   -1    0    0  501    0  0.00000000000E+00  0.00000000000E+00  0.71197983823E+03  0.71197983823E+03  0.00000000000E+00 0. -1.
         -2   -1    0    0    0  501 -0.00000000000E+00 -0.00000000000E+00 -0.11070999045E+04  0.11070999045E+04  0.00000000000E+00 0.  1.
         23    2    1    2    0    0  0.44073043897E+03 -0.31858387180E+03 -0.56855753428E+03  0.79263820659E+03  0.96325767882E+02 0.  0.
        254    2    1    2    0    0 -0.44073043897E+03  0.31858387180E+03  0.17343746802E+03  0.10264415361E+04  0.85309007060E+03 0.  0.
        -24    2    4    4    0    0 -0.14440304828E+03  0.32244099091E+03  0.47474601764E+03  0.59711751332E+03  0.79656201767E+02 0.  0.
         24    2    4    4    0    0 -0.29632739069E+03 -0.38571191068E+01 -0.30130854962E+03  0.42932402280E+03  0.75547830173E+02 0.  0.
         11    1    3    3    0    0  0.16527320423E+03 -0.67520476936E+02 -0.20733141806E+03  0.27360658574E+03  0.00000000000E+00 0. -1.
        -11    1    3    3    0    0  0.27545723474E+03 -0.25106339487E+03 -0.36122611621E+03  0.51903162086E+03  0.00000000000E+00 0.  1.
          2    1    6    6  502    0 -0.13892863625E+03 -0.94778642515E+00 -0.19474238945E+03  0.23922094916E+03  0.00000000000E+00 0. -1.
          3    1    5    5  503    0 -0.14962304356E+03  0.28988482162E+03  0.45040600892E+03  0.55613472994E+03  0.00000000000E+00 0. -1.
         -4    1    5    5    0  503  0.52199952780E+01  0.32556169289E+02  0.24340008712E+02  0.40982783380E+02  0.00000000000E+00 0.  1.
         -1    1    6    6    0  502 -0.15739875443E+03 -0.29093326816E+01 -0.10656616017E+03  0.19010307364E+03  0.00000000000E+00 0.  1.
<mgrwt>
<rscale>  0 0.17756495E+04</rscale>
<asrwt>0</asrwt>
<pdfrwt beam="1">  1        2 0.10953536E+00 0.17756495E+04</pdfrwt>
<pdfrwt beam="2">  1       -2 0.17032306E+00 0.17756495E+04</pdfrwt>
<totfact> 0.80357414E+00</totfact>
</mgrwt>
</event>
<event>
12    1  0.1442183E-007  0.1639831E+04  0.7818608E-02  0.8796445E-01
          1   -1    0    0  501    0  0.00000000000E+00  0.00000000000E+00  0.93298911789E+03  0.93298911789E+03  0.00000000000E+00 0. -1.
         -1   -1    0    0    0  501 -0.00000000000E+00 -0.00000000000E+00 -0.72054603173E+03  0.72054603173E+03  0.00000000000E+00 0.  1.
         23    2    1    2    0    0  0.10073228108E+03 -0.39195384708E+02 -0.48845030187E+03  0.50803821942E+03  0.88520417772E+02 0.  0.
        254    2    1    2    0    0 -0.10073228108E+03  0.39195384708E+02  0.70089338802E+03  0.11454969302E+04  0.89957123403E+03 0.  0.
        -24    2    4    4    0    0  0.15755433738E+03 -0.35411351594E+03  0.16650263786E+03  0.42900541049E+03  0.78120179297E+02 0.  0.
         24    2    4    4    0    0 -0.25828661846E+03  0.39330890065E+03  0.53439075017E+03  0.71649151971E+03  0.79892148239E+02 0.  0.
         13    1    3    3    0    0 -0.69630184447E+01 -0.38493021032E+01 -0.15334831448E+01  0.81026121157E+01  0.00000000000E+00 0. -1.
        -13    1    3    3    0    0  0.10769529952E+03 -0.35346082605E+02 -0.48691681872E+03  0.49993560730E+03  0.00000000000E+00 0.  1.
          4    1    6    6  502    0 -0.89898687958E+02  0.20322040341E+03  0.22513065462E+03  0.31632912940E+03  0.00000000000E+00 0. -1.
          3    1    5    5  503    0  0.89761304634E+02 -0.28042141168E+03  0.11214984709E+03  0.31507276642E+03  0.00000000000E+00 0. -1.
         -2    1    5    5    0  503  0.67793032747E+02 -0.73692104262E+02  0.54352790768E+02  0.11393264407E+03  0.00000000000E+00 0.  1.
         -3    1    6    6    0  502 -0.16838793050E+03  0.19008849724E+03  0.30926009555E+03  0.40016239031E+03  0.00000000000E+00 0.  1.
<mgrwt>
<rscale>  0 0.16398312E+04</rscale>
<asrwt>0</asrwt>
<pdfrwt beam="1">  1        1 0.14353679E+00 0.16398312E+04</pdfrwt>
<pdfrwt beam="2">  1       -1 0.11085323E+00 0.16398312E+04</pdfrwt>
<totfact> 0.12261363E+01</totfact>
</mgrwt>
</event>
<event>
12    1  0.1442183E-007  0.1609183E+04  0.7818608E-02  0.8814926E-01
         -1   -1    0    0    0  501 -0.00000000000E+00  0.00000000000E+00  0.37959983167E+03  0.37959983167E+03  0.00000000000E+00 0.  1.
          1   -1    0    0  501    0  0.00000000000E+00 -0.00000000000E+00 -0.17053943349E+04  0.17053943349E+04  0.00000000000E+00 0. -1.
         23    2    1    2    0    0  0.35040385492E+03 -0.26118543997E+03 -0.70130139161E+03  0.83115335968E+03  0.89395580707E+02 0.  0.
        254    2    1    2    0    0 -0.35040385492E+03  0.26118543997E+03 -0.62449311161E+03  0.12538408069E+04  0.99555232254E+03 0.  0.
        -24    2    4    4    0    0  0.15637481753E+03  0.36058019550E+03 -0.61116474089E+03  0.73106411384E+03  0.80381820614E+02 0.  0.
         24    2    4    4    0    0 -0.50677867245E+03 -0.99394755523E+02 -0.13328370716E+02  0.52277669303E+03  0.80086734425E+02 0.  0.
         13    1    3    3    0    0  0.18551678383E+03 -0.11453643925E+03 -0.27326100160E+03  0.34958067452E+03  0.00000000000E+00 0. -1.
        -13    1    3    3    0    0  0.16488707109E+03 -0.14664900072E+03 -0.42804039000E+03  0.48157268517E+03  0.00000000000E+00 0.  1.
          2    1    6    6  502    0 -0.31728738303E+03 -0.22815055968E+02 -0.26554998046E+01  0.31811768559E+03  0.00000000000E+00 0. -1.
          3    1    5    5  503    0  0.97692657550E+02  0.13599881729E+03 -0.28862439291E+03  0.33368184522E+03  0.00000000000E+00 0. -1.
         -4    1    5    5    0  503  0.58682159984E+02  0.22458137821E+03 -0.32254034798E+03  0.39738226862E+03  0.00000000000E+00 0.  1.
         -1    1    6    6    0  502 -0.18949128942E+03 -0.76579699554E+02 -0.10672870912E+02  0.20465900744E+03  0.00000000000E+00 0.  1.
<mgrwt>
<rscale>  0 0.16091829E+04</rscale>
<asrwt>0</asrwt>
<pdfrwt beam="1">  1        1 0.26236836E+00 0.16091829E+04</pdfrwt>
<pdfrwt beam="2">  1       -1 0.58399974E-01 0.16091829E+04</pdfrwt>
<totfact> 0.13462554E+01</totfact>
</mgrwt>
</event>
<event>
12    1  0.1442183E-007  0.1931458E+04  0.7818608E-02  0.8639354E-01
         -1   -1    0    0    0  501 -0.00000000000E+00  0.00000000000E+00  0.95774017674E+03  0.95774017674E+03  0.00000000000E+00 0.  1.
          1   -1    0    0  501    0  0.00000000000E+00 -0.00000000000E+00 -0.97378489790E+03  0.97378489790E+03  0.00000000000E+00 0. -1.
         23    2    1    2    0    0 -0.55703619441E+03  0.15352080764E+03 -0.48651996401E+03  0.76073788440E+03  0.90346516881E+02 0.  0.
        254    2    1    2    0    0  0.55703619441E+03 -0.15352080764E+03  0.47047524285E+03  0.11707871902E+04  0.90307127651E+03 0.  0.
        -24    2    4    4    0    0  0.56063711327E+03 -0.42090775912E+03  0.53307847627E+03  0.88432996888E+03  0.79934457713E+02 0.  0.
         24    2    4    4    0    0 -0.36009188576E+01  0.26738695148E+03 -0.62603233421E+02  0.28645722137E+03  0.81423745919E+02 0.  0.
         13    1    3    3    0    0 -0.33138207361E+03  0.70911438926E+02 -0.33581937566E+03  0.47709240609E+03  0.00000000000E+00 0. -1.
        -13    1    3    3    0    0 -0.22565412081E+03  0.82609368712E+02 -0.15070058835E+03  0.28364547831E+03  0.00000000000E+00 0.  1.
          2    1    6    6  502    0  0.29949772954E+02  0.11094761635E+03 -0.75159872754E+00  0.11492139650E+03  0.00000000000E+00 0. -1.
          3    1    5    5  503    0  0.35862732954E+03 -0.31542895327E+03  0.36780135879E+03  0.60281574762E+03  0.00000000000E+00 0. -1.
         -4    1    5    5    0  503  0.20200978373E+03 -0.10547880585E+03  0.16527711748E+03  0.28151422126E+03  0.00000000000E+00 0.  1.
         -3    1    6    6    0  502 -0.33550691812E+02  0.15643933514E+03 -0.61851634693E+02  0.17153582487E+03  0.00000000000E+00 0.  1.
<mgrwt>
<rscale>  0 0.19314584E+04</rscale>
<asrwt>0</asrwt>
<pdfrwt beam="1">  1        1 0.14981306E+00 0.19314584E+04</pdfrwt>
<pdfrwt beam="2">  1       -1 0.14734464E+00 0.19314584E+04</pdfrwt>
<totfact> 0.54205367E+00</totfact>
</mgrwt>
</event>
<event>
12    1  0.1442183E-007  0.1259173E+04  0.7818608E-02  0.9062583E-01
          2   -1    0    0  501    0  0.00000000000E+00  0.00000000000E+00  0.14930138438E+04  0.14930138438E+04  0.00000000000E+00 0. -1.
         -2   -1    0    0    0  501 -0.00000000000E+00 -0.00000000000E+00 -0.26548941777E+03  0.26548941777E+03  0.00000000000E+00 0.  1.
         23    2    1    2    0    0  0.42847038771E+02 -0.41545003418E+03  0.40034841005E+03  0.58459723786E+03  0.83907576850E+02 0.  0.
        254    2    1    2    0    0 -0.42847038771E+02  0.41545003418E+03  0.82717601594E+03  0.11739060237E+04  0.72069452018E+03 0.  0.
        -24    2    4    4    0    0 -0.32562242394E+03  0.42144490871E+03  0.51006457331E+03  0.74178416300E+03  0.80200383230E+02 0.  0.
         24    2    4    4    0    0  0.28277538517E+03 -0.59948745252E+01  0.31711144262E+03  0.43212186067E+03  0.78560667286E+02 0.  0.
         11    1    3    3    0    0  0.31114230126E+01 -0.53312775889E+02  0.96138943565E+02  0.10997558591E+03  0.00000000000E+00 0. -1.
        -11    1    3    3    0    0  0.39735615758E+02 -0.36213725829E+03  0.30420946649E+03  0.47462165196E+03  0.00000000000E+00 0.  1.
          4    1    6    6  502    0  0.12367209158E+03 -0.11863500811E+02  0.19609124482E+03  0.23213639349E+03  0.00000000000E+00 0. -1.
          1    1    5    5  503    0 -0.21261031128E+03  0.23693759175E+03  0.25934664585E+03  0.41061326033E+03  0.00000000000E+00 0. -1.
         -2    1    5    5    0  503 -0.11301211267E+03  0.18450731696E+03  0.25071792746E+03  0.33117090266E+03  0.00000000000E+00 0.  1.
         -3    1    6    6    0  502  0.15910329359E+03  0.58686262862E+01  0.12102019781E+03  0.19998546718E+03  0.00000000000E+00 0.  1.
<mgrwt>
<rscale>  0 0.12591733E+04</rscale>
<asrwt>0</asrwt>
<pdfrwt beam="1">  1        2 0.22969443E+00 0.12591733E+04</pdfrwt>
<pdfrwt beam="2">  1       -2 0.40844527E-01 0.12591733E+04</pdfrwt>
<totfact> 0.71437846E+01</totfact>
</mgrwt>
</event>
<event>
12    1  0.1442183E-007  0.2316573E+04  0.7818608E-02  0.8471415E-01
          2   -1    0    0  501    0  0.00000000000E+00  0.00000000000E+00  0.13565569914E+04  0.13565569914E+04  0.00000000000E+00 0. -1.
         -2   -1    0    0    0  501 -0.00000000000E+00 -0.00000000000E+00 -0.98899446095E+03  0.98899446095E+03  0.00000000000E+00 0.  1.
         23    2    1    2    0    0 -0.79595366375E+03 -0.56792597533E+03  0.23429203617E+03  0.10096331349E+04  0.91565061681E+02 0.  0.
        254    2    1    2    0    0  0.79595366375E+03  0.56792597533E+03  0.13327049428E+03  0.13359183175E+04  0.90046353511E+03 0.  0.
        -24    2    4    4    0    0  0.34089771959E+03 -0.19864863443E+03 -0.91798444943E+02  0.41294581606E+03  0.80154583896E+02 0.  0.
         24    2    4    4    0    0  0.45505594416E+03  0.76657460976E+03  0.22506893922E+03  0.92297250143E+03  0.80682503340E+02 0.  0.
         13    1    3    3    0    0 -0.44434319522E+03 -0.31831239677E+03  0.17757952034E+03  0.57471570634E+03  0.00000000000E+00 0. -1.
        -13    1    3    3    0    0 -0.35161046853E+03 -0.24961357856E+03  0.56712515828E+02  0.43491742853E+03  0.00000000000E+00 0.  1.
          2    1    6    6  502    0  0.23105974804E+03  0.45177345469E+03  0.10293376519E+03  0.51776753620E+03  0.00000000000E+00 0. -1.
          3    1    5    5  503    0  0.26803042183E+03 -0.15781382839E+03 -0.37435463012E+02  0.31328409687E+03  0.00000000000E+00 0. -1.
         -4    1    5    5    0  503  0.72867297759E+02 -0.40834806040E+02 -0.54362981931E+02  0.99661719187E+02  0.00000000000E+00 0.  1.
         -3    1    6    6    0  502  0.22399619612E+03  0.31480115508E+03  0.12213517403E+03  0.40520496523E+03  0.00000000000E+00 0.  1.
<mgrwt>
<rscale>  0 0.23165728E+04</rscale>
<asrwt>0</asrwt>
<pdfrwt beam="1">  1        2 0.20870108E+00 0.23165728E+04</pdfrwt>
<pdfrwt beam="2">  1       -2 0.15215299E+00 0.23165728E+04</pdfrwt>
<totfact> 0.40038647E+00</totfact>
</mgrwt>
</event>
<event>
12    1  0.1442183E-007  0.2417259E+04  0.7818608E-02  0.8433070E-01
          1   -1    0    0  501    0  0.00000000000E+00  0.00000000000E+00  0.17835892571E+04  0.17835892571E+04  0.00000000000E+00 0. -1.
         -1   -1    0    0    0  501 -0.00000000000E+00 -0.00000000000E+00 -0.81901459440E+03  0.81901459440E+03  0.00000000000E+00 0.  1.
         23    2    1    2    0    0 -0.51119090900E+03  0.57149639583E+03  0.11795691104E+04  0.14098974942E+04  0.92213784107E+02 0.  0.
        254    2    1    2    0    0  0.51119090900E+03 -0.57149639583E+03 -0.21499444768E+03  0.11927063573E+04  0.88791979729E+03 0.  0.
        -24    2    4    4    0    0  0.49493283533E+03 -0.27105137403E+03 -0.50850997910E+03  0.76377774964E+03  0.79666135498E+02 0.  0.
         24    2    4    4    0    0  0.16258073673E+02 -0.30044502180E+03  0.29351553142E+03  0.42892860770E+03  0.85421585300E+02 0.  0.
         11    1    3    3    0    0 -0.10199300390E+03  0.88440907396E+02  0.15528498285E+03  0.20576149505E+03  0.00000000000E+00 0.  1.
        -11    1    3    3    0    0 -0.40919790511E+03  0.48305548843E+03  0.10242841276E+04  0.12041359991E+04  0.00000000000E+00 0. -1.
          4    1    6    6  502    0  0.34894868946E+02 -0.81399835562E+02  0.11846816284E+03  0.14791311880E+03  0.00000000000E+00 0. -1.
          1    1    5    5  503    0  0.39045082151E+03 -0.22486917809E+03 -0.44404972800E+03  0.63261216572E+03  0.00000000000E+00 0. -1.
         -2    1    5    5    0  503  0.10448201382E+03 -0.46182195935E+02 -0.64460251097E+02  0.13116558392E+03  0.00000000000E+00 0.  1.
         -3    1    6    6    0  502 -0.18636795273E+02 -0.21904518624E+03  0.17504736859E+03  0.28101548890E+03  0.00000000000E+00 0.  1.
<mgrwt>
<rscale>  0 0.24172593E+04</rscale>
<asrwt>0</asrwt>
<pdfrwt beam="1">  1        1 0.27439835E+00 0.24172593E+04</pdfrwt>
<pdfrwt beam="2">  1       -1 0.12600225E+00 0.24172593E+04</pdfrwt>
<totfact> 0.20516883E+00</totfact>
</mgrwt>
</event>
<event>
12    1  0.1859444E-007  0.2101341E+04  0.7818608E-02  0.8560653E-01
          1   -1    0    0  501    0  0.00000000000E+00  0.00000000000E+00  0.61932016204E+03  0.61932016204E+03  0.00000000000E+00 0. -1.
         -1   -1    0    0    0  501 -0.00000000000E+00 -0.00000000000E+00 -0.17824525928E+04  0.17824525928E+04  0.00000000000E+00 0.  1.
         23    2    1    2    0    0 -0.63203645707E+03  0.22318086838E+03  0.13322809074E+03  0.69017383186E+03  0.96490470727E+02 0.  0.
        254    2    1    2    0    0  0.63203645707E+03 -0.22318086838E+03 -0.12963605215E+04  0.17115989230E+04  0.89428210783E+03 0.  0.
        -24    2    4    4    0    0 -0.14186342254E+03  0.91695512647E+02 -0.25746244729E+02  0.18892283905E+03  0.80595733774E+02 0.  0.
         24    2    4    4    0    0  0.77389987961E+03 -0.31487638103E+03 -0.12706142768E+04  0.15226760839E+04  0.77547774031E+02 0.  0.
         13    1    3    3    0    0 -0.61280497605E+03  0.19839152365E+03  0.11633440317E+03  0.65454016583E+03  0.00000000000E+00 0. -1.
        -13    1    3    3    0    0 -0.19231481019E+02  0.24789344734E+02  0.16893687574E+02  0.35633666025E+02  0.00000000000E+00 0.  1.
          2    1    6    6  502    0  0.12921121227E+03 -0.72205871566E+02 -0.26931974100E+03  0.30731473794E+03  0.00000000000E+00 0. -1.
          1    1    5    5  503    0  0.35468274788E+00  0.20176628051E+02  0.14350782458E+02  0.24762210655E+02  0.00000000000E+00 0. -1.
         -2    1    5    5    0  503 -0.14221810529E+03  0.71518884596E+02 -0.40097027187E+02  0.16416062840E+03  0.00000000000E+00 0.  1.
         -1    1    6    6    0  502  0.64468866735E+03 -0.24267050946E+03 -0.10012945358E+04  0.12153613460E+04  0.00000000000E+00 0.  1.
<mgrwt>
<rscale>  0 0.21013413E+04</rscale>
<asrwt>0</asrwt>
<pdfrwt beam="1">  1        1 0.95280025E-01 0.21013413E+04</pdfrwt>
<pdfrwt beam="2">  1       -1 0.27422348E+00 0.21013413E+04</pdfrwt>
<totfact> 0.14592135E+00</totfact>
</mgrwt>
</event>
<event>
12    1  0.1442183E-007  0.3265953E+04  0.7818608E-02  0.8171613E-01
          1   -1    0    0  501    0  0.00000000000E+00  0.00000000000E+00  0.11986853312E+04  0.11986853312E+04  0.00000000000E+00 0. -1.
         -1   -1    0    0    0  501 -0.00000000000E+00 -0.00000000000E+00 -0.22246141764E+04  0.22246141764E+04  0.00000000000E+00 0.  1.
         23    2    1    2    0    0  0.14053125594E+03  0.25224949428E+03 -0.20256804603E+04  0.20482200651E+04  0.91898130523E+02 0.  0.
        254    2    1    2    0    0 -0.14053125594E+03 -0.25224949428E+03  0.99975161507E+03  0.13750794426E+04  0.89886669773E+03 0.  0.
        -24    2    4    4    0    0 -0.24007465944E+01 -0.25737604139E+03 -0.81236572721E+02  0.28227200946E+03  0.82643307710E+02 0.  0.
         24    2    4    4    0    0 -0.13813050935E+03  0.51265471103E+01  0.10809881878E+04  0.10928074331E+04  0.81156051051E+02 0.  0.
         11    1    3    3    0    0  0.60951306153E+02  0.90083429747E+02 -0.48849847858E+03  0.50046063743E+03  0.00000000000E+00 0.  1.
        -11    1    3    3    0    0  0.79579949788E+02  0.16216606453E+03 -0.15371819817E+04  0.15477594277E+04  0.00000000000E+00 0. -1.
          4    1    6    6  502    0 -0.12597694557E+03 -0.34327876694E+01  0.10576867974E+04  0.10651682197E+04  0.00000000000E+00 0. -1.
          3    1    5    5  503    0  0.97675995523E+01 -0.20444588811E+03 -0.95877729908E+02  0.22602226939E+03  0.00000000000E+00 0. -1.
         -4    1    5    5    0  503 -0.12168346147E+02 -0.52930153277E+02  0.14641157187E+02  0.56249740067E+02  0.00000000000E+00 0.  1.
         -1    1    6    6    0  502 -0.12153563777E+02  0.85593347797E+01  0.23301390395E+02  0.27639213424E+02  0.00000000000E+00 0.  1.
<mgrwt>
<rscale>  0 0.32659531E+04</rscale>
<asrwt>0</asrwt>
<pdfrwt beam="1">  1        1 0.18441313E+00 0.32659531E+04</pdfrwt>
<pdfrwt beam="2">  1       -1 0.34224833E+00 0.32659531E+04</pdfrwt>
<totfact> 0.15574428E-01</totfact>
</mgrwt>
</event>
<event>
12    1  0.1442183E-007  0.2095107E+04  0.7818608E-02  0.8563402E-01
         -2   -1    0    0    0  501 -0.00000000000E+00  0.00000000000E+00  0.73768792935E+03  0.73768792935E+03  0.00000000000E+00 0.  1.
          2   -1    0    0  501    0  0.00000000000E+00 -0.00000000000E+00 -0.14875780992E+04  0.14875780992E+04  0.00000000000E+00 0. -1.
         23    2    1    2    0    0  0.47215871480E+03  0.54519284820E+03  0.17357648527E+03  0.74750869389E+03  0.92039977772E+02 0.  0.
        254    2    1    2    0    0 -0.47215871480E+03 -0.54519284820E+03 -0.92346665508E+03  0.14777573346E+04  0.90044821245E+03 0.  0.
        -24    2    4    4    0    0 -0.38318898201E+03  0.16946015452E+03 -0.30236255830E+03  0.52352196450E+03  0.84270936565E+02 0.  0.
         24    2    4    4    0    0 -0.88969732790E+02 -0.71465300271E+03 -0.62110409678E+03  0.95423537013E+03  0.78423943582E+02 0.  0.
         13    1    3    3    0    0  0.45464781096E+03  0.52880629604E+03  0.14890393127E+03  0.71310105279E+03  0.00000000000E+00 0.  1.
        -13    1    3    3    0    0  0.17510903841E+02  0.16386552158E+02  0.24672554000E+02  0.34407641097E+02  0.00000000000E+00 0. -1.
          4    1    6    6  502    0 -0.14476539587E+02 -0.23787562458E+02 -0.38068807027E+02  0.47166220906E+02  0.00000000000E+00 0. -1.
          3    1    5    5  503    0 -0.10571923858E+03  0.49285737719E+02 -0.40366985569E+02  0.12343068854E+03  0.00000000000E+00 0. -1.
         -4    1    5    5    0  503 -0.27746974343E+03  0.12017441680E+03 -0.26199557274E+03  0.40009127596E+03  0.00000000000E+00 0.  1.
         -3    1    6    6    0  502 -0.74493193203E+02 -0.69086544025E+03 -0.58303528975E+03  0.90706914922E+03  0.00000000000E+00 0.  1.
<mgrwt>
<rscale>  0 0.20951071E+04</rscale>
<asrwt>0</asrwt>
<pdfrwt beam="1">  1        2 0.22885817E+00 0.20951071E+04</pdfrwt>
<pdfrwt beam="2">  1       -2 0.11349045E+00 0.20951071E+04</pdfrwt>
<totfact> 0.72439929E+00</totfact>
</mgrwt>
</event>
<event>
12    1  0.1442183E-007  0.1770091E+04  0.7818608E-02  0.8722368E-01
         -2   -1    0    0    0  501 -0.00000000000E+00  0.00000000000E+00  0.59572068285E+03  0.59572068285E+03  0.00000000000E+00 0.  1.
          2   -1    0    0  501    0  0.00000000000E+00 -0.00000000000E+00 -0.13148879681E+04  0.13148879681E+04  0.00000000000E+00 0. -1.
         23    2    1    2    0    0  0.37773321800E+03  0.11625009066E+03 -0.84079134279E+03  0.93337538321E+03  0.89794522720E+02 0.  0.
        254    2    1    2    0    0 -0.37773321800E+03 -0.11625009066E+03  0.12162405754E+03  0.97723326774E+03  0.88543547514E+03 0.  0.
        -24    2    4    4    0    0 -0.42258333356E+02 -0.83522167772E+02  0.47031573664E+03  0.48576970196E+03  0.77547353052E+02 0.  0.
         24    2    4    4    0    0 -0.33547488464E+03 -0.32727922893E+02 -0.34869167910E+03  0.49146356577E+03  0.79599210091E+02 0.  0.
         11    1    3    3    0    0  0.27639566741E+03  0.41827209590E+02 -0.58385184635E+03  0.64732299427E+03  0.00000000000E+00 0.  1.
        -11    1    3    3    0    0  0.10133755060E+03  0.74422881075E+02 -0.25693949644E+03  0.28605238894E+03  0.00000000000E+00 0. -1.
          4    1    6    6  502    0 -0.90947595887E+02 -0.35295523171E+02 -0.13597719513E+03  0.16735303030E+03  0.00000000000E+00 0. -1.
          3    1    5    5  503    0 -0.15293721401E+02  0.13650156406E+02  0.69278399085E+02  0.72247638467E+02  0.00000000000E+00 0. -1.
         -4    1    5    5    0  503 -0.26964611955E+02 -0.97172324179E+02  0.40103733756E+03  0.41352206350E+03  0.00000000000E+00 0.  1.
         -3    1    6    6    0  502 -0.24452728876E+03  0.25676002784E+01 -0.21271448396E+03  0.32411053547E+03  0.00000000000E+00 0.  1.
<mgrwt>
<rscale>  0 0.17700915E+04</rscale>
<asrwt>0</asrwt>
<pdfrwt beam="1">  1        2 0.20229045E+00 0.17700915E+04</pdfrwt>
<pdfrwt beam="2">  1       -2 0.91649337E-01 0.17700915E+04</pdfrwt>
<totfact> 0.15540419E+01</totfact>
</mgrwt>
</event>
<event>
12    1  0.1442183E-007  0.1456948E+04  0.7818608E-02  0.8913597E-01
          2   -1    0    0  501    0  0.00000000000E+00  0.00000000000E+00  0.69965179098E+03  0.69965179098E+03  0.00000000000E+00 0.  1.
         -2   -1    0    0    0  501 -0.00000000000E+00 -0.00000000000E+00 -0.75848402465E+03  0.75848402465E+03  0.00000000000E+00 0. -1.
         23    2    1    2    0    0 -0.29837968647E+03 -0.54482028930E+02  0.30564043542E+03  0.44006426927E+03  0.90784120558E+02 0.  0.
        254    2    1    2    0    0  0.29837968647E+03  0.54482028930E+02 -0.36447266909E+03  0.10180715464E+04  0.90090544356E+03 0.  0.
        -24    2    4    4    0    0  0.40645690395E+03  0.24249756546E+03 -0.54394428580E+03  0.72538759920E+03  0.79369383289E+02 0.  0.
         24    2    4    4    0    0 -0.10807721747E+03 -0.18801553653E+03  0.17947161671E+03  0.29268394716E+03  0.80145522687E+02 0.  0.
         11    1    3    3    0    0 -0.22617673112E+03 -0.18515709874E+01  0.23497739646E+03  0.32614984112E+03  0.00000000000E+00 0.  1.
        -11    1    3    3    0    0 -0.72202955353E+02 -0.52630457942E+02  0.70663038957E+02  0.11391442814E+03  0.00000000000E+00 0. -1.
          2    1    6    6  502    0 -0.11370848455E+03 -0.19055777610E+03  0.16372208913E+03  0.27576585713E+03  0.00000000000E+00 0. -1.
          1    1    5    5  503    0  0.31281115774E+03  0.17391861029E+03 -0.35824447720E+03  0.50639669119E+03  0.00000000000E+00 0. -1.
         -2    1    5    5    0  503  0.93645746208E+02  0.68578955171E+02 -0.18569980861E+03  0.21899090801E+03  0.00000000000E+00 0.  1.
         -1    1    6    6    0  502  0.56312670817E+01  0.25422395721E+01  0.15749527585E+02  0.16918090026E+02  0.00000000000E+00 0.  1.
<mgrwt>
<rscale>  0 0.14569485E+04</rscale>
<asrwt>0</asrwt>
<pdfrwt beam="1">  1        2 0.10763874E+00 0.14569485E+04</pdfrwt>
<pdfrwt beam="2">  1       -2 0.11668985E+00 0.14569485E+04</pdfrwt>
<totfact> 0.22608968E+01</totfact>
</mgrwt>
</event>
<event>
12    1  0.1706940E-007  0.1689385E+04  0.7818608E-02  0.8767442E-01
          2   -1    0    0  501    0  0.00000000000E+00  0.00000000000E+00  0.84876418180E+03  0.84876418180E+03  0.00000000000E+00 0. -1.
         -2   -1    0    0    0  501 -0.00000000000E+00 -0.00000000000E+00 -0.84064010215E+03  0.84064010215E+03  0.00000000000E+00 0.  1.
         23    2    1    2    0    0 -0.22060294485E+03 -0.12252929445E+03 -0.53243509674E+03  0.59530136784E+03  0.84955865272E+02 0.  0.
        254    2    1    2    0    0  0.22060294485E+03  0.12252929445E+03  0.54055917638E+03  0.10941029161E+04  0.91715750043E+03 0.  0.
        -24    2    4    4    0    0  0.18077100783E+03 -0.17097124618E+02 -0.23121012877E+03  0.30450845297E+03  0.79352412333E+02 0.  0.
         24    2    4    4    0    0  0.39831937019E+02  0.13962641907E+03  0.77176930515E+03  0.78959446314E+03  0.82154949604E+02 0.  0.
         11    1    3    3    0    0 -0.19886079931E+03 -0.13502148853E+03 -0.46706081095E+03  0.52528299134E+03  0.00000000000E+00 0.  1.
        -11    1    3    3    0    0 -0.21742145536E+02  0.12492194083E+02 -0.65374285790E+02  0.70018376503E+02  0.00000000000E+00 0. -1.
          4    1    6    6  502    0 -0.15877422587E+02 -0.24725349023E+00  0.59184515855E+02  0.61277733308E+02  0.00000000000E+00 0. -1.
          3    1    5    5  503    0  0.18124475646E+02  0.39660306291E+01  0.27854109775E+01  0.18761250776E+02  0.00000000000E+00 0. -1.
         -4    1    5    5    0  503  0.16264653218E+03 -0.21063155247E+02 -0.23399553975E+03  0.28574720219E+03  0.00000000000E+00 0.  1.
         -3    1    6    6    0  502  0.55709359606E+02  0.13987367256E+03  0.71258478930E+03  0.72831672984E+03  0.00000000000E+00 0.  1.
<mgrwt>
<rscale>  0 0.16893848E+04</rscale>
<asrwt>0</asrwt>
<pdfrwt beam="1">  1        2 0.13057910E+00 0.16893848E+04</pdfrwt>
<pdfrwt beam="2">  1       -2 0.12932925E+00 0.16893848E+04</pdfrwt>
<totfact> 0.13325110E+01</totfact>
</mgrwt>
</event>
<event>
12    1  0.1442183E-007  0.1725285E+04  0.7818608E-02  0.8747073E-01
          1   -1    0    0  501    0  0.00000000000E+00  0.00000000000E+00  0.64048841812E+03  0.64048841812E+03  0.00000000000E+00 0. -1.
         -1   -1    0    0    0  501 -0.00000000000E+00 -0.00000000000E+00 -0.11618509642E+04  0.11618509642E+04  0.00000000000E+00 0.  1.
         23    2    1    2    0    0  0.26425509752E+03  0.40182938322E+03 -0.57172164090E+03  0.75266814981E+03  0.91356988127E+02 0.  0.
        254    2    1    2    0    0 -0.26425509752E+03 -0.40182938322E+03  0.50359094776E+02  0.10496712326E+04  0.93165232155E+03 0.  0.
        -24    2    4    4    0    0  0.10291229096E+03  0.89247355459E+02  0.33395552818E+03  0.36950643790E+03  0.80328592414E+02 0.  0.
         24    2    4    4    0    0 -0.36716738848E+03 -0.49107673868E+03 -0.28359643341E+03  0.68016479466E+03  0.78923738011E+02 0.  0.
         11    1    3    3    0    0  0.94233884780E+02  0.14182416399E+03 -0.13805377102E+03  0.21920985887E+03  0.00000000000E+00 0. -1.
        -11    1    3    3    0    0  0.17002121274E+03  0.26000521923E+03 -0.43366786988E+03  0.53345829094E+03  0.00000000000E+00 0.  1.
          4    1    6    6  502    0 -0.95069150781E+02 -0.86296081303E+02 -0.82404332816E+02  0.15256353150E+03  0.00000000000E+00 0. -1.
          1    1    5    5  503    0  0.27500215256E+02 -0.75617734865E+01  0.11523851792E+03  0.11871545085E+03  0.00000000000E+00 0. -1.
         -2    1    5    5    0  503  0.75412075699E+02  0.96809128946E+02  0.21871701026E+03  0.25079098705E+03  0.00000000000E+00 0.  1.
         -3    1    6    6    0  502 -0.27209823770E+03 -0.40478065738E+03 -0.20119210059E+03  0.52760126316E+03  0.00000000000E+00 0.  1.
<mgrwt>
<rscale>  0 0.17252850E+04</rscale>
<asrwt>0</asrwt>
<pdfrwt beam="1">  1        1 0.98536681E-01 0.17252850E+04</pdfrwt>
<pdfrwt beam="2">  1       -1 0.17874630E+00 0.17252850E+04</pdfrwt>
<totfact> 0.62802133E+00</totfact>
</mgrwt>
</event>
<event>
12    1  0.1442183E-007  0.1892321E+04  0.7818608E-02  0.8658688E-01
          1   -1    0    0  501    0  0.00000000000E+00  0.00000000000E+00  0.40121591792E+04  0.40121591792E+04  0.00000000000E+00 0. -1.
         -1   -1    0    0    0  501 -0.00000000000E+00 -0.00000000000E+00 -0.22312669684E+03  0.22312669684E+03  0.00000000000E+00 0.  1.
         23    2    1    2    0    0  0.39399540146E+03 -0.60841897789E+03  0.15777651456E+04  0.17387342056E+04  0.91911665263E+02 0.  0.
        254    2    1    2    0    0 -0.39399540146E+03  0.60841897789E+03  0.22112673368E+04  0.24965516704E+04  0.90424608336E+03 0.  0.
        -24    2    4    4    0    0 -0.25251672248E+03  0.54664835807E+03  0.53003584854E+03  0.80640091755E+03  0.82190732903E+02 0.  0.
         24    2    4    4    0    0 -0.14147867899E+03  0.61770619814E+02  0.16812314883E+04  0.16901507529E+04  0.78983695940E+02 0.  0.
         11    1    3    3    0    0  0.18614691656E+03 -0.35571914352E+03  0.93241229648E+03  0.10151746028E+04  0.00000000000E+00 0. -1.
        -11    1    3    3    0    0  0.20784848490E+03 -0.25269983437E+03  0.64535284910E+03  0.72355960280E+03  0.00000000000E+00 0.  1.
          2    1    6    6  502    0  0.89361064343E+01  0.10255391250E+01  0.44486650414E+02  0.45386868077E+02  0.00000000000E+00 0. -1.
          3    1    5    5  503    0 -0.23782846612E+01  0.57502724477E+02  0.38729562349E+02  0.69370011965E+02  0.00000000000E+00 0. -1.
         -4    1    5    5    0  503 -0.25013843781E+03  0.48914563360E+03  0.49130628619E+03  0.73703090558E+03  0.00000000000E+00 0.  1.
         -1    1    6    6    0  502 -0.15041478542E+03  0.60745080689E+02  0.16367448379E+04  0.16447638848E+04  0.00000000000E+00 0.  1.
<mgrwt>
<rscale>  0 0.18923211E+04</rscale>
<asrwt>0</asrwt>
<pdfrwt beam="1">  1        1 0.61725521E+00 0.18923211E+04</pdfrwt>
<pdfrwt beam="2">  1       -1 0.34327187E-01 0.18923211E+04</pdfrwt>
<totfact> 0.71128838E-01</totfact>
</mgrwt>
</event>
<event>
12    1  0.1442183E-007  0.2519899E+04  0.7818608E-02  0.8395930E-01
         -2   -1    0    0    0  501 -0.00000000000E+00  0.00000000000E+00  0.81884457106E+03  0.81884457106E+03  0.00000000000E+00 0.  1.
          2   -1    0    0  501    0  0.00000000000E+00 -0.00000000000E+00 -0.19386747285E+04  0.19386747285E+04  0.00000000000E+00 0. -1.
         23    2    1    2    0    0  0.46279346646E+03 -0.37232136147E+03  0.50736602503E+03  0.78656796167E+03  0.92021118018E+02 0.  0.
        254    2    1    2    0    0 -0.46279346646E+03  0.37232136147E+03 -0.16271961825E+04  0.19709513379E+04  0.94025569466E+03 0.  0.
        -24    2    4    4    0    0  0.25156384814E+03  0.26633331381E+03 -0.68709975569E+03  0.78284703586E+03  0.80781207942E+02 0.  0.
         24    2    4    4    0    0 -0.71435731460E+03  0.10598804766E+03 -0.94009642678E+03  0.11881043020E+04  0.79187762445E+02 0.  0.
         11    1    3    3    0    0  0.29228559314E+03 -0.18784476062E+03  0.32884910582E+03  0.47839132147E+03  0.00000000000E+00 0.  1.
        -11    1    3    3    0    0  0.17050787332E+03 -0.18447660084E+03  0.17851691920E+03  0.30817664020E+03  0.00000000000E+00 0. -1.
          4    1    6    6  502    0 -0.43379224499E+03  0.52674052514E+02 -0.50702813838E+03  0.66934878855E+03  0.00000000000E+00 0. -1.
          1    1    5    5  503    0  0.22758779613E+03  0.25087144419E+03 -0.66658173378E+03  0.74770575380E+03  0.00000000000E+00 0. -1.
         -2    1    5    5    0  503  0.23976052002E+02  0.15461869622E+02 -0.20518021907E+02  0.35141282059E+02  0.00000000000E+00 0.  1.
         -3    1    6    6    0  502 -0.28056506961E+03  0.53313995146E+02 -0.43306828840E+03  0.51875551350E+03  0.00000000000E+00 0.  1.
<mgrwt>
<rscale>  0 0.25198994E+04</rscale>
<asrwt>0</asrwt>
<pdfrwt beam="1">  1        2 0.29825765E+00 0.25198994E+04</pdfrwt>
<pdfrwt beam="2">  1       -2 0.12597609E+00 0.25198994E+04</pdfrwt>
<totfact> 0.30258705E+00</totfact>
</mgrwt>
</event>
<event>
12    1  0.1442183E-007  0.2047498E+04  0.7818608E-02  0.8584730E-01
         -2   -1    0    0    0  501 -0.00000000000E+00  0.00000000000E+00  0.44954968468E+03  0.44954968468E+03  0.00000000000E+00 0. -1.
          2   -1    0    0  501    0  0.00000000000E+00 -0.00000000000E+00 -0.23313604786E+04  0.23313604786E+04  0.00000000000E+00 0.  1.
         23    2    1    2    0    0 -0.44899221315E+03 -0.33829024730E+03 -0.15745579991E+04  0.16744504369E+04  0.92287995644E+02 0.  0.
        254    2    1    2    0    0  0.44899221315E+03  0.33829024730E+03 -0.30725279480E+03  0.11064597264E+04  0.90211670380E+03 0.  0.
        -24    2    4    4    0    0  0.62955300238E+03  0.41261229320E+03 -0.42203145008E+03  0.86657748687E+03  0.79120848022E+02 0.  0.
         24    2    4    4    0    0 -0.18056078922E+03 -0.74322045897E+02  0.11477865528E+03  0.23988223951E+03  0.79015087241E+02 0.  0.
         11    1    3    3    0    0 -0.35681587484E+03 -0.29418391751E+03 -0.13669460531E+04  0.14430534494E+04  0.00000000000E+00 0.  1.
        -11    1    3    3    0    0 -0.92176338317E+02 -0.44106329786E+02 -0.20761194600E+03  0.23139698743E+03  0.00000000000E+00 0. -1.
          4    1    6    6  502    0 -0.98532698331E+02 -0.11750353676E+02  0.23144070845E+02  0.10189411890E+03  0.00000000000E+00 0. -1.
          3    1    5    5  503    0  0.36923988008E+03  0.23839997283E+03 -0.20150576783E+03  0.48350512982E+03  0.00000000000E+00 0. -1.
         -4    1    5    5    0  503  0.26031312229E+03  0.17421232037E+03 -0.22052568225E+03  0.38307235705E+03  0.00000000000E+00 0.  1.
         -3    1    6    6    0  502 -0.82028090890E+02 -0.62571692222E+02  0.91634584436E+02  0.13798812060E+03  0.00000000000E+00 0.  1.
<mgrwt>
<rscale>  0 0.20474983E+04</rscale>
<asrwt>0</asrwt>
<pdfrwt beam="1">  1        2 0.35867083E+00 0.20474983E+04</pdfrwt>
<pdfrwt beam="2">  1       -2 0.69161492E-01 0.20474983E+04</pdfrwt>
<totfact> 0.76865476E+00</totfact>
</mgrwt>
</event>
<event>
12    1  0.1442183E-007  0.1360851E+04  0.7818608E-02  0.8982654E-01
         -2   -1    0    0    0  501 -0.00000000000E+00  0.00000000000E+00  0.32950559779E+03  0.32950559779E+03  0.00000000000E+00 0.  1.
          2   -1    0    0  501    0  0.00000000000E+00 -0.00000000000E+00 -0.14050715085E+04  0.14050715085E+04  0.00000000000E+00 0. -1.
         23    2    1    2    0    0 -0.27328481950E+03  0.14219115375E+03 -0.17495578623E+02  0.32230975678E+03  0.93137357010E+02 0.  0.
        254    2    1    2    0    0  0.27328481950E+03 -0.14219115375E+03 -0.10580703321E+04  0.14122673495E+04  0.88322325721E+03 0.  0.
        -24    2    4    4    0    0  0.46138806831E+03 -0.15557694023E+03 -0.20426367518E+03  0.53391450809E+03  0.79107010039E+02 0.  0.
         24    2    4    4    0    0 -0.18810324881E+03  0.13385786482E+02 -0.85380665692E+03  0.87835284143E+03  0.83402009327E+02 0.  0.
         13    1    3    3    0    0 -0.17848451126E+02  0.43963819966E+02  0.50177171591E+01  0.47713333138E+02  0.00000000000E+00 0. -1.
        -13    1    3    3    0    0 -0.25543636838E+03  0.98227333784E+02 -0.22513295782E+02  0.27459642365E+03  0.00000000000E+00 0.  1.
          4    1    6    6  502    0 -0.73616241073E+02 -0.18726382808E+02 -0.48332194038E+03  0.48925466417E+03  0.00000000000E+00 0. -1.
          1    1    5    5  503    0  0.18514504789E+03 -0.23164079445E+02 -0.87371805101E+02  0.20603178313E+03  0.00000000000E+00 0. -1.
         -2    1    5    5    0  503  0.27624302042E+03 -0.13241286079E+03 -0.11689187008E+03  0.32788272496E+03  0.00000000000E+00 0.  1.
         -3    1    6    6    0  502 -0.11448700774E+03  0.32112169290E+02 -0.37048471654E+03  0.38909817726E+03  0.00000000000E+00 0.  1.
<mgrwt>
<rscale>  0 0.13608511E+04</rscale>
<asrwt>0</asrwt>
<pdfrwt beam="1">  1        2 0.21616485E+00 0.13608511E+04</pdfrwt>
<pdfrwt beam="2">  1       -2 0.50693168E-01 0.13608511E+04</pdfrwt>
<totfact> 0.51604386E+01</totfact>
</mgrwt>
</event>
<event>
12    1  0.1442183E-007  0.1589291E+04  0.7818608E-02  0.8827154E-01
          2   -1    0    0  501    0  0.00000000000E+00  0.00000000000E+00  0.97302991708E+03  0.97302991708E+03  0.00000000000E+00 0. -1.
         -2   -1    0    0    0  501 -0.00000000000E+00 -0.00000000000E+00 -0.64896429504E+03  0.64896429504E+03  0.00000000000E+00 0.  1.
         23    2    1    2    0    0 -0.11795433657E+03 -0.48352333435E+03 -0.96006107408E+02  0.51475323370E+03  0.89697706563E+02 0.  0.
        254    2    1    2    0    0  0.11795433657E+03  0.48352333435E+03  0.42007172945E+03  0.11072409784E+04  0.89544083335E+03 0.  0.
        -24    2    4    4    0    0 -0.90363355415E+02  0.67969772955E+03  0.15128274584E+03  0.70669504626E+03  0.79855367150E+02 0.  0.
         24    2    4    4    0    0  0.20831769199E+03 -0.19617439520E+03  0.26878898361E+03  0.40054593216E+03  0.79428407593E+02 0.  0.
         13    1    3    3    0    0 -0.79361362117E+02 -0.15141406790E+03 -0.42494020531E+02  0.17615387460E+03  0.00000000000E+00 0.  1.
        -13    1    3    3    0    0 -0.38592974457E+02 -0.33210926645E+03 -0.53512086877E+02  0.33859935910E+03  0.00000000000E+00 0. -1.
          4    1    6    6  502    0  0.17051799749E+03 -0.11231007518E+03  0.17145758275E+03  0.26662266058E+03  0.00000000000E+00 0. -1.
          1    1    5    5  503    0 -0.58708719555E+02  0.28513136314E+03  0.29775593705E+02  0.29263149861E+03  0.00000000000E+00 0. -1.
         -2    1    5    5    0  503 -0.31654635860E+02  0.39456636642E+03  0.12150715214E+03  0.41406354766E+03  0.00000000000E+00 0.  1.
         -1    1    6    6    0  502  0.37799694504E+02 -0.83864320021E+02  0.97331400857E+02  0.13392327158E+03  0.00000000000E+00 0.  1.
<mgrwt>
<rscale>  0 0.15892913E+04</rscale>
<asrwt>0</asrwt>
<pdfrwt beam="1">  1        2 0.14969691E+00 0.15892913E+04</pdfrwt>
<pdfrwt beam="2">  1       -2 0.99840661E-01 0.15892913E+04</pdfrwt>
<totfact> 0.20870190E+01</totfact>
</mgrwt>
</event>
<event>
12    1  0.1442183E-007  0.3067460E+04  0.7818608E-02  0.8224725E-01
          2   -1    0    0  501    0  0.00000000000E+00  0.00000000000E+00  0.75505400533E+03  0.75505400533E+03  0.00000000000E+00 0. -1.
         -2   -1    0    0    0  501 -0.00000000000E+00 -0.00000000000E+00 -0.31154425688E+04  0.31154425688E+04  0.00000000000E+00 0.  1.
         23    2    1    2    0    0  0.42378428481E+03 -0.70298160190E+03  0.35082267189E+03  0.89774230717E+03  0.95333364097E+02 0.  0.
        254    2    1    2    0    0 -0.42378428481E+03  0.70298160190E+03 -0.27112112354E+04  0.29727542670E+04  0.90156825387E+03 0.  0.
        -24    2    4    4    0    0 -0.18271545026E+03  0.52676710874E+03 -0.25739246092E+04  0.26348522560E+04  0.80560501580E+02 0.  0.
         24    2    4    4    0    0 -0.24106883455E+03  0.17621449315E+03 -0.13728662611E+03  0.33790201093E+03  0.78513824868E+02 0.  0.
         11    1    3    3    0    0  0.15815870426E+03 -0.33180409442E+03  0.12294035264E+03  0.38758542686E+03  0.00000000000E+00 0.  1.
        -11    1    3    3    0    0  0.26562558054E+03 -0.37117750747E+03  0.22788231925E+03  0.51015688030E+03  0.00000000000E+00 0. -1.
          2    1    6    6  502    0 -0.31362164408E+01  0.19380080232E+02  0.36739487368E+01  0.19973013360E+02  0.00000000000E+00 0. -1.
          1    1    5    5  503    0 -0.13229597913E+03  0.26014785660E+03 -0.13037844605E+04  0.13360512912E+04  0.00000000000E+00 0. -1.
         -2    1    5    5    0  503 -0.50419471129E+02  0.26661925214E+03 -0.12701401488E+04  0.12988009648E+04  0.00000000000E+00 0.  1.
         -1    1    6    6    0  502 -0.23793261811E+03  0.15683441292E+03 -0.14096057485E+03  0.31792899757E+03  0.00000000000E+00 0.  1.
<mgrwt>
<rscale>  0 0.30674598E+04</rscale>
<asrwt>0</asrwt>
<pdfrwt beam="1">  1        2 0.11616216E+00 0.30674598E+04</pdfrwt>
<pdfrwt beam="2">  1       -2 0.47929884E+00 0.30674598E+04</pdfrwt>
<totfact> 0.70456502E-02</totfact>
</mgrwt>
</event>
<event>
12    1  0.1442183E-007  0.2266430E+04  0.7818608E-02  0.8491276E-01
          1   -1    0    0  501    0  0.00000000000E+00  0.00000000000E+00  0.18657140021E+04  0.18657140021E+04  0.00000000000E+00 0. -1.
         -1   -1    0    0    0  501 -0.00000000000E+00 -0.00000000000E+00 -0.68830304576E+03  0.68830304576E+03  0.00000000000E+00 0.  1.
         23    2    1    2    0    0 -0.18041639915E+03  0.78328697767E+03 -0.75216769885E+02  0.81247816381E+03  0.91513046788E+02 0.  0.
        254    2    1    2    0    0  0.18041639915E+03 -0.78328697767E+03  0.12526277262E+04  0.17415388840E+04  0.90431902430E+03 0.  0.
        -24    2    4    4    0    0 -0.13814958151E+03 -0.85812194266E+03  0.89100708864E+03  0.12473636768E+04  0.81018114501E+02 0.  0.
         24    2    4    4    0    0  0.31856598065E+03  0.74834964999E+02  0.36162063756E+03  0.49417520722E+03  0.79718842864E+02 0.  0.
         11    1    3    3    0    0 -0.95361025708E+02  0.57767884689E+03 -0.72378829316E+02  0.58995361708E+03  0.00000000000E+00 0.  1.
        -11    1    3    3    0    0 -0.85055373438E+02  0.20560813077E+03 -0.28379405689E+01  0.22252454673E+03  0.00000000000E+00 0. -1.
          2    1    6    6  502    0  0.11365314308E+02  0.17217335430E+02  0.77575681550E+01  0.22040573321E+02  0.00000000000E+00 0. -1.
          3    1    5    5  503    0  0.61328797164E+01 -0.90055493594E+02  0.73457442499E+02  0.11637697366E+03  0.00000000000E+00 0. -1.
         -4    1    5    5    0  503 -0.14428246122E+03 -0.76806644907E+03  0.81754964615E+03  0.11309867032E+04  0.00000000000E+00 0.  1.
         -1    1    6    6    0  502  0.30720066634E+03  0.57617629569E+02  0.35386306940E+03  0.47213463390E+03  0.00000000000E+00 0.  1.
<mgrwt>
<rscale>  0 0.22664303E+04</rscale>
<asrwt>0</asrwt>
<pdfrwt beam="1">  1        1 0.28703292E+00 0.22664303E+04</pdfrwt>
<pdfrwt beam="2">  1       -1 0.10589278E+00 0.22664303E+04</pdfrwt>
<totfact> 0.27809693E+00</totfact>
</mgrwt>
</event>
<event>
12    1  0.1442183E-007  0.1768220E+04  0.7818608E-02  0.8723384E-01
         -1   -1    0    0    0  501 -0.00000000000E+00  0.00000000000E+00  0.47019392277E+03  0.47019392277E+03  0.00000000000E+00 0.  1.
          1   -1    0    0  501    0  0.00000000000E+00 -0.00000000000E+00 -0.16624009937E+04  0.16624009937E+04  0.00000000000E+00 0. -1.
         23    2    1    2    0    0 -0.37435448348E+03  0.51079567122E+03 -0.63489385116E+03  0.90143345033E+03  0.91861668210E+02 0.  0.
        254    2    1    2    0    0  0.37435448348E+03 -0.51079567122E+03 -0.55731321974E+03  0.12311614661E+04  0.89672015351E+03 0.  0.
        -24    2    4    4    0    0  0.10696910414E+03 -0.36676887424E+02 -0.65723387773E+03  0.67150214714E+03  0.78556860089E+02 0.  0.
         24    2    4    4    0    0  0.26738537934E+03 -0.47411878380E+03  0.99920657990E+02  0.55965931897E+03  0.83371776894E+02 0.  0.
         13    1    3    3    0    0 -0.25678659051E+03  0.31248105411E+03 -0.45671867614E+03  0.61006205535E+03  0.00000000000E+00 0.  1.
        -13    1    3    3    0    0 -0.11756789297E+03  0.19831461711E+03 -0.17817517503E+03  0.29137139498E+03  0.00000000000E+00 0. -1.
          4    1    6    6  502    0  0.10810473336E+02 -0.35468824575E+02  0.27899514371E+02  0.46403520908E+02  0.00000000000E+00 0. -1.
          1    1    5    5  503    0  0.22313913438E+02  0.10544609973E+02 -0.42286722759E+02  0.48961887772E+02  0.00000000000E+00 0. -1.
         -4    1    5    5    0  503  0.84655190700E+02 -0.47221497397E+02 -0.61494715497E+03  0.62254025937E+03  0.00000000000E+00 0.  1.
         -3    1    6    6    0  502  0.25657490600E+03 -0.43864995922E+03  0.72021143619E+02  0.51325579806E+03  0.00000000000E+00 0.  1.
<mgrwt>
<rscale>  0 0.17682204E+04</rscale>
<asrwt>0</asrwt>
<pdfrwt beam="1">  1        1 0.25575400E+00 0.17682204E+04</pdfrwt>
<pdfrwt beam="2">  1       -1 0.72337527E-01 0.17682204E+04</pdfrwt>
<totfact> 0.92228414E+00</totfact>
</mgrwt>
</event>
<event>
12    1  0.1442183E-007  0.1323222E+04  0.7818608E-02  0.9011350E-01
          1   -1    0    0  501    0  0.00000000000E+00  0.00000000000E+00  0.10162306474E+04  0.10162306474E+04  0.00000000000E+00 0. -1.
         -1   -1    0    0    0  501 -0.00000000000E+00 -0.00000000000E+00 -0.43073825206E+03  0.43073825206E+03  0.00000000000E+00 0.  1.
         23    2    1    2    0    0 -0.85015442117E+02  0.20151356925E+03  0.33121010288E+03  0.40715279234E+03  0.90762988467E+02 0.  0.
        254    2    1    2    0    0  0.85015442117E+02 -0.20151356925E+03  0.25428229242E+03  0.10398161071E+04  0.98423711995E+03 0.  0.
        -24    2    4    4    0    0  0.41971244024E+03  0.40261020633E+02 -0.15265727066E+03  0.45504465484E+03  0.77342829875E+02 0.  0.
         24    2    4    4    0    0 -0.33469699812E+03 -0.24177458988E+03  0.40693956308E+03  0.58477145223E+03  0.76686442612E+02 0.  0.
         11    1    3    3    0    0 -0.96698579485E+02  0.16145773018E+03  0.30332813979E+03  0.35696943048E+03  0.00000000000E+00 0. -1.
        -11    1    3    3    0    0  0.11683137368E+02  0.40055839066E+02  0.27881963084E+02  0.50183361859E+02  0.00000000000E+00 0.  1.
          2    1    6    6  502    0 -0.53994991210E+02 -0.17265968556E+02  0.85387875533E+02  0.10249225353E+03  0.00000000000E+00 0. -1.
          3    1    5    5  503    0  0.17306354860E+03 -0.37686548349E+01 -0.28549353604E+02  0.17544303977E+03  0.00000000000E+00 0. -1.
         -4    1    5    5    0  503  0.24664889164E+03  0.44029675468E+02 -0.12410791706E+03  0.27960161506E+03  0.00000000000E+00 0.  1.
         -1    1    6    6    0  502 -0.28070200691E+03 -0.22450862133E+03  0.32155168755E+03  0.48227919870E+03  0.00000000000E+00 0.  1.
<mgrwt>
<rscale>  0 0.13232224E+04</rscale>
<asrwt>0</asrwt>
<pdfrwt beam="1">  1        1 0.15634318E+00 0.13232224E+04</pdfrwt>
<pdfrwt beam="2">  1       -1 0.66267424E-01 0.13232224E+04</pdfrwt>
<totfact> 0.33267055E+01</totfact>
</mgrwt>
</event>
<event>
12    1  0.1442183E-007  0.1422193E+04  0.7818608E-02  0.8937909E-01
         -1   -1    0    0    0  501 -0.00000000000E+00  0.00000000000E+00  0.10392325053E+04  0.10392325053E+04  0.00000000000E+00 0.  1.
          1   -1    0    0  501    0  0.00000000000E+00 -0.00000000000E+00 -0.48656864257E+03  0.48656864257E+03  0.00000000000E+00 0. -1.
         23    2    1    2    0    0  0.39875333964E+03  0.71009864763E+02  0.27370070413E+03  0.49728121170E+03  0.91268292974E+02 0.  0.
        254    2    1    2    0    0 -0.39875333964E+03 -0.71009864763E+02  0.27896315861E+03  0.10285199362E+04  0.90331953841E+03 0.  0.
        -24    2    4    4    0    0  0.38200075680E+02  0.32236506076E+03  0.27789831721E+03  0.43480287784E+03  0.80296884685E+02 0.  0.
         24    2    4    4    0    0 -0.43695341532E+03 -0.39337492552E+03  0.10648414000E+01  0.59371705833E+03  0.82623799723E+02 0.  0.
         13    1    3    3    0    0  0.90360076673E+02 -0.48003087332E+01  0.10166776786E+03  0.13610408312E+03  0.00000000000E+00 0. -1.
        -13    1    3    3    0    0  0.30839326297E+03  0.75810173496E+02  0.17203293627E+03  0.36117712858E+03  0.00000000000E+00 0.  1.
          4    1    6    6  502    0 -0.36907703487E+03 -0.30949516248E+03  0.28069751809E+02  0.48248629434E+03  0.00000000000E+00 0. -1.
          3    1    5    5  503    0  0.43699517880E+02  0.81207251430E+02  0.62440649169E+02  0.11136920677E+03  0.00000000000E+00 0. -1.
         -4    1    5    5    0  503 -0.54994422001E+01  0.24115780933E+03  0.21545766805E+03  0.32343367107E+03  0.00000000000E+00 0.  1.
         -3    1    6    6    0  502 -0.67876380453E+02 -0.83879763040E+02 -0.27004910409E+02  0.11123076399E+03  0.00000000000E+00 0.  1.
<mgrwt>
<rscale>  0 0.14221926E+04</rscale>
<asrwt>0</asrwt>
<pdfrwt beam="1">  1        1 0.74856715E-01 0.14221926E+04</pdfrwt>
<pdfrwt beam="2">  1       -1 0.15988192E+00 0.14221926E+04</pdfrwt>
<totfact> 0.13117369E+01</totfact>
</mgrwt>
</event>
<event>
12    1  0.1442183E-007  0.1777654E+04  0.7818608E-02  0.8718274E-01
         -2   -1    0    0    0  501 -0.00000000000E+00  0.00000000000E+00  0.32074055948E+03  0.32074055948E+03  0.00000000000E+00 0.  1.
          2   -1    0    0  501    0  0.00000000000E+00 -0.00000000000E+00 -0.24630928998E+04  0.24630928998E+04  0.00000000000E+00 0. -1.
         23    2    1    2    0    0 -0.43292287639E+03 -0.38427888803E+03 -0.31079784026E+03  0.66326133703E+03  0.90707348161E+02 0.  0.
        254    2    1    2    0    0  0.43292287639E+03  0.38427888803E+03 -0.18315545000E+04  0.21205721222E+04  0.89841068462E+03 0.  0.
        -24    2    4    4    0    0  0.23628928718E+03  0.34918313646E+03 -0.18550395997E+04  0.19040863684E+04  0.81311082149E+02 0.  0.
         24    2    4    4    0    0  0.19663358920E+03  0.35095751572E+02  0.23485099633E+02  0.21648575379E+03  0.80112742477E+02 0.  0.
         13    1    3    3    0    0 -0.28719922289E+03 -0.26451529070E+03 -0.16079301652E+03  0.42226310140E+03  0.00000000000E+00 0. -1.
        -13    1    3    3    0    0 -0.14572365350E+03 -0.11976359733E+03 -0.15000482374E+03  0.24099823564E+03  0.00000000000E+00 0.  1.
          4    1    6    6  502    0  0.13674334673E+03 -0.74174911487E+01 -0.66330014674E+01  0.13710491879E+03  0.00000000000E+00 0. -1.
          1    1    5    5  503    0  0.37146227765E+01  0.31234669640E+02 -0.22132877249E+03  0.22355274220E+03  0.00000000000E+00 0. -1.
         -2    1    5    5    0  503  0.23257466441E+03  0.31794846682E+03 -0.16337108272E+04  0.16805336262E+04  0.00000000000E+00 0.  1.
         -3    1    6    6    0  502  0.59890242476E+02  0.42513242721E+02  0.30118101101E+02  0.79380834994E+02  0.00000000000E+00 0.  1.
<mgrwt>
<rscale>  0 0.17776544E+04</rscale>
<asrwt>0</asrwt>
<pdfrwt beam="1">  1        2 0.37893736E+00 0.17776544E+04</pdfrwt>
<pdfrwt beam="2">  1       -2 0.49344703E-01 0.17776544E+04</pdfrwt>
<totfact> 0.13459235E+01</totfact>
</mgrwt>
</event>
<event>
12    1  0.1442183E-007  0.3054130E+04  0.7818608E-02  0.8228440E-01
          2   -1    0    0  501    0  0.00000000000E+00  0.00000000000E+00  0.10985808174E+04  0.10985808174E+04  0.00000000000E+00 0.  1.
         -2   -1    0    0    0  501 -0.00000000000E+00 -0.00000000000E+00 -0.21226726283E+04  0.21226726283E+04  0.00000000000E+00 0. -1.
         23    2    1    2    0    0 -0.19428147390E+03  0.79354836016E+02 -0.19084783732E+04  0.19221506319E+04  0.91273597243E+02 0.  0.
        254    2    1    2    0    0  0.19428147390E+03 -0.79354836016E+02  0.88438656231E+03  0.12991028138E+04  0.92816272718E+03 0.  0.
        -24    2    4    4    0    0  0.36672330776E+03 -0.28342477306E+03  0.90368550478E+03  0.10187472315E+04  0.79892701201E+02 0.  0.
         24    2    4    4    0    0 -0.17244183386E+03  0.20406993705E+03 -0.19298942468E+02  0.28035558230E+03  0.82741030173E+02 0.  0.
         13    1    3    3    0    0 -0.12272080364E+03  0.11478183952E+01 -0.99287163258E+03  0.10004278044E+04  0.00000000000E+00 0.  1.
        -13    1    3    3    0    0 -0.71560670266E+02  0.78207017621E+02 -0.91560674063E+03  0.92172282744E+03  0.00000000000E+00 0. -1.
          4    1    6    6  502    0  0.20427406405E+01 -0.50365776158E+01 -0.53956066334E+01  0.76584903438E+01  0.00000000000E+00 0. -1.
          1    1    5    5  503    0 -0.35670600762E+01 -0.23958171864E+01  0.32132914061E+01  0.53655474314E+01  0.00000000000E+00 0. -1.
         -2    1    5    5    0  503  0.37029036784E+03 -0.28102895588E+03  0.90047221337E+03  0.10133816841E+04  0.00000000000E+00 0.  1.
         -3    1    6    6    0  502 -0.17448457450E+03  0.20910651466E+03 -0.13903335835E+02  0.27269709196E+03  0.00000000000E+00 0.  1.
<mgrwt>
<rscale>  0 0.30541299E+04</rscale>
<asrwt>0</asrwt>
<pdfrwt beam="1">  1        2 0.16901243E+00 0.30541299E+04</pdfrwt>
<pdfrwt beam="2">  1       -2 0.32656502E+00 0.30541299E+04</pdfrwt>
<totfact> 0.40557478E-01</totfact>
</mgrwt>
</event>
<event>
12    1  0.1442183E-007  0.1687732E+04  0.7818608E-02  0.8768392E-01
          2   -1    0    0  501    0  0.00000000000E+00  0.00000000000E+00  0.16983290156E+04  0.16983290156E+04  0.00000000000E+00 0.  1.
         -2   -1    0    0    0  501 -0.00000000000E+00 -0.00000000000E+00 -0.41930027305E+03  0.41930027305E+03  0.00000000000E+00 0. -1.
         23    2    1    2    0    0 -0.50174667414E+02  0.52127014680E+03  0.82623799836E+03  0.98250615806E+03  0.91700913372E+02 0.  0.
        254    2    1    2    0    0  0.50174667414E+02 -0.52127014680E+03  0.45279074418E+03  0.11351231306E+04  0.89958045796E+03 0.  0.
        -24    2    4    4    0    0  0.81663005673E+02  0.23181646706E+03  0.72243898549E+01  0.25596639395E+03  0.71125818992E+02 0.  0.
         24    2    4    4    0    0 -0.31488338259E+02 -0.75308661386E+03  0.44556635432E+03  0.87915673661E+03  0.79096321052E+02 0.  0.
         13    1    3    3    0    0 -0.14610387519E+02  0.31892762683E+03  0.57769596320E+03  0.66004615027E+03  0.00000000000E+00 0.  1.
        -13    1    3    3    0    0 -0.35564279895E+02  0.20234251997E+03  0.24854203515E+03  0.32246000780E+03  0.00000000000E+00 0. -1.
          2    1    6    6  502    0 -0.22489162822E+02 -0.48871471830E+03  0.24472829585E+03  0.54702813193E+03  0.00000000000E+00 0. -1.
          3    1    5    5  503    0  0.42091540085E+02  0.11974743247E+03 -0.31837471472E+02  0.13086164419E+03  0.00000000000E+00 0. -1.
         -4    1    5    5    0  503  0.39571465588E+02  0.11206903459E+03  0.39061861327E+02  0.12510474977E+03  0.00000000000E+00 0.  1.
         -1    1    6    6    0  502 -0.89991754372E+01 -0.26437189556E+03  0.20083805847E+03  0.33212860469E+03  0.00000000000E+00 0.  1.
<mgrwt>
<rscale>  0 0.16877320E+04</rscale>
<asrwt>0</asrwt>
<pdfrwt beam="1">  1        2 0.26128138E+00 0.16877320E+04</pdfrwt>
<pdfrwt beam="2">  1       -2 0.64507735E-01 0.16877320E+04</pdfrwt>
<totfact> 0.20770465E+01</totfact>
</mgrwt>
</event>
<event>
12    1  0.1866382E-007  0.1445670E+04  0.7818608E-02  0.8921408E-01
          2   -1    0    0  501    0  0.00000000000E+00  0.00000000000E+00  0.11498859640E+04  0.11498859640E+04  0.00000000000E+00 0. -1.
         -2   -1    0    0    0  501 -0.00000000000E+00 -0.00000000000E+00 -0.45438445515E+03  0.45438445515E+03  0.00000000000E+00 0.  1.
         23    2    1    2    0    0 -0.22790051321E+03 -0.17504091063E+02  0.62795177718E+03  0.67368416089E+03  0.85333914919E+02 0.  0.
        254    2    1    2    0    0  0.22790051321E+03  0.17504091063E+02  0.67549731683E+02  0.93058625828E+03  0.89954587471E+03 0.  0.
        -24    2    4    4    0    0 -0.49960303929E+02  0.18601271513E+03 -0.34295351339E+03  0.40100395878E+03  0.78040377072E+02 0.  0.
         24    2    4    4    0    0  0.27786081714E+03 -0.16850862407E+03  0.41050324507E+03  0.52958229949E+03  0.79641117738E+02 0.  0.
         11    1    3    3    0    0 -0.36231832430E+01 -0.18881010823E+02  0.61981378232E+02  0.64894616680E+02  0.00000000000E+00 0.  1.
        -11    1    3    3    0    0 -0.22427732997E+03  0.13769197599E+01  0.56597039895E+03  0.60878954421E+03  0.00000000000E+00 0. -1.
          4    1    6    6  502    0  0.45767150148E+01 -0.48067578710E+01 -0.32581042594E+01  0.73936787137E+01  0.00000000000E+00 0. -1.
          1    1    5    5  503    0  0.69218252704E+01 -0.14358424208E+01 -0.13156127932E+01  0.71905594743E+01  0.00000000000E+00 0. -1.
         -2    1    5    5    0  503 -0.56882129200E+02  0.18744855755E+03 -0.34163790060E+03  0.39381339931E+03  0.00000000000E+00 0.  1.
         -3    1    6    6    0  502  0.27328410213E+03 -0.16370186620E+03  0.41376134933E+03  0.52218862078E+03  0.00000000000E+00 0.  1.
<mgrwt>
<rscale>  0 0.14456698E+04</rscale>
<asrwt>0</asrwt>
<pdfrwt beam="1">  1        2 0.17690553E+00 0.14456698E+04</pdfrwt>
<pdfrwt beam="2">  1       -2 0.69905301E-01 0.14456698E+04</pdfrwt>
<totfact> 0.36730366E+01</totfact>
</mgrwt>
</event>
<event>
12    1  0.1442183E-007  0.1633986E+04  0.7818608E-02  0.8799937E-01
         -2   -1    0    0    0  501 -0.00000000000E+00  0.00000000000E+00  0.29601389777E+03  0.29601389777E+03  0.00000000000E+00 0.  1.
          2   -1    0    0  501    0  0.00000000000E+00 -0.00000000000E+00 -0.22548869842E+04  0.22548869842E+04  0.00000000000E+00 0. -1.
         23    2    1    2    0    0  0.30844453551E+03  0.34709374905E+03 -0.11945790302E+04  0.12850045470E+04  0.92765964612E+02 0.  0.
        254    2    1    2    0    0 -0.30844453551E+03 -0.34709374905E+03 -0.76429405615E+03  0.12658963349E+04  0.89595536967E+03 0.  0.
        -24    2    4    4    0    0  0.12057330759E+03 -0.23844092750E+03 -0.76735519685E+03  0.81642154042E+03  0.79486697757E+02 0.  0.
         24    2    4    4    0    0 -0.42901784310E+03 -0.10865282156E+03  0.30611407001E+01  0.44947479452E+03  0.78463207953E+02 0.  0.
         11    1    3    3    0    0  0.99343047716E+02  0.52908805460E+02 -0.27732431048E+03  0.29929443030E+03  0.00000000000E+00 0.  1.
        -11    1    3    3    0    0  0.20910148779E+03  0.29418494359E+03 -0.91725471976E+03  0.98571011669E+03  0.00000000000E+00 0. -1.
          4    1    6    6  502    0 -0.30825379762E+03 -0.45208642557E+02  0.19007981970E+02  0.31213062728E+03  0.00000000000E+00 0. -1.
          3    1    5    5  503    0  0.17943237862E+02 -0.88930887555E+01 -0.21778728807E+02  0.29586480714E+02  0.00000000000E+00 0. -1.
         -4    1    5    5    0  503  0.10263006973E+03 -0.22954783874E+03 -0.74557646804E+03  0.78683505970E+03  0.00000000000E+00 0.  1.
         -3    1    6    6    0  502 -0.12076404548E+03 -0.63444179000E+02 -0.15946841270E+02  0.13734416724E+03  0.00000000000E+00 0.  1.
<mgrwt>
<rscale>  0 0.16339864E+04</rscale>
<asrwt>0</asrwt>
<pdfrwt beam="1">  1        2 0.34690570E+00 0.16339864E+04</pdfrwt>
<pdfrwt beam="2">  1       -2 0.45540598E-01 0.16339864E+04</pdfrwt>
<totfact> 0.21046446E+01</totfact>
</mgrwt>
</event>
<event>
12    1  0.1442183E-007  0.2099363E+04  0.7818608E-02  0.8561524E-01
         -1   -1    0    0    0  501 -0.00000000000E+00  0.00000000000E+00  0.10761989988E+04  0.10761989988E+04  0.00000000000E+00 0.  1.
          1   -1    0    0  501    0  0.00000000000E+00 -0.00000000000E+00 -0.10238176985E+04  0.10238176985E+04  0.00000000000E+00 0. -1.
         23    2    1    2    0    0  0.44891417990E+03 -0.70739381646E+03  0.15048590972E+03  0.85607739881E+03  0.91063446305E+02 0.  0.
        254    2    1    2    0    0 -0.44891417990E+03  0.70739381646E+03 -0.98104609465E+02  0.12439392985E+04  0.91423766690E+03 0.  0.
        -24    2    4    4    0    0  0.21783264996E+03  0.25784775721E+03 -0.24254414843E+03  0.42322308816E+03  0.79709404261E+02 0.  0.
         24    2    4    4    0    0 -0.66674682986E+03  0.44954605924E+03  0.14443953897E+03  0.82071621037E+03  0.77905860166E+02 0.  0.
         13    1    3    3    0    0  0.42355262620E+03 -0.65621651031E+03  0.16237614057E+03  0.79773613845E+03  0.00000000000E+00 0.  1.
        -13    1    3    3    0    0  0.25361553695E+02 -0.51177306147E+02 -0.11890230851E+02  0.58341260356E+02  0.00000000000E+00 0. -1.
          4    1    6    6  502    0 -0.60969794669E+03  0.42704527525E+03  0.14928071090E+03  0.75919956793E+03  0.00000000000E+00 0. -1.
          1    1    5    5  503    0  0.20454457056E+03  0.26078866618E+03 -0.24041222390E+03  0.40944749011E+03  0.00000000000E+00 0. -1.
         -2    1    5    5    0  503  0.13288079395E+02 -0.29409089683E+01 -0.21319245345E+01  0.13775598055E+02  0.00000000000E+00 0.  1.
         -3    1    6    6    0  502 -0.57048883172E+02  0.22500783993E+02 -0.48411719286E+01  0.61516642440E+02  0.00000000000E+00 0.  1.
<mgrwt>
<rscale>  0 0.20993633E+04</rscale>
<asrwt>0</asrwt>
<pdfrwt beam="1">  1        1 0.15751042E+00 0.20993633E+04</pdfrwt>
<pdfrwt beam="2">  1       -1 0.16556908E+00 0.20993633E+04</pdfrwt>
<totfact> 0.35388063E+00</totfact>
</mgrwt>
</event>
<event>
12    1  0.1442183E-007  0.1889584E+04  0.7818608E-02  0.8660058E-01
         -1   -1    0    0    0  501 -0.00000000000E+00  0.00000000000E+00  0.30233102233E+03  0.30233102233E+03  0.00000000000E+00 0.  1.
          1   -1    0    0  501    0  0.00000000000E+00 -0.00000000000E+00 -0.29524998496E+04  0.29524998496E+04  0.00000000000E+00 0. -1.
         23    2    1    2    0    0 -0.41360801754E+03 -0.59216046453E+03 -0.89139268345E+03  0.11507834860E+04  0.89420957406E+02 0.  0.
        254    2    1    2    0    0  0.41360801754E+03  0.59216046453E+03 -0.17587761438E+04  0.21040473859E+04  0.90110835654E+03 0.  0.
        -24    2    4    4    0    0  0.24952536629E+02 -0.20539052022E+02 -0.11499629864E+04  0.11534270866E+04  0.83274800021E+02 0.  0.
         24    2    4    4    0    0  0.38865548091E+03  0.61269951655E+03 -0.60881315745E+03  0.95062029933E+03  0.81066098916E+02 0.  0.
         13    1    3    3    0    0 -0.41810254912E+03 -0.58724497513E+03 -0.87982206495E+03  0.11374327533E+04  0.00000000000E+00 0.  1.
        -13    1    3    3    0    0  0.44945315805E+01 -0.49154893973E+01 -0.11570618501E+02  0.13350732663E+02  0.00000000000E+00 0. -1.
          4    1    6    6  502    0  0.95786345212E+02  0.16765911922E+03 -0.11836009796E+03  0.22648116252E+03  0.00000000000E+00 0. -1.
          1    1    5    5  503    0  0.22441276895E+02  0.29881483943E+02 -0.59514546221E+03  0.59631756236E+03  0.00000000000E+00 0. -1.
         -2    1    5    5    0  503  0.25112597338E+01 -0.50420535965E+02 -0.55481752417E+03  0.55710952424E+03  0.00000000000E+00 0.  1.
         -1    1    6    6    0  502  0.29286913570E+03  0.44504039733E+03 -0.49045305949E+03  0.72413913682E+03  0.00000000000E+00 0.  1.
<mgrwt>
<rscale>  0 0.18895844E+04</rscale>
<asrwt>0</asrwt>
<pdfrwt beam="1">  1        1 0.45423074E+00 0.18895844E+04</pdfrwt>
<pdfrwt beam="2">  1       -1 0.46512465E-01 0.18895844E+04</pdfrwt>
<totfact> 0.27965857E+00</totfact>
</mgrwt>
</event>
<event>
12    1  0.1442183E-007  0.1973953E+04  0.7818608E-02  0.8618896E-01
          2   -1    0    0  501    0  0.00000000000E+00  0.00000000000E+00  0.35508104461E+04  0.35508104461E+04  0.00000000000E+00 0. -1.
         -2   -1    0    0    0  501 -0.00000000000E+00 -0.00000000000E+00 -0.27433800927E+03  0.27433800927E+03  0.00000000000E+00 0.  1.
         23    2    1    2    0    0  0.10546820016E+03 -0.12595806815E+03  0.28241305673E+04  0.28302514837E+04  0.87298475984E+02 0.  0.
        254    2    1    2    0    0 -0.10546820016E+03  0.12595806815E+03  0.45234186955E+03  0.99489697165E+03  0.87075705055E+03 0.  0.
        -24    2    4    4    0    0 -0.10742903064E+03  0.11274231743E+03  0.70636520827E+03  0.72779900259E+03  0.80546594887E+02 0.  0.
         24    2    4    4    0    0  0.19608304798E+01  0.13215750723E+02 -0.25402333873E+03  0.26709796906E+03  0.81455310056E+02 0.  0.
         11    1    3    3    0    0  0.75622041404E+02 -0.43405941938E+02  0.92717284218E+03  0.93126379089E+03  0.00000000000E+00 0. -1.
        -11    1    3    3    0    0  0.29846158752E+02 -0.82552126215E+02  0.18969577251E+04  0.18989876929E+04  0.00000000000E+00 0.  1.
          4    1    6    6  502    0 -0.34407306167E+02  0.36301800041E+01 -0.18761917211E+03  0.19078258481E+03  0.00000000000E+00 0. -1.
          3    1    5    5  503    0 -0.25720135912E+02 -0.55805736637E+00  0.44929860117E+02  0.51773826877E+02  0.00000000000E+00 0. -1.
         -4    1    5    5    0  503 -0.81708894724E+02  0.11330037480E+03  0.66143534816E+03  0.67602517571E+03  0.00000000000E+00 0.  1.
         -3    1    6    6    0  502  0.36368136647E+02  0.95855707187E+01 -0.66404166614E+02  0.76315384247E+02  0.00000000000E+00 0.  1.
<mgrwt>
<rscale>  0 0.19739527E+04</rscale>
<asrwt>0</asrwt>
<pdfrwt beam="1">  1        2 0.54627850E+00 0.19739527E+04</pdfrwt>
<pdfrwt beam="2">  1       -2 0.42205850E-01 0.19739527E+04</pdfrwt>
<totfact> 0.37320555E+00</totfact>
</mgrwt>
</event>
<event>
12    1  0.1462580E-007  0.1684795E+04  0.7818608E-02  0.8770084E-01
          2   -1    0    0  501    0  0.00000000000E+00  0.00000000000E+00  0.94828489065E+03  0.94828489065E+03  0.00000000000E+00 0.  1.
         -2   -1    0    0    0  501 -0.00000000000E+00 -0.00000000000E+00 -0.74833400635E+03  0.74833400635E+03  0.00000000000E+00 0. -1.
         23    2    1    2    0    0 -0.14183167604E+03  0.76513045541E+02 -0.50171888875E+03  0.53479957216E+03  0.91204542571E+02 0.  0.
        254    2    1    2    0    0  0.14183167604E+03 -0.76513045541E+02  0.70166977305E+03  0.11618193248E+04  0.91187345762E+03 0.  0.
        -24    2    4    4    0    0  0.50792963325E+02  0.39325234751E+03  0.48239136657E+03  0.62960724402E+03  0.80476811740E+02 0.  0.
         24    2    4    4    0    0  0.91038712714E+02 -0.46976539306E+03  0.21927840648E+03  0.53221208083E+03  0.78734412470E+02 0.  0.
         11    1    3    3    0    0 -0.13515375816E+03  0.75625411861E+02 -0.50433032857E+03  0.52757447018E+03  0.00000000000E+00 0. -1.
        -11    1    3    3    0    0 -0.66779178749E+01  0.88763368016E+00  0.26114398217E+01  0.72251019811E+01  0.00000000000E+00 0.  1.
          4    1    6    6  502    0  0.10258765960E+03 -0.45359464836E+03  0.20938599851E+03  0.51001453832E+03  0.00000000000E+00 0. -1.
          3    1    5    5  503    0  0.15862038761E+02  0.33388294777E+03  0.41899637002E+03  0.53599196373E+03  0.00000000000E+00 0. -1.
         -4    1    5    5    0  503  0.34930924564E+02  0.59369399740E+02  0.63394996546E+02  0.93615280288E+02  0.00000000000E+00 0.  1.
         -3    1    6    6    0  502 -0.11548946883E+02 -0.16170744691E+02  0.98924079686E+01  0.22197542508E+02  0.00000000000E+00 0.  1.
<mgrwt>
<rscale>  0 0.16847953E+04</rscale>
<asrwt>0</asrwt>
<pdfrwt beam="1">  1        2 0.14588998E+00 0.16847953E+04</pdfrwt>
<pdfrwt beam="2">  1       -2 0.11512831E+00 0.16847953E+04</pdfrwt>
<totfact> 0.15250697E+01</totfact>
</mgrwt>
</event>
<event>
12    1  0.1442183E-007  0.2170386E+04  0.7818608E-02  0.8530856E-01
         -2   -1    0    0    0  501 -0.00000000000E+00  0.00000000000E+00  0.10494851558E+04  0.10494851558E+04  0.00000000000E+00 0.  1.
          2   -1    0    0  501    0  0.00000000000E+00 -0.00000000000E+00 -0.11221161040E+04  0.11221161040E+04  0.00000000000E+00 0. -1.
         23    2    1    2    0    0  0.11857439784E+03 -0.15602428733E+03  0.84551397010E+03  0.87262637356E+03  0.90440301492E+02 0.  0.
        254    2    1    2    0    0 -0.11857439784E+03  0.15602428733E+03 -0.91814491829E+03  0.12989748862E+04  0.89774283509E+03 0.  0.
        -24    2    4    4    0    0  0.33586158742E+02  0.13566490714E+03 -0.10616271914E+04  0.10736961326E+04  0.78981609464E+02 0.  0.
         24    2    4    4    0    0 -0.15216055658E+03  0.20359380188E+02  0.14348227308E+03  0.22527875360E+03  0.81215853105E+02 0.  0.
         13    1    3    3    0    0  0.11300381673E+03 -0.11127477228E+03  0.50984408727E+03  0.53394094324E+03  0.00000000000E+00 0.  1.
        -13    1    3    3    0    0  0.55705811070E+01 -0.44749515049E+02  0.33566988283E+03  0.33868543032E+03  0.00000000000E+00 0. -1.
          2    1    6    6  502    0 -0.79117799331E+01 -0.95860985029E+01 -0.73464879048E+01  0.14438158842E+02  0.00000000000E+00 0. -1.
          1    1    5    5  503    0  0.22263141300E+02  0.95531863767E+02 -0.44606236169E+03  0.45672049984E+03  0.00000000000E+00 0. -1.
         -2    1    5    5    0  503  0.11323017441E+02  0.40133043376E+02 -0.61556482968E+03  0.61697563277E+03  0.00000000000E+00 0.  1.
         -1    1    6    6    0  502 -0.14424877665E+03  0.29945478691E+02  0.15082876098E+03  0.21084059476E+03  0.00000000000E+00 0.  1.
<mgrwt>
<rscale>  0 0.21703863E+04</rscale>
<asrwt>0</asrwt>
<pdfrwt beam="1">  1        2 0.17263325E+00 0.21703863E+04</pdfrwt>
<pdfrwt beam="2">  1       -2 0.16145925E+00 0.21703863E+04</pdfrwt>
<totfact> 0.47536692E+00</totfact>
</mgrwt>
</event>
<event>
12    1  0.1442183E-007  0.1190711E+04  0.7818608E-02  0.9121027E-01
         -2   -1    0    0    0  501 -0.00000000000E+00  0.00000000000E+00  0.12169427083E+03  0.12169427083E+03  0.00000000000E+00 0. -1.
          2   -1    0    0  501    0  0.00000000000E+00 -0.00000000000E+00 -0.29126094739E+04  0.29126094739E+04  0.00000000000E+00 0.  1.
         23    2    1    2    0    0  0.21425897536E+03  0.56519485895E+02 -0.81494411803E+03  0.84948817495E+03  0.91623594498E+02 0.  0.
        254    2    1    2    0    0 -0.21425897536E+03 -0.56519485895E+02 -0.19759710850E+04  0.21848155697E+04  0.90545899088E+03 0.  0.
        -24    2    4    4    0    0 -0.24349020468E+03  0.32975951418E+03 -0.15430322602E+04  0.15985863608E+04  0.80628654806E+02 0.  0.
         24    2    4    4    0    0  0.29231229321E+02 -0.38627900007E+03 -0.43293882481E+03  0.58622920893E+03  0.78503049056E+02 0.  0.
         13    1    3    3    0    0  0.20467663172E+03  0.67019127884E+02 -0.80146824713E+03  0.82990086049E+03  0.00000000000E+00 0.  1.
        -13    1    3    3    0    0  0.95823436474E+01 -0.10499641989E+02 -0.13475870893E+02  0.19587314466E+02  0.00000000000E+00 0. -1.
          2    1    6    6  502    0 -0.20564148150E+02 -0.23163266192E+03 -0.24459894639E+03  0.33749847234E+03  0.00000000000E+00 0. -1.
          3    1    5    5  503    0 -0.20101885261E+03  0.31324573639E+03 -0.13738628014E+04  0.14233869704E+04  0.00000000000E+00 0. -1.
         -4    1    5    5    0  503 -0.42471352076E+02  0.16513777783E+02 -0.16916945883E+03  0.17519939043E+03  0.00000000000E+00 0.  1.
         -3    1    6    6    0  502  0.49795377471E+02 -0.15464633815E+03 -0.18833987841E+03  0.24873073659E+03  0.00000000000E+00 0.  1.
<mgrwt>
<rscale>  0 0.11907105E+04</rscale>
<asrwt>0</asrwt>
<pdfrwt beam="1">  1        2 0.44809375E+00 0.11907105E+04</pdfrwt>
<pdfrwt beam="2">  1       -2 0.18722196E-01 0.11907105E+04</pdfrwt>
<totfact> 0.47374327E+01</totfact>
</mgrwt>
</event>
<event>
12    1  0.1442183E-007  0.1567213E+04  0.7818608E-02  0.8840947E-01
          2   -1    0    0  501    0  0.00000000000E+00  0.00000000000E+00  0.42828349310E+04  0.42828349310E+04  0.00000000000E+00 0. -1.
         -2   -1    0    0    0  501 -0.00000000000E+00 -0.00000000000E+00 -0.14337211816E+03  0.14337211816E+03  0.00000000000E+00 0.  1.
         23    2    1    2    0    0  0.51940705256E+02  0.73296009210E+01 -0.67823051560E+02  0.12538703028E+03  0.91489787017E+02 0.  0.
        254    2    1    2    0    0 -0.51940705256E+02 -0.73296009210E+01  0.42072858644E+04  0.43008200189E+04  0.89053182426E+03 0.  0.
        -24    2    4    4    0    0  0.17126401900E+03 -0.37903232062E+03  0.15326739745E+04  0.15901279950E+04  0.80129046175E+02 0.  0.
         24    2    4    4    0    0 -0.22320472425E+03  0.37170271970E+03  0.26746118899E+04  0.27106920239E+04  0.79493559553E+02 0.  0.
         11    1    3    3    0    0 -0.82419896298E+01 -0.18052695828E+02 -0.55469704304E+02  0.58912802644E+02  0.00000000000E+00 0.  1.
        -11    1    3    3    0    0  0.60182694886E+02  0.25382296749E+02 -0.12353347256E+02  0.66474227641E+02  0.00000000000E+00 0. -1.
          4    1    6    6  502    0 -0.22557917918E+03  0.35469874241E+03  0.26180684451E+04  0.26515994319E+04  0.00000000000E+00 0. -1.
          3    1    5    5  503    0  0.26909248264E+02 -0.11635367186E+03  0.33985117830E+03  0.36022369159E+03  0.00000000000E+00 0. -1.
         -4    1    5    5    0  503  0.14435477073E+03 -0.26267864876E+03  0.11928227962E+04  0.12299043034E+04  0.00000000000E+00 0.  1.
         -3    1    6    6    0  502  0.23744549233E+01  0.17003977289E+02  0.56543444844E+02  0.59092592046E+02  0.00000000000E+00 0.  1.
<mgrwt>
<rscale>  0 0.15672130E+04</rscale>
<asrwt>0</asrwt>
<pdfrwt beam="1">  1        2 0.65889758E+00 0.15672130E+04</pdfrwt>
<pdfrwt beam="2">  1       -2 0.22057252E-01 0.15672130E+04</pdfrwt>
<totfact> 0.34889978E+00</totfact>
</mgrwt>
</event>
<event>
12    1  0.1442183E-007  0.1215646E+04  0.7818608E-02  0.9099271E-01
          1   -1    0    0  501    0  0.00000000000E+00  0.00000000000E+00  0.58057038733E+03  0.58057038733E+03  0.00000000000E+00 0.  1.
         -1   -1    0    0    0  501 -0.00000000000E+00 -0.00000000000E+00 -0.63635466912E+03  0.63635466912E+03  0.00000000000E+00 0. -1.
         23    2    1    2    0    0  0.14977968590E+03 -0.67707479080E+02 -0.21878132468E+03  0.28911050350E+03  0.93281070822E+02 0.  0.
        254    2    1    2    0    0 -0.14977968590E+03  0.67707479080E+02  0.16299704288E+03  0.92781455295E+03  0.89847289979E+03 0.  0.
        -24    2    4    4    0    0  0.89060539698E+02 -0.37971581197E+03  0.10852726440E+03  0.41190427567E+03  0.75967674765E+02 0.  0.
         24    2    4    4    0    0 -0.23884022560E+03  0.44742329105E+03  0.54469778485E+02  0.51591027728E+03  0.77228250624E+02 0.  0.
         13    1    3    3    0    0  0.13258501737E+03 -0.15757824907E+02 -0.16656259670E+03  0.21347176510E+03  0.00000000000E+00 0. -1.
        -13    1    3    3    0    0  0.17194668532E+02 -0.51949654172E+02 -0.52218727975E+02  0.75638738394E+02  0.00000000000E+00 0.  1.
          4    1    6    6  502    0 -0.12315762014E+03  0.17824089810E+03 -0.60598500346E+01  0.21673564298E+03  0.00000000000E+00 0. -1.
          1    1    5    5  503    0  0.67586292045E+02 -0.19016173355E+03  0.87551837202E+02  0.21998799053E+03  0.00000000000E+00 0. -1.
         -2    1    5    5    0  503  0.21474247653E+02 -0.18955407842E+03  0.20975427193E+02  0.19191628514E+03  0.00000000000E+00 0.  1.
         -3    1    6    6    0  502 -0.11568260545E+03  0.26918239295E+03  0.60529628520E+02  0.29917463430E+03  0.00000000000E+00 0.  1.
<mgrwt>
<rscale>  0 0.12156458E+04</rscale>
<asrwt>0</asrwt>
<pdfrwt beam="1">  1        1 0.89318521E-01 0.12156458E+04</pdfrwt>
<pdfrwt beam="2">  1       -1 0.97900718E-01 0.12156458E+04</pdfrwt>
<totfact> 0.35537342E+01</totfact>
</mgrwt>
</event>
<event>
12    1  0.1442183E-007  0.1654840E+04  0.7818608E-02  0.8787548E-01
         -2   -1    0    0    0  501 -0.00000000000E+00  0.00000000000E+00  0.85392755809E+03  0.85392755809E+03  0.00000000000E+00 0. -1.
          2   -1    0    0  501    0  0.00000000000E+00 -0.00000000000E+00 -0.80173558309E+03  0.80173558309E+03  0.00000000000E+00 0.  1.
         23    2    1    2    0    0 -0.41213936912E+01 -0.37423333183E+03  0.45443932979E+03  0.59535303664E+03  0.88671084585E+02 0.  0.
        254    2    1    2    0    0  0.41213936912E+01  0.37423333183E+03 -0.40224735479E+03  0.10603101045E+04  0.90685556227E+03 0.  0.
        -24    2    4    4    0    0 -0.17987677988E+03  0.47765814063E+03  0.84728454404E+02  0.52340330738E+03  0.79114827538E+02 0.  0.
         24    2    4    4    0    0  0.18399817357E+03 -0.10342480880E+03 -0.48697580919E+03  0.53690679716E+03  0.81064487597E+02 0.  0.
         13    1    3    3    0    0  0.26744576113E+02 -0.95898875750E+02  0.16431022020E+03  0.19211901307E+03  0.00000000000E+00 0.  1.
        -13    1    3    3    0    0 -0.30865969804E+02 -0.27833445608E+03  0.29012910958E+03  0.40323402357E+03  0.00000000000E+00 0. -1.
          4    1    6    6  502    0  0.10881655636E+03 -0.89634412294E+02 -0.23968416133E+03  0.27807169578E+03  0.00000000000E+00 0. -1.
          1    1    5    5  503    0 -0.83293016170E+02  0.21683697054E+03  0.78545948825E+02  0.24520494370E+03  0.00000000000E+00 0. -1.
         -2    1    5    5    0  503 -0.96583763712E+02  0.26082117009E+03  0.61825055784E+01  0.27819836368E+03  0.00000000000E+00 0.  1.
         -3    1    6    6    0  502  0.75181617212E+02 -0.13790396507E+02 -0.24729164787E+03  0.25883510138E+03  0.00000000000E+00 0.  1.
<mgrwt>
<rscale>  0 0.16548403E+04</rscale>
<asrwt>0</asrwt>
<pdfrwt beam="1">  1        2 0.12334394E+00 0.16548403E+04</pdfrwt>
<pdfrwt beam="2">  1       -2 0.13137347E+00 0.16548403E+04</pdfrwt>
<totfact> 0.13866379E+01</totfact>
</mgrwt>
</event>
<event>
12    1  0.1442183E-007  0.2037528E+04  0.7818608E-02  0.8589273E-01
         -2   -1    0    0    0  501 -0.00000000000E+00  0.00000000000E+00  0.14712612354E+04  0.14712612354E+04  0.00000000000E+00 0.  1.
          2   -1    0    0  501    0  0.00000000000E+00 -0.00000000000E+00 -0.70543541681E+03  0.70543541681E+03  0.00000000000E+00 0. -1.
         23    2    1    2    0    0 -0.18019390265E+03 -0.59374725263E+03  0.87631255051E+03  0.10776764569E+04  0.91963128931E+02 0.  0.
        254    2    1    2    0    0  0.18019390265E+03  0.59374725263E+03 -0.11048673193E+03  0.10990201953E+04  0.90035128096E+03 0.  0.
        -24    2    4    4    0    0  0.30804881318E+03  0.78405874282E+03 -0.12421212800E+03  0.85527437642E+03  0.80146258332E+02 0.  0.
         24    2    4    4    0    0 -0.12785491053E+03 -0.19031149019E+03  0.13725396069E+02  0.24374581885E+03  0.81598383962E+02 0.  0.
         13    1    3    3    0    0 -0.12240742510E+02 -0.31114006092E+01  0.11835656707E+02  0.17308938749E+02  0.00000000000E+00 0. -1.
        -13    1    3    3    0    0 -0.16795316014E+03 -0.59063585202E+03  0.86447689380E+03  0.10603675182E+04  0.00000000000E+00 0.  1.
          4    1    6    6  502    0 -0.13105257715E+03 -0.15889080056E+03  0.30131067594E+02  0.20815606096E+03  0.00000000000E+00 0. -1.
          3    1    5    5  503    0  0.16701128775E+03  0.52326370080E+03 -0.67376205334E+02  0.55338704706E+03  0.00000000000E+00 0. -1.
         -4    1    5    5    0  503  0.14103752543E+03  0.26079504202E+03 -0.56835922669E+02  0.30188732936E+03  0.00000000000E+00 0.  1.
         -3    1    6    6    0  502  0.31976666180E+01 -0.31420689630E+02 -0.16405671525E+02  0.35589757892E+02  0.00000000000E+00 0.  1.
<mgrwt>
<rscale>  0 0.20375277E+04</rscale>
<asrwt>0</asrwt>
<pdfrwt beam="1">  1        2 0.10852853E+00 0.20375277E+04</pdfrwt>
<pdfrwt beam="2">  1       -2 0.22634788E+00 0.20375277E+04</pdfrwt>
<totfact> 0.33854188E+00</totfact>
</mgrwt>
</event>
<event>
12    1  0.1442183E-007  0.1339777E+04  0.7818608E-02  0.8998603E-01
         -1   -1    0    0    0  501 -0.00000000000E+00  0.00000000000E+00  0.11004080648E+04  0.11004080648E+04  0.00000000000E+00 0.  1.
          1   -1    0    0  501    0  0.00000000000E+00 -0.00000000000E+00 -0.40780408203E+03  0.40780408203E+03  0.00000000000E+00 0. -1.
         23    2    1    2    0    0 -0.34185120890E+03 -0.38581815383E+02  0.59741142624E+02  0.36079228831E+03  0.90836477659E+02 0.  0.
        254    2    1    2    0    0  0.34185120890E+03  0.38581815383E+02  0.63286284017E+03  0.11474198585E+04  0.89314397036E+03 0.  0.
        -24    2    4    4    0    0  0.48921782037E+03  0.22828316241E+03  0.95826933885E+02  0.55357949371E+03  0.76290081831E+02 0.  0.
         24    2    4    4    0    0 -0.14736661147E+03 -0.18970134703E+03  0.53703590628E+03  0.59384036483E+03  0.80841171576E+02 0.  0.
         13    1    3    3    0    0 -0.19239868493E+03 -0.43800716534E+02  0.73615877851E+02  0.21060639640E+03  0.00000000000E+00 0.  1.
        -13    1    3    3    0    0 -0.14945252398E+03  0.52189011512E+01 -0.13874735228E+02  0.15018589191E+03  0.00000000000E+00 0. -1.
          4    1    6    6  502    0 -0.16388875414E+02 -0.18778247322E+02  0.13968938818E+03  0.14189553545E+03  0.00000000000E+00 0. -1.
          1    1    5    5  503    0  0.10452806289E+03  0.15699726740E+02  0.19135979309E+02  0.10741872767E+03  0.00000000000E+00 0. -1.
         -4    1    5    5    0  503  0.38468975749E+03  0.21258343567E+03  0.76690954575E+02  0.44616076604E+03  0.00000000000E+00 0.  1.
         -3    1    6    6    0  502 -0.13097773605E+03 -0.17092309971E+03  0.39734651810E+03  0.45194482938E+03  0.00000000000E+00 0.  1.
<mgrwt>
<rscale>  0 0.13397774E+04</rscale>
<asrwt>0</asrwt>
<pdfrwt beam="1">  1        1 0.62739090E-01 0.13397774E+04</pdfrwt>
<pdfrwt beam="2">  1       -1 0.16929355E+00 0.13397774E+04</pdfrwt>
<totfact> 0.14261852E+01</totfact>
</mgrwt>
</event>
<event>
12    1  0.1442183E-007  0.1519339E+04  0.7818608E-02  0.8871693E-01
          1   -1    0    0  501    0  0.00000000000E+00  0.00000000000E+00  0.19467446163E+04  0.19467446163E+04  0.00000000000E+00 0. -1.
         -1   -1    0    0    0  501 -0.00000000000E+00 -0.00000000000E+00 -0.29644253009E+03  0.29644253009E+03  0.00000000000E+00 0.  1.
         23    2    1    2    0    0  0.12398863405E+03  0.19861683480E+02 -0.15674621699E+03  0.21993012018E+03  0.89622616438E+02 0.  0.
        254    2    1    2    0    0 -0.12398863405E+03 -0.19861683480E+02  0.18070483032E+04  0.20232570262E+04  0.90132000762E+03 0.  0.
        -24    2    4    4    0    0 -0.55330074075E+02 -0.43137471589E+03  0.61292429535E+03  0.75587945482E+03  0.80820763365E+02 0.  0.
         24    2    4    4    0    0 -0.68658559971E+02  0.41151303241E+03  0.11941240078E+04  0.12673775713E+04  0.79099864755E+02 0.  0.
         13    1    3    3    0    0  0.41934238689E+02 -0.33355309714E+02 -0.36036602683E+02  0.64573166203E+02  0.00000000000E+00 0. -1.
        -13    1    3    3    0    0  0.82054395357E+02  0.53216993194E+02 -0.12070961431E+03  0.15535695397E+03  0.00000000000E+00 0.  1.
          2    1    6    6  502    0 -0.60267783125E+02  0.39655994741E+03  0.10821293803E+04  0.11540779840E+04  0.00000000000E+00 0. -1.
          3    1    5    5  503    0 -0.68920788238E+02 -0.22753890252E+03  0.31533121523E+03  0.39491493073E+03  0.00000000000E+00 0. -1.
         -4    1    5    5    0  503  0.13590714163E+02 -0.20383581337E+03  0.29759308012E+03  0.36096452410E+03  0.00000000000E+00 0.  1.
         -3    1    6    6    0  502 -0.83907768458E+01  0.14953084999E+02  0.11199462755E+03  0.11329958732E+03  0.00000000000E+00 0.  1.
<mgrwt>
<rscale>  0 0.15193392E+04</rscale>
<asrwt>0</asrwt>
<pdfrwt beam="1">  1        1 0.29949916E+00 0.15193392E+04</pdfrwt>
<pdfrwt beam="2">  1       -1 0.45606544E-01 0.15193392E+04</pdfrwt>
<totfact> 0.14946623E+01</totfact>
</mgrwt>
</event>
<event>
12    1  0.1442183E-007  0.2021302E+04  0.7818608E-02  0.8596726E-01
         -2   -1    0    0    0  501 -0.00000000000E+00  0.00000000000E+00  0.35873078183E+03  0.35873078183E+03  0.00000000000E+00 0.  1.
          2   -1    0    0  501    0  0.00000000000E+00 -0.00000000000E+00 -0.28473022883E+04  0.28473022883E+04  0.00000000000E+00 0. -1.
         23    2    1    2    0    0 -0.31278958854E+03  0.93151448627E+02  0.17402377114E+03  0.37650772153E+03  0.70422101466E+02 0.  0.
        254    2    1    2    0    0  0.31278958854E+03 -0.93151448627E+02 -0.26625952776E+04  0.28295253486E+04  0.90015863427E+03 0.  0.
        -24    2    4    4    0    0  0.64494140925E+02  0.38239878938E+03 -0.13958690839E+04  0.14511871263E+04  0.84292631912E+02 0.  0.
         24    2    4    4    0    0  0.24829544761E+03 -0.47555023801E+03 -0.12667261937E+04  0.13783382223E+04  0.86153044252E+02 0.  0.
         13    1    3    3    0    0 -0.29302423321E+03  0.10438678149E+03  0.16420070117E+03  0.35174091554E+03  0.00000000000E+00 0.  1.
        -13    1    3    3    0    0 -0.19765355326E+02 -0.11235332861E+02  0.98230699720E+01  0.24766805998E+02  0.00000000000E+00 0. -1.
          2    1    6    6  502    0  0.16485657377E+03 -0.31051611167E+03 -0.72133206541E+03  0.80244494771E+03  0.00000000000E+00 0. -1.
          3    1    5    5  503    0  0.50825424652E+02  0.28031979071E+03 -0.11469703855E+04  0.11818220992E+04  0.00000000000E+00 0. -1.
         -4    1    5    5    0  503  0.13668716273E+02  0.10207899867E+03 -0.24889869835E+03  0.26936502708E+03  0.00000000000E+00 0.  1.
         -1    1    6    6    0  502  0.83438873845E+02 -0.16503412634E+03 -0.54539412833E+03  0.57589327461E+03  0.00000000000E+00 0.  1.
<mgrwt>
<rscale>  0 0.20213015E+04</rscale>
<asrwt>0</asrwt>
<pdfrwt beam="1">  1        2 0.43804652E+00 0.20213015E+04</pdfrwt>
<pdfrwt beam="2">  1       -2 0.55189349E-01 0.20213015E+04</pdfrwt>
<totfact> 0.62058569E+00</totfact>
</mgrwt>
</event>
<event>
12    1  0.1442183E-007  0.1403634E+04  0.7818608E-02  0.8951192E-01
         -2   -1    0    0    0  501 -0.00000000000E+00  0.00000000000E+00  0.67552603676E+03  0.67552603676E+03  0.00000000000E+00 0.  1.
          2   -1    0    0  501    0  0.00000000000E+00 -0.00000000000E+00 -0.72913104657E+03  0.72913104657E+03  0.00000000000E+00 0. -1.
         23    2    1    2    0    0  0.16978193469E+03 -0.18423565798E+03  0.30283825986E+03  0.40325437536E+03  0.90190889763E+02 0.  0.
        254    2    1    2    0    0 -0.16978193469E+03  0.18423565798E+03 -0.35644326967E+03  0.10014027080E+04  0.90165785972E+03 0.  0.
        -24    2    4    4    0    0 -0.36388757824E+03 -0.24110816881E+03 -0.76616337220E+02  0.45035296941E+03  0.80002595356E+02 0.  0.
         24    2    4    4    0    0  0.19410564355E+03  0.42534382679E+03 -0.27982693245E+03  0.55104973855E+03  0.82209065066E+02 0.  0.
         13    1    3    3    0    0  0.12227663892E+01  0.55875527980E+01 -0.24374414463E+01  0.62174773596E+01  0.00000000000E+00 0. -1.
        -13    1    3    3    0    0  0.16855916830E+03 -0.18982321078E+03  0.30527570131E+03  0.39703689800E+03  0.00000000000E+00 0.  1.
          4    1    6    6  502    0  0.10552731584E+03  0.19798965756E+03 -0.17910070494E+03  0.28707661242E+03  0.00000000000E+00 0. -1.
          1    1    5    5  503    0 -0.13876973159E+03 -0.92995018798E+02  0.98755844140E+01  0.16733989092E+03  0.00000000000E+00 0. -1.
         -2    1    5    5    0  503 -0.22511784665E+03 -0.14811315001E+03 -0.86491921634E+02  0.28301307849E+03  0.00000000000E+00 0.  1.
         -3    1    6    6    0  502  0.88578327715E+02  0.22735416924E+03 -0.10072622751E+03  0.26397312613E+03  0.00000000000E+00 0.  1.
<mgrwt>
<rscale>  0 0.14036339E+04</rscale>
<asrwt>0</asrwt>
<pdfrwt beam="1">  1        2 0.11217401E+00 0.14036339E+04</pdfrwt>
<pdfrwt beam="2">  1       -2 0.10392708E+00 0.14036339E+04</pdfrwt>
<totfact> 0.28518819E+01</totfact>
</mgrwt>
</event>
<event>
12    1  0.1442183E-007  0.1658062E+04  0.7818608E-02  0.8785651E-01
          1   -1    0    0  501    0  0.00000000000E+00  0.00000000000E+00  0.96774571573E+03  0.96774571573E+03  0.00000000000E+00 0.  1.
         -1   -1    0    0    0  501 -0.00000000000E+00 -0.00000000000E+00 -0.71019970641E+03  0.71019970641E+03  0.00000000000E+00 0. -1.
         23    2    1    2    0    0  0.11384365435E+03  0.48143945034E+03  0.39669154280E+03  0.64044477487E+03  0.89783113920E+02 0.  0.
        254    2    1    2    0    0 -0.11384365435E+03 -0.48143945034E+03 -0.13914553348E+03  0.10375006473E+04  0.90127786593E+03 0.  0.
        -24    2    4    4    0    0 -0.12047264580E+03  0.14046969925E+03 -0.32598478769E+03  0.38311447575E+03  0.79153173816E+02 0.  0.
         24    2    4    4    0    0  0.66289914516E+01 -0.62190914959E+03  0.18683925421E+03  0.65438617153E+03  0.80606579719E+02 0.  0.
         11    1    3    3    0    0  0.11812420813E+03  0.44475915252E+03  0.33748953295E+03  0.57066909602E+03  0.00000000000E+00 0. -1.
        -11    1    3    3    0    0 -0.42805537841E+01  0.36680297819E+02  0.59202009843E+02  0.69775678845E+02  0.00000000000E+00 0.  1.
          2    1    6    6  502    0 -0.26200648316E+02 -0.21259361155E+03  0.90936842986E+02  0.23270588101E+03  0.00000000000E+00 0. -1.
          3    1    5    5  503    0 -0.93502590883E+01  0.41963294644E+02 -0.31467758718E+02  0.53278187667E+02  0.00000000000E+00 0. -1.
         -4    1    5    5    0  503 -0.11112238671E+03  0.98506404609E+02 -0.29451702898E+03  0.32983628808E+03  0.00000000000E+00 0.  1.
         -1    1    6    6    0  502  0.32829639768E+02 -0.40931553804E+03  0.95902411224E+02  0.42168029052E+03  0.00000000000E+00 0.  1.
<mgrwt>
<rscale>  0 0.16580624E+04</rscale>
<asrwt>0</asrwt>
<pdfrwt beam="1">  1        1 0.14888396E+00 0.16580624E+04</pdfrwt>
<pdfrwt beam="2">  1       -1 0.10926149E+00 0.16580624E+04</pdfrwt>
<totfact> 0.11882937E+01</totfact>
</mgrwt>
</event>
<event>
12    1  0.1442183E-007  0.2171515E+04  0.7818608E-02  0.8530378E-01
         -2   -1    0    0    0  501 -0.00000000000E+00  0.00000000000E+00  0.99569278122E+03  0.99569278122E+03  0.00000000000E+00 0.  1.
          2   -1    0    0  501    0  0.00000000000E+00 -0.00000000000E+00 -0.11839692691E+04  0.11839692691E+04  0.00000000000E+00 0. -1.
         23    2    1    2    0    0  0.12513956114E+03 -0.87840017205E+03 -0.22178609921E+03  0.91911222514E+03  0.91276703343E+02 0.  0.
        254    2    1    2    0    0 -0.12513956114E+03  0.87840017205E+03  0.33509611332E+02  0.12605498252E+04  0.89477158857E+03 0.  0.
        -24    2    4    4    0    0  0.12853593099E+03  0.69971581310E+03  0.36170193907E+03  0.80192820293E+03  0.78338019385E+02 0.  0.
         24    2    4    4    0    0 -0.25367549213E+03  0.17868435895E+03 -0.32819232774E+03  0.45862162225E+03  0.79650693464E+02 0.  0.
         11    1    3    3    0    0  0.22493069773E+02 -0.30763537895E+02 -0.10494225528E+02  0.39527992879E+02  0.00000000000E+00 0.  1.
        -11    1    3    3    0    0  0.10264649137E+03 -0.84763663415E+03 -0.21129187368E+03  0.87958423226E+03  0.00000000000E+00 0. -1.
          4    1    6    6  502    0 -0.21881917291E+03  0.11498808876E+03 -0.26460269590E+03  0.36210313126E+03  0.00000000000E+00 0. -1.
          1    1    5    5  503    0  0.11343338301E+03  0.68377175755E+03  0.34437267703E+03  0.77395315716E+03  0.00000000000E+00 0. -1.
         -2    1    5    5    0  503  0.15102547983E+02  0.15944055550E+02  0.17329262046E+02  0.27975045773E+02  0.00000000000E+00 0.  1.
         -3    1    6    6    0  502 -0.34856319219E+02  0.63696270197E+02 -0.63589631837E+02  0.96518490993E+02  0.00000000000E+00 0.  1.
<mgrwt>
<rscale>  0 0.21715153E+04</rscale>
<asrwt>0</asrwt>
<pdfrwt beam="1">  1        2 0.18214912E+00 0.21715153E+04</pdfrwt>
<pdfrwt beam="2">  1       -2 0.15318351E+00 0.21715153E+04</pdfrwt>
<totfact> 0.50269844E+00</totfact>
</mgrwt>
</event>
<event>
12    1  0.1442183E-007  0.1186239E+04  0.7818608E-02  0.9124987E-01
         -1   -1    0    0    0  501 -0.00000000000E+00  0.00000000000E+00  0.20400568178E+03  0.20400568178E+03  0.00000000000E+00 0.  1.
          1   -1    0    0  501    0  0.00000000000E+00 -0.00000000000E+00 -0.17244178005E+04  0.17244178005E+04  0.00000000000E+00 0. -1.
         23    2    1    2    0    0  0.14092959083E+03  0.19846901719E+01 -0.55837939741E+03  0.58380258306E+03  0.95774819067E+02 0.  0.
        254    2    1    2    0    0 -0.14092959083E+03 -0.19846901719E+01 -0.96203272136E+03  0.13446208993E+04  0.92878055385E+03 0.  0.
        -24    2    4    4    0    0 -0.50584806425E+03  0.54791956355E+02 -0.34214137040E+03  0.61854930056E+03  0.81597164784E+02 0.  0.
         24    2    4    4    0    0  0.36491847342E+03 -0.56776646527E+02 -0.61989135096E+03  0.72607159870E+03  0.80781183530E+02 0.  0.
         13    1    3    3    0    0  0.13942102712E+03 -0.24950313078E+02 -0.43383585751E+03  0.45637078367E+03  0.00000000000E+00 0. -1.
        -13    1    3    3    0    0  0.15085637101E+01  0.26935003250E+02 -0.12454353990E+03  0.12743179939E+03  0.00000000000E+00 0.  1.
          4    1    6    6  502    0  0.27480492943E+03 -0.74530547211E+02 -0.44004076405E+03  0.52412634520E+03  0.00000000000E+00 0. -1.
          3    1    5    5  503    0 -0.37200209572E+03  0.48185444814E+02 -0.20791233807E+03  0.42887636521E+03  0.00000000000E+00 0. -1.
         -4    1    5    5    0  503 -0.13384596853E+03  0.66065115412E+01 -0.13422903232E+03  0.18967293535E+03  0.00000000000E+00 0.  1.
         -3    1    6    6    0  502  0.90113543983E+02  0.17753900684E+02 -0.17985058691E+03  0.20194525350E+03  0.00000000000E+00 0.  1.
<mgrwt>
<rscale>  0 0.11862395E+04</rscale>
<asrwt>0</asrwt>
<pdfrwt beam="1">  1        1 0.26529505E+00 0.11862395E+04</pdfrwt>
<pdfrwt beam="2">  1       -1 0.31385489E-01 0.11862395E+04</pdfrwt>
<totfact> 0.42837411E+01</totfact>
</mgrwt>
</event>
<event>
12    1  0.1442183E-007  0.2186802E+04  0.7818608E-02  0.8523942E-01
         -2   -1    0    0    0  501 -0.00000000000E+00  0.00000000000E+00  0.68448602227E+03  0.68448602227E+03  0.00000000000E+00 0.  1.
          2   -1    0    0  501    0  0.00000000000E+00 -0.00000000000E+00 -0.17466036914E+04  0.17466036914E+04  0.00000000000E+00 0. -1.
         23    2    1    2    0    0  0.69668355415E+03  0.20665063219E+03  0.13631496637E+03  0.74503532469E+03  0.91779118365E+02 0.  0.
        254    2    1    2    0    0 -0.69668355415E+03 -0.20665063219E+03 -0.11984326355E+04  0.16860543890E+04  0.93726525720E+03 0.  0.
        -24    2    4    4    0    0 -0.75791709566E+03 -0.39291818508E+03 -0.11987359304E+04  0.14738717514E+04  0.80666503609E+02 0.  0.
         24    2    4    4    0    0  0.61233541505E+02  0.18626755289E+03  0.30329487333E+00  0.21218263756E+03  0.81093969134E+02 0.  0.
         11    1    3    3    0    0  0.67317361477E+03  0.21325860755E+03  0.14121533174E+03  0.72012757150E+03  0.00000000000E+00 0.  1.
        -11    1    3    3    0    0  0.23509939387E+02 -0.66079753627E+01 -0.49003653686E+01  0.24907753193E+02  0.00000000000E+00 0. -1.
          4    1    6    6  502    0 -0.19470717530E+02  0.26589828986E+02  0.42228261135E+01  0.33225895127E+02  0.00000000000E+00 0. -1.
          1    1    5    5  503    0 -0.11622019418E+03 -0.36748382853E+02 -0.20499066710E+03  0.23849266398E+03  0.00000000000E+00 0. -1.
         -2    1    5    5    0  503 -0.64169690148E+03 -0.35616980222E+03 -0.99374526326E+03  0.12353790874E+04  0.00000000000E+00 0.  1.
         -3    1    6    6    0  502  0.80704259035E+02  0.15967772390E+03 -0.39195312402E+01  0.17895674243E+03  0.00000000000E+00 0.  1.
<mgrwt>
<rscale>  0 0.21868021E+04</rscale>
<asrwt>0</asrwt>
<pdfrwt beam="1">  1        2 0.26870825E+00 0.21868021E+04</pdfrwt>
<pdfrwt beam="2">  1       -2 0.10530555E+00 0.21868021E+04</pdfrwt>
<totfact> 0.61711967E+00</totfact>
</mgrwt>
</event>
<event>
12    1  0.1442183E-007  0.1606510E+04  0.7818608E-02  0.8816559E-01
          1   -1    0    0  501    0  0.00000000000E+00  0.00000000000E+00  0.10652913084E+04  0.10652913084E+04  0.00000000000E+00 0. -1.
         -1   -1    0    0    0  501 -0.00000000000E+00 -0.00000000000E+00 -0.60567323756E+03  0.60567323756E+03  0.00000000000E+00 0.  1.
         23    2    1    2    0    0 -0.19687122307E+02 -0.13817710552E+02  0.73269012185E+03  0.73875339041E+03  0.91341366704E+02 0.  0.
        254    2    1    2    0    0  0.19687122307E+02  0.13817710552E+02 -0.27307205105E+03  0.93221115551E+03  0.89099426568E+03 0.  0.
        -24    2    4    4    0    0 -0.10249730791E+03 -0.41587862751E+03 -0.16255394998E+03  0.46512770960E+03  0.80369575316E+02 0.  0.
         24    2    4    4    0    0  0.12218443021E+03  0.42969633806E+03 -0.11051810107E+03  0.46708344591E+03  0.79904423200E+02 0.  0.
         13    1    3    3    0    0 -0.78713775363E+01 -0.38507055600E+02  0.13946980944E+03  0.14490196569E+03  0.00000000000E+00 0.  1.
        -13    1    3    3    0    0 -0.11815744771E+02  0.24689345048E+02  0.59322031242E+03  0.59385142472E+03  0.00000000000E+00 0. -1.
          2    1    6    6  502    0  0.10297040415E+03  0.39589162548E+03 -0.12141439663E+03  0.42670193223E+03  0.00000000000E+00 0. -1.
          3    1    5    5  503    0 -0.68612058183E+02 -0.36307104946E+03 -0.15908150895E+03  0.40228736989E+03  0.00000000000E+00 0. -1.
         -4    1    5    5    0  503 -0.33885249725E+02 -0.52807578053E+02 -0.34724410364E+01  0.62840339715E+02  0.00000000000E+00 0.  1.
         -1    1    6    6    0  502  0.19214026065E+02  0.33804712579E+02  0.10896295561E+02  0.40381513681E+02  0.00000000000E+00 0.  1.
<mgrwt>
<rscale>  0 0.16065098E+04</rscale>
<asrwt>0</asrwt>
<pdfrwt beam="1">  1        1 0.16389097E+00 0.16065098E+04</pdfrwt>
<pdfrwt beam="2">  1       -1 0.93180498E-01 0.16065098E+04</pdfrwt>
<totfact> 0.14449145E+01</totfact>
</mgrwt>
</event>
<event>
12    1  0.1442183E-007  0.2036435E+04  0.7818608E-02  0.8589773E-01
          2   -1    0    0  501    0  0.00000000000E+00  0.00000000000E+00  0.27891654323E+04  0.27891654323E+04  0.00000000000E+00 0. -1.
         -2   -1    0    0    0  501 -0.00000000000E+00 -0.00000000000E+00 -0.37171238713E+03  0.37171238713E+03  0.00000000000E+00 0.  1.
         23    2    1    2    0    0 -0.29657243904E+03 -0.30928301225E+03 -0.10979570737E+03  0.45175902948E+03  0.91760177047E+02 0.  0.
        254    2    1    2    0    0  0.29657243904E+03  0.30928301225E+03  0.25272487525E+04  0.27091187899E+04  0.87677087518E+03 0.  0.
        -24    2    4    4    0    0  0.12730957211E+03  0.25276407702E+03  0.16154221545E+03  0.33541838284E+03  0.79449344824E+02 0.  0.
         24    2    4    4    0    0  0.16926286693E+03  0.56518935230E+02  0.23657065371E+04  0.23737004071E+04  0.77729626954E+02 0.  0.
         13    1    3    3    0    0 -0.23671017674E+01  0.40996757466E+01 -0.91314374860E+01  0.10285604628E+02  0.00000000000E+00 0. -1.
        -13    1    3    3    0    0 -0.29420533727E+03 -0.31338268800E+03 -0.10066426988E+03  0.44147342485E+03  0.00000000000E+00 0.  1.
          2    1    6    6  502    0 -0.76558629320E+01  0.71668496845E+01  0.17117403177E+03  0.17149497114E+03  0.00000000000E+00 0. -1.
          1    1    5    5  503    0  0.74882558829E+02  0.69651610309E+02  0.71179903207E+02  0.12460065432E+03  0.00000000000E+00 0. -1.
         -2    1    5    5    0  503  0.52427013278E+02  0.18311246671E+03  0.90362312244E+02  0.21081772853E+03  0.00000000000E+00 0.  1.
         -1    1    6    6    0  502  0.17691872986E+03  0.49352085546E+02  0.21945325053E+04  0.22022054360E+04  0.00000000000E+00 0.  1.
<mgrwt>
<rscale>  0 0.20364355E+04</rscale>
<asrwt>0</asrwt>
<pdfrwt beam="1">  1        2 0.42910236E+00 0.20364355E+04</pdfrwt>
<pdfrwt beam="2">  1       -2 0.57186523E-01 0.20364355E+04</pdfrwt>
<totfact> 0.62399768E+00</totfact>
</mgrwt>
</event>
<event>
12    1  0.1442183E-007  0.1420593E+04  0.7818608E-02  0.8939046E-01
          2   -1    0    0  501    0  0.00000000000E+00  0.00000000000E+00  0.10560990785E+04  0.10560990785E+04  0.00000000000E+00 0. -1.
         -2   -1    0    0    0  501 -0.00000000000E+00 -0.00000000000E+00 -0.47772137268E+03  0.47772137268E+03  0.00000000000E+00 0.  1.
         23    2    1    2    0    0  0.13241385446E+03  0.50548327613E+02  0.59807581672E+03  0.62120300457E+03  0.90055139001E+02 0.  0.
        254    2    1    2    0    0 -0.13241385446E+03 -0.50548327613E+02 -0.19698110938E+02  0.91261744657E+03  0.90132903311E+03 0.  0.
        -24    2    4    4    0    0  0.16946399717E+03 -0.40114876489E+03 -0.18886655045E+00  0.44262113347E+03  0.79215239806E+02 0.  0.
         24    2    4    4    0    0 -0.30187785163E+03  0.35060043728E+03 -0.19509244387E+02  0.46999631310E+03  0.80405346744E+02 0.  0.
         11    1    3    3    0    0  0.13979613271E+03  0.62654463546E+02  0.53169138934E+03  0.55332113100E+03  0.00000000000E+00 0. -1.
        -11    1    3    3    0    0 -0.73822782451E+01 -0.12106135933E+02  0.66384427383E+02  0.67881873562E+02  0.00000000000E+00 0.  1.
          2    1    6    6  502    0 -0.21278571996E+03  0.18696892878E+03 -0.13877537749E+02  0.28359782968E+03  0.00000000000E+00 0. -1.
          1    1    5    5  503    0  0.12587810275E+03 -0.20336885954E+03  0.14122096638E+02  0.23959053277E+03  0.00000000000E+00 0. -1.
         -2    1    5    5    0  503  0.43585894424E+02 -0.19777990535E+03 -0.14310963188E+02  0.20303060070E+03  0.00000000000E+00 0.  1.
         -1    1    6    6    0  502 -0.89092131670E+02  0.16363150850E+03 -0.56317066381E+01  0.18639848341E+03  0.00000000000E+00 0.  1.
<mgrwt>
<rscale>  0 0.14205930E+04</rscale>
<asrwt>0</asrwt>
<pdfrwt beam="1">  1        2 0.16247678E+00 0.14205930E+04</pdfrwt>
<pdfrwt beam="2">  1       -2 0.73495596E-01 0.14205930E+04</pdfrwt>
<totfact> 0.37667698E+01</totfact>
</mgrwt>
</event>
<event>
12    1  0.1442183E-007  0.2620827E+04  0.7818608E-02  0.8361161E-01
          1   -1    0    0  501    0  0.00000000000E+00  0.00000000000E+00  0.12437503138E+04  0.12437503138E+04  0.00000000000E+00 0. -1.
         -1   -1    0    0    0  501 -0.00000000000E+00 -0.00000000000E+00 -0.13806495870E+04  0.13806495870E+04  0.00000000000E+00 0.  1.
         23    2    1    2    0    0  0.88878731779E+03  0.31481885014E+03  0.53837911224E+03  0.10892777862E+04  0.87293884646E+02 0.  0.
        254    2    1    2    0    0 -0.88878731779E+03 -0.31481885014E+03 -0.67527838545E+03  0.15351221146E+04  0.10057560361E+04 0.  0.
        -24    2    4    4    0    0 -0.64764900045E+03  0.22733915162E+03 -0.62932372060E+03  0.93460695032E+03  0.79432289582E+02 0.  0.
         24    2    4    4    0    0 -0.24113831734E+03 -0.54215800176E+03 -0.45954664851E+02  0.60051516425E+03  0.80147640758E+02 0.  0.
         13    1    3    3    0    0  0.62558141475E+03  0.24246004910E+03  0.34242716588E+03  0.75325649405E+03  0.00000000000E+00 0.  1.
        -13    1    3    3    0    0  0.26320590304E+03  0.72358801039E+02  0.19595194636E+03  0.33602129213E+03  0.00000000000E+00 0. -1.
          2    1    6    6  502    0 -0.22008417273E+03 -0.48705037875E+03 -0.16847653802E+02  0.53473260417E+03  0.00000000000E+00 0. -1.
          3    1    5    5  503    0 -0.61952652284E+03  0.19860345768E+03 -0.59758588056E+03  0.88338289011E+03  0.00000000000E+00 0. -1.
         -4    1    5    5    0  503 -0.28122477611E+02  0.28735693939E+02 -0.31737840039E+02  0.51224060201E+02  0.00000000000E+00 0.  1.
         -1    1    6    6    0  502 -0.21054144612E+02 -0.55107623011E+02 -0.29107011049E+02  0.65782560086E+02  0.00000000000E+00 0.  1.
<mgrwt>
<rscale>  0 0.26208269E+04</rscale>
<asrwt>0</asrwt>
<pdfrwt beam="1">  1        1 0.19134620E+00 0.26208269E+04</pdfrwt>
<pdfrwt beam="2">  1       -1 0.21240763E+00 0.26208269E+04</pdfrwt>
<totfact> 0.10808706E+00</totfact>
</mgrwt>
</event>
<event>
12    1  0.1442183E-007  0.1359722E+04  0.7818608E-02  0.8983501E-01
         -2   -1    0    0    0  501 -0.00000000000E+00  0.00000000000E+00  0.33772980645E+03  0.33772980645E+03  0.00000000000E+00 0.  1.
          2   -1    0    0  501    0  0.00000000000E+00 -0.00000000000E+00 -0.13685823533E+04  0.13685823533E+04  0.00000000000E+00 0. -1.
         23    2    1    2    0    0  0.12606246744E+02  0.14400687999E+03 -0.72426073470E+03  0.74418163931E+03  0.91410073351E+02 0.  0.
        254    2    1    2    0    0 -0.12606246744E+02 -0.14400687999E+03 -0.30659181214E+03  0.96213052044E+03  0.90044416826E+03 0.  0.
        -24    2    4    4    0    0  0.40208453201E+03 -0.24431372322E+03 -0.17759780093E+03  0.50931160586E+03  0.80598801057E+02 0.  0.
         24    2    4    4    0    0 -0.41469077875E+03  0.10030684323E+03 -0.12899401121E+03  0.45281891459E+03  0.79847415099E+02 0.  0.
         13    1    3    3    0    0  0.28752112234E+02  0.51488123817E+02 -0.13272088553E+03  0.14523272464E+03  0.00000000000E+00 0.  1.
        -13    1    3    3    0    0 -0.16145865490E+02  0.92518756172E+02 -0.59153984917E+03  0.59894891466E+03  0.00000000000E+00 0. -1.
          4    1    6    6  502    0 -0.72822602837E+02  0.35808759369E+02 -0.52369550204E+02  0.96581408771E+02  0.00000000000E+00 0. -1.
          3    1    5    5  503    0  0.12293984895E+03 -0.33161109699E+02 -0.47524211236E+02  0.13591326760E+03  0.00000000000E+00 0. -1.
         -4    1    5    5    0  503  0.27914468305E+03 -0.21115261352E+03 -0.13007358970E+03  0.37339833826E+03  0.00000000000E+00 0.  1.
         -3    1    6    6    0  502 -0.34186817591E+03  0.64498083865E+02 -0.76624461004E+02  0.35623750581E+03  0.00000000000E+00 0.  1.
<mgrwt>
<rscale>  0 0.13597221E+04</rscale>
<asrwt>0</asrwt>
<pdfrwt beam="1">  1        2 0.21055113E+00 0.13597221E+04</pdfrwt>
<pdfrwt beam="2">  1       -2 0.51958432E-01 0.13597221E+04</pdfrwt>
<totfact> 0.51487529E+01</totfact>
</mgrwt>
</event>
<event>
12    1  0.1442183E-007  0.1582353E+04  0.7818608E-02  0.8831463E-01
          1   -1    0    0  501    0  0.00000000000E+00  0.00000000000E+00  0.98292331219E+03  0.98292331219E+03  0.00000000000E+00 0. -1.
         -1   -1    0    0    0  501 -0.00000000000E+00 -0.00000000000E+00 -0.63683553681E+03  0.63683553681E+03  0.00000000000E+00 0.  1.
         23    2    1    2    0    0 -0.31173527588E+01  0.36664690534E+03 -0.29077534061E+03  0.47690384817E+03  0.91909252040E+02 0.  0.
        254    2    1    2    0    0  0.31173527588E+01 -0.36664690534E+03  0.63686311598E+03  0.11428550008E+04  0.87526181989E+03 0.  0.
        -24    2    4    4    0    0 -0.38752647546E+03 -0.35076874215E+03  0.47892485997E+03  0.71363757145E+03  0.81817371236E+02 0.  0.
         24    2    4    4    0    0  0.39064382822E+03 -0.15878163189E+02  0.15793825601E+03  0.42921742939E+03  0.80177256017E+02 0.  0.
         11    1    3    3    0    0 -0.41744691544E+02  0.12558364400E+03 -0.82117444903E+02  0.15574705670E+03  0.00000000000E+00 0. -1.
        -11    1    3    3    0    0  0.38627338785E+02  0.24106326134E+03 -0.20865789570E+03  0.32115679147E+03  0.00000000000E+00 0.  1.
          2    1    6    6  502    0  0.33854755317E+03 -0.16472528597E+01  0.10720403107E+03  0.35511950591E+03  0.00000000000E+00 0. -1.
          1    1    5    5  503    0 -0.37384155503E+03 -0.31179688533E+03  0.42914838003E+03  0.64895542070E+03  0.00000000000E+00 0. -1.
         -2    1    5    5    0  503 -0.13684920435E+02 -0.38971856815E+02  0.49776479943E+02  0.64682150756E+02  0.00000000000E+00 0.  1.
         -1    1    6    6    0  502  0.52096275052E+02 -0.14230910329E+02  0.50734224943E+02  0.74097923477E+02  0.00000000000E+00 0.  1.
<mgrwt>
<rscale>  0 0.15823533E+04</rscale>
<asrwt>0</asrwt>
<pdfrwt beam="1">  1        1 0.15121897E+00 0.15823533E+04</pdfrwt>
<pdfrwt beam="2">  1       -1 0.97974699E-01 0.15823533E+04</pdfrwt>
<totfact> 0.14979509E+01</totfact>
</mgrwt>
</event>
<event>
12    1  0.1442183E-007  0.1741985E+04  0.7818608E-02  0.8737774E-01
         -1   -1    0    0    0  501 -0.00000000000E+00  0.00000000000E+00  0.24655588596E+03  0.24655588596E+03  0.00000000000E+00 0.  1.
          1   -1    0    0  501    0  0.00000000000E+00 -0.00000000000E+00 -0.30769008877E+04  0.30769008877E+04  0.00000000000E+00 0. -1.
         23    2    1    2    0    0  0.20228951685E+03  0.53422514624E+02  0.10186313334E+03  0.25004181255E+03  0.91486591337E+02 0.  0.
        254    2    1    2    0    0 -0.20228951685E+03 -0.53422514624E+02 -0.29322081350E+04  0.30734149611E+04  0.89680542041E+03 0.  0.
        -24    2    4    4    0    0  0.20810546804E+03 -0.46720258845E+02 -0.23221774951E+04  0.23332667253E+04  0.78323842691E+02 0.  0.
         24    2    4    4    0    0 -0.41039498488E+03 -0.67022557790E+01 -0.61003064000E+03  0.74014823581E+03  0.84929767387E+02 0.  0.
         11    1    3    3    0    0  0.42469213284E+02  0.48000185476E+02  0.52009238160E+02  0.82538553032E+02  0.00000000000E+00 0. -1.
        -11    1    3    3    0    0  0.15982030356E+03  0.54223291483E+01  0.49853895176E+02  0.16750325952E+03  0.00000000000E+00 0.  1.
          4    1    6    6  502    0 -0.25212576686E+02  0.87501346852E+01 -0.82975248773E+02  0.87161521264E+02  0.00000000000E+00 0. -1.
          3    1    5    5  503    0 -0.28264290968E+01 -0.10361638722E+01 -0.37195168847E+01  0.47850959097E+01  0.00000000000E+00 0. -1.
         -4    1    5    5    0  503  0.21093189714E+03 -0.45684094973E+02 -0.23184579782E+04  0.23284816294E+04  0.00000000000E+00 0.  1.
         -3    1    6    6    0  502 -0.38518240820E+03 -0.15452390464E+02 -0.52705539122E+03  0.65298671455E+03  0.00000000000E+00 0.  1.
<mgrwt>
<rscale>  0 0.17419851E+04</rscale>
<asrwt>0</asrwt>
<pdfrwt beam="1">  1        1 0.47336934E+00 0.17419851E+04</pdfrwt>
<pdfrwt beam="2">  1       -1 0.37931677E-01 0.17419851E+04</pdfrwt>
<totfact> 0.33538254E+00</totfact>
</mgrwt>
</event>
<event>
12    1  0.1442183E-007  0.1524806E+04  0.7818608E-02  0.8868122E-01
         -1   -1    0    0    0  501 -0.00000000000E+00  0.00000000000E+00  0.77607986094E+03  0.77607986094E+03  0.00000000000E+00 0.  1.
          1   -1    0    0  501    0  0.00000000000E+00 -0.00000000000E+00 -0.74896762675E+03  0.74896762675E+03  0.00000000000E+00 0. -1.
         23    2    1    2    0    0  0.84931900301E+02 -0.15042291967E+01  0.49992013671E+03  0.51524268316E+03  0.91319160433E+02 0.  0.
        254    2    1    2    0    0 -0.84931900301E+02  0.15042291967E+01 -0.47280790253E+03  0.10098048045E+04  0.88822448749E+03 0.  0.
        -24    2    4    4    0    0  0.84028126019E+00 -0.26506364217E+03 -0.62379440513E+03  0.68246092304E+03  0.79837404339E+02 0.  0.
         24    2    4    4    0    0 -0.85772181561E+02  0.26656787137E+03  0.15098650261E+03  0.32734388149E+03  0.77083043568E+02 0.  0.
         13    1    3    3    0    0  0.94417237971E+02 -0.16183506513E+02  0.47642408304E+03  0.48595928596E+03  0.00000000000E+00 0.  1.
        -13    1    3    3    0    0 -0.94853376698E+01  0.14679277316E+02  0.23496053666E+02  0.29283397192E+02  0.00000000000E+00 0. -1.
          2    1    6    6  502    0 -0.57722566577E+01  0.94727803917E+01  0.30323698140E+02  0.32288994784E+02  0.00000000000E+00 0. -1.
          1    1    5    5  503    0  0.98350166287E+00 -0.10312903069E+03 -0.15230931570E+03  0.18394208843E+03  0.00000000000E+00 0. -1.
         -2    1    5    5    0  503 -0.14322040268E+00 -0.16193461148E+03 -0.47148508944E+03  0.49851883462E+03  0.00000000000E+00 0.  1.
         -1    1    6    6    0  502 -0.79999924904E+02  0.25709509098E+03  0.12066280447E+03  0.29505488671E+03  0.00000000000E+00 0.  1.
<mgrwt>
<rscale>  0 0.15248065E+04</rscale>
<asrwt>0</asrwt>
<pdfrwt beam="1">  1        1 0.11522579E+00 0.15248065E+04</pdfrwt>
<pdfrwt beam="2">  1       -1 0.11939690E+00 0.15248065E+04</pdfrwt>
<totfact> 0.14856804E+01</totfact>
</mgrwt>
</event>
<event>
12    1  0.1442183E-007  0.1142036E+04  0.7818608E-02  0.9165163E-01
         -2   -1    0    0    0  501 -0.00000000000E+00  0.00000000000E+00  0.15062814033E+03  0.15062814033E+03  0.00000000000E+00 0.  1.
          2   -1    0    0  501    0  0.00000000000E+00 -0.00000000000E+00 -0.21646773408E+04  0.21646773408E+04  0.00000000000E+00 0. -1.
         23    2    1    2    0    0 -0.16964390432E+03  0.96519640503E+02 -0.30542605234E+03  0.37401262053E+03  0.92224029347E+02 0.  0.
        254    2    1    2    0    0  0.16964390432E+03 -0.96519640503E+02 -0.17086231481E+04  0.19412928606E+04  0.90062745517E+03 0.  0.
        -24    2    4    4    0    0  0.39089365205E+03 -0.37975307415E+03 -0.10612870434E+04  0.11957918794E+04  0.81103549634E+02 0.  0.
         24    2    4    4    0    0 -0.22124974773E+03  0.28323343364E+03 -0.64733610475E+03  0.74550098124E+03  0.86919800449E+02 0.  0.
         11    1    3    3    0    0 -0.47305507942E+02 -0.86937720303E+01 -0.11349232102E+03  0.12326353753E+03  0.00000000000E+00 0.  1.
        -11    1    3    3    0    0 -0.12233839638E+03  0.10521341253E+03 -0.19193373132E+03  0.25074908300E+03  0.00000000000E+00 0. -1.
          2    1    6    6  502    0 -0.43452140715E+02  0.61044802421E+02 -0.73404966066E+02  0.10489444923E+03  0.00000000000E+00 0. -1.
          3    1    5    5  503    0  0.18558619925E+02 -0.15315692181E+02 -0.94941045378E+02  0.97942814428E+02  0.00000000000E+00 0. -1.
         -4    1    5    5    0  503  0.37233503213E+03 -0.36443738197E+03 -0.96634599801E+03  0.10978490649E+04  0.00000000000E+00 0.  1.
         -1    1    6    6    0  502 -0.17779760701E+03  0.22218863122E+03 -0.57393113868E+03  0.64060653201E+03  0.00000000000E+00 0.  1.
<mgrwt>
<rscale>  0 0.11420356E+04</rscale>
<asrwt>0</asrwt>
<pdfrwt beam="1">  1        2 0.33302729E+00 0.11420356E+04</pdfrwt>
<pdfrwt beam="2">  1       -2 0.23173559E-01 0.11420356E+04</pdfrwt>
<totfact> 0.88369422E+01</totfact>
</mgrwt>
</event>
<event>
12    1  0.1442183E-007  0.2720396E+04  0.7818608E-02  0.8328417E-01
         -1   -1    0    0    0  501 -0.00000000000E+00  0.00000000000E+00  0.20187459190E+04  0.20187459190E+04  0.00000000000E+00 0.  1.
          1   -1    0    0  501    0  0.00000000000E+00 -0.00000000000E+00 -0.91647916861E+03  0.91647916861E+03  0.00000000000E+00 0. -1.
         23    2    1    2    0    0  0.10388110679E+04 -0.47891700562E+03  0.64353401282E+02  0.11492687626E+04  0.90484227600E+02 0.  0.
        254    2    1    2    0    0 -0.10388110679E+04  0.47891700562E+03  0.10379133491E+04  0.17859563250E+04  0.89659686676E+03 0.  0.
        -24    2    4    4    0    0 -0.77561155293E+02  0.14098476526E+03 -0.13888636984E+03  0.22732858701E+03  0.80600408785E+02 0.  0.
         24    2    4    4    0    0 -0.96124991258E+03  0.33793224035E+03  0.11767997189E+04  0.15586277380E+04  0.79140720165E+02 0.  0.
         11    1    3    3    0    0  0.95196772318E+03 -0.45159268839E+03  0.80842918755E+02  0.10567469327E+04  0.00000000000E+00 0. -1.
        -11    1    3    3    0    0  0.86843344692E+02 -0.27324317223E+02 -0.16489517473E+02  0.92521829940E+02  0.00000000000E+00 0.  1.
          2    1    6    6  502    0 -0.10086561200E+03  0.20476550328E+02  0.91224211165E+02  0.13753187812E+03  0.00000000000E+00 0. -1.
          1    1    5    5  503    0 -0.80581993654E+02  0.66871754264E+02 -0.68908017574E+02  0.12535391540E+03  0.00000000000E+00 0. -1.
         -2    1    5    5    0  503  0.30208383610E+01  0.74113010999E+02 -0.69978352266E+02  0.10197467161E+03  0.00000000000E+00 0.  1.
         -1    1    6    6    0  502 -0.86038430058E+03  0.31745569002E+03  0.10855755077E+04  0.14210958598E+04  0.00000000000E+00 0.  1.
<mgrwt>
<rscale>  0 0.27203960E+04</rscale>
<asrwt>0</asrwt>
<pdfrwt beam="1">  1        1 0.14099680E+00 0.27203960E+04</pdfrwt>
<pdfrwt beam="2">  1       -1 0.31057629E+00 0.27203960E+04</pdfrwt>
<totfact> 0.43347358E-01</totfact>
</mgrwt>
</event>
<event>
12    1  0.1442183E-007  0.2175959E+04  0.7818608E-02  0.8528501E-01
         -2   -1    0    0    0  501 -0.00000000000E+00  0.00000000000E+00  0.87194178402E+03  0.87194178402E+03  0.00000000000E+00 0.  1.
          2   -1    0    0  501    0  0.00000000000E+00 -0.00000000000E+00 -0.13575446247E+04  0.13575446247E+04  0.00000000000E+00 0. -1.
         23    2    1    2    0    0 -0.56504355659E+03  0.49703762021E+03  0.30504792602E+03  0.81709555190E+03  0.90941118375E+02 0.  0.
        254    2    1    2    0    0  0.56504355659E+03 -0.49703762021E+03 -0.79065076671E+03  0.14123908568E+04  0.89632509771E+03 0.  0.
        -24    2    4    4    0    0  0.11337901417E+03 -0.34199861816E+03 -0.84816115176E+03  0.92496809776E+03  0.79817208835E+02 0.  0.
         24    2    4    4    0    0  0.45166454241E+03 -0.15503900205E+03  0.57510385058E+02  0.48742275906E+03  0.78965502781E+02 0.  0.
         11    1    3    3    0    0 -0.51949440749E+03  0.47979665325E+03  0.29987958369E+03  0.76811915261E+03  0.00000000000E+00 0.  1.
        -11    1    3    3    0    0 -0.45549149093E+02  0.17240966962E+02  0.51683423327E+01  0.48976399289E+02  0.00000000000E+00 0. -1.
          4    1    6    6  502    0  0.17898750109E+03 -0.10145989657E+03  0.34055293457E+02  0.20854351865E+03  0.00000000000E+00 0. -1.
          1    1    5    5  503    0  0.14477647728E+02 -0.19933177079E+02 -0.12192680525E+03  0.12439083435E+03  0.00000000000E+00 0. -1.
         -2    1    5    5    0  503  0.98901366445E+02 -0.32206544108E+03 -0.72623434652E+03  0.80057726341E+03  0.00000000000E+00 0.  1.
         -3    1    6    6    0  502  0.27267704132E+03 -0.53579105479E+02  0.23455091601E+02  0.27887924041E+03  0.00000000000E+00 0.  1.
<mgrwt>
<rscale>  0 0.21759594E+04</rscale>
<asrwt>0</asrwt>
<pdfrwt beam="1">  1        2 0.20885302E+00 0.21759594E+04</pdfrwt>
<pdfrwt beam="2">  1       -2 0.13414489E+00 0.21759594E+04</pdfrwt>
<totfact> 0.56223549E+00</totfact>
</mgrwt>
</event>
<event>
12    1  0.1442183E-007  0.2266489E+04  0.7818608E-02  0.8491252E-01
         -1   -1    0    0    0  501 -0.00000000000E+00  0.00000000000E+00  0.17900251152E+04  0.17900251152E+04  0.00000000000E+00 0.  1.
          1   -1    0    0  501    0  0.00000000000E+00 -0.00000000000E+00 -0.71744439624E+03  0.71744439624E+03  0.00000000000E+00 0. -1.
         23    2    1    2    0    0  0.29943595920E+03 -0.73644259799E+02 -0.54037279420E+03  0.63039277809E+03  0.10152303821E+03 0.  0.
        254    2    1    2    0    0 -0.29943595920E+03  0.73644259799E+02  0.16129535131E+04  0.18770767333E+04  0.90923740384E+03 0.  0.
        -24    2    4    4    0    0 -0.18365966555E+03 -0.14091443881E+03  0.99150167704E+00  0.24476563593E+03  0.79507745807E+02 0.  0.
         24    2    4    4    0    0 -0.11577629366E+03  0.21455869861E+03  0.16119620115E+04  0.16323110974E+04  0.81107379019E+02 0.  0.
         13    1    3    3    0    0  0.24731184907E+03 -0.65376930975E+02 -0.50720004075E+03  0.56805736958E+03  0.00000000000E+00 0. -1.
        -13    1    3    3    0    0  0.52124110132E+02 -0.82673288246E+01 -0.33172753457E+02  0.62335408516E+02  0.00000000000E+00 0.  1.
          2    1    6    6  502    0 -0.11402119215E+03  0.22061867630E+03  0.15219466920E+04  0.15420749547E+04  0.00000000000E+00 0. -1.
          3    1    5    5  503    0 -0.12135753998E+03 -0.44216145715E+02 -0.78170638618E+01  0.12939793870E+03  0.00000000000E+00 0. -1.
         -4    1    5    5    0  503 -0.62302125562E+02 -0.96698293094E+02  0.88085655389E+01  0.11536769723E+03  0.00000000000E+00 0.  1.
         -1    1    6    6    0  502 -0.17551015056E+01 -0.60599776914E+01  0.90015319422E+02  0.90236142657E+02  0.00000000000E+00 0.  1.
<mgrwt>
<rscale>  0 0.22664893E+04</rscale>
<asrwt>0</asrwt>
<pdfrwt beam="1">  1        1 0.11037606E+00 0.22664893E+04</pdfrwt>
<pdfrwt beam="2">  1       -1 0.27538848E+00 0.22664893E+04</pdfrwt>
<totfact> 0.11339928E+00</totfact>
</mgrwt>
</event>
<event>
12    1  0.1442183E-007  0.2013428E+04  0.7818608E-02  0.8600368E-01
          1   -1    0    0  501    0  0.00000000000E+00  0.00000000000E+00  0.16533194441E+04  0.16533194441E+04  0.00000000000E+00 0. -1.
         -1   -1    0    0    0  501 -0.00000000000E+00 -0.00000000000E+00 -0.61299284499E+03  0.61299284499E+03  0.00000000000E+00 0.  1.
         23    2    1    2    0    0  0.15114420882E+03 -0.79826801261E+03  0.46229650037E+03  0.93942273211E+03  0.93384278868E+02 0.  0.
        254    2    1    2    0    0 -0.15114420882E+03  0.79826801261E+03  0.57803009870E+03  0.13268895569E+04  0.87546599560E+03 0.  0.
        -24    2    4    4    0    0 -0.31550747451E+03  0.80735345320E+03  0.69182165789E+03  0.11119307539E+04  0.80051422076E+02 0.  0.
         24    2    4    4    0    0  0.16436326569E+03 -0.90854405881E+01 -0.11379155920E+03  0.21495880307E+03  0.78491653910E+02 0.  0.
         11    1    3    3    0    0  0.74880297547E+02 -0.45237283938E+03  0.20866303620E+03  0.50377426239E+03  0.00000000000E+00 0. -1.
        -11    1    3    3    0    0  0.76263911272E+02 -0.34589517323E+03  0.25363346416E+03  0.43564846972E+03  0.00000000000E+00 0.  1.
          4    1    6    6  502    0  0.16669476266E+03  0.41627914065E+01 -0.95193826674E+02  0.19200608680E+03  0.00000000000E+00 0. -1.
          3    1    5    5  503    0 -0.15964285134E+03  0.45656155685E+03  0.33982412457E+03  0.59111312861E+03  0.00000000000E+00 0. -1.
         -4    1    5    5    0  503 -0.15586462316E+03  0.35079189635E+03  0.35199753332E+03  0.52081762525E+03  0.00000000000E+00 0.  1.
         -3    1    6    6    0  502 -0.23314969731E+01 -0.13248231995E+02 -0.18597732524E+02  0.22952716270E+02  0.00000000000E+00 0.  1.
<mgrwt>
<rscale>  0 0.20134279E+04</rscale>
<asrwt>0</asrwt>
<pdfrwt beam="1">  1        1 0.25435683E+00 0.20134279E+04</pdfrwt>
<pdfrwt beam="2">  1       -1 0.94306592E-01 0.20134279E+04</pdfrwt>
<totfact> 0.51731204E+00</totfact>
</mgrwt>
</event>
<event>
12    1  0.1442183E-007  0.1456701E+04  0.7818608E-02  0.8913768E-01
          2   -1    0    0  501    0  0.00000000000E+00  0.00000000000E+00  0.24080495962E+04  0.24080495962E+04  0.00000000000E+00 0. -1.
         -2   -1    0    0    0  501 -0.00000000000E+00 -0.00000000000E+00 -0.22030037910E+03  0.22030037910E+03  0.00000000000E+00 0.  1.
         23    2    1    2    0    0  0.18040291079E+03  0.30520098778E+03  0.10944526983E+04  0.11540674248E+04  0.91389600807E+02 0.  0.
        254    2    1    2    0    0 -0.18040291079E+03 -0.30520098778E+03  0.10932965189E+04  0.14742825505E+04  0.92331950450E+03 0.  0.
        -24    2    4    4    0    0 -0.12582512581E+03  0.57773912643E+02 -0.12301647403E+03  0.20131458882E+03  0.78896917075E+02 0.  0.
         24    2    4    4    0    0 -0.54577784981E+02 -0.36297490042E+03  0.12163129929E+04  0.12729679617E+04  0.79376456418E+02 0.  0.
         13    1    3    3    0    0  0.64722144523E+01 -0.57787585693E+01  0.15018221310E+02  0.17344468335E+02  0.00000000000E+00 0.  1.
        -13    1    3    3    0    0  0.17393069634E+03  0.31097974635E+03  0.10794344770E+04  0.11367229565E+04  0.00000000000E+00 0. -1.
          2    1    6    6  502    0 -0.53057074567E+02 -0.36576255064E+03  0.11802366704E+04  0.12367521558E+04  0.00000000000E+00 0. -1.
          1    1    5    5  503    0 -0.51266966227E+02 -0.20104409861E+01 -0.83279525802E+02  0.97815249920E+02  0.00000000000E+00 0. -1.
         -2    1    5    5    0  503 -0.74558159580E+02  0.59784353629E+02 -0.39736948225E+02  0.10349933890E+03  0.00000000000E+00 0.  1.
         -1    1    6    6    0  502 -0.15207104137E+01  0.27876502244E+01  0.36076322482E+02  0.36215805911E+02  0.00000000000E+00 0.  1.
<mgrwt>
<rscale>  0 0.14567007E+04</rscale>
<asrwt>0</asrwt>
<pdfrwt beam="1">  1        2 0.37046915E+00 0.14567007E+04</pdfrwt>
<pdfrwt beam="2">  1       -2 0.33892368E-01 0.14567007E+04</pdfrwt>
<totfact> 0.31136644E+01</totfact>
</mgrwt>
</event>
<event>
12    1  0.1442183E-007  0.2372039E+04  0.7818608E-02  0.8450047E-01
          1   -1    0    0  501    0  0.00000000000E+00  0.00000000000E+00  0.26228794780E+04  0.26228794780E+04  0.00000000000E+00 0. -1.
         -1   -1    0    0    0  501 -0.00000000000E+00 -0.00000000000E+00 -0.53629678403E+03  0.53629678403E+03  0.00000000000E+00 0.  1.
         23    2    1    2    0    0  0.37094616204E+03 -0.73776242274E+03  0.12536988335E+03  0.84013813044E+03  0.90664342685E+02 0.  0.
        254    2    1    2    0    0 -0.37094616204E+03  0.73776242274E+03  0.19612128107E+04  0.23190381316E+04  0.92178507241E+03 0.  0.
        -24    2    4    4    0    0 -0.41682933073E+03 -0.42922823144E+02  0.48134614892E+03  0.64328584034E+03  0.80830053806E+02 0.  0.
         24    2    4    4    0    0  0.45883168687E+02  0.78068524589E+03  0.14798666617E+04  0.16757522913E+04  0.81028926546E+02 0.  0.
         11    1    3    3    0    0  0.31210648190E+03 -0.60360331199E+03  0.13696140690E+03  0.69318528639E+03  0.00000000000E+00 0.  1.
        -11    1    3    3    0    0  0.58839680140E+02 -0.13415911076E+03 -0.11591523557E+02  0.14695284406E+03  0.00000000000E+00 0. -1.
          2    1    6    6  502    0  0.13501710368E+02  0.28122654506E+03  0.61764329311E+03  0.67878855571E+03  0.00000000000E+00 0. -1.
          3    1    5    5  503    0 -0.50186522894E+02  0.16810372417E+02  0.39564299417E+02  0.66080326038E+02  0.00000000000E+00 0. -1.
         -4    1    5    5    0  503 -0.36664280783E+03 -0.59733195561E+02  0.44178184950E+03  0.57720551430E+03  0.00000000000E+00 0.  1.
         -1    1    6    6    0  502  0.32381458319E+02  0.49945870083E+03  0.86222336863E+03  0.99696373559E+03  0.00000000000E+00 0.  1.
<mgrwt>
<rscale>  0 0.23720386E+04</rscale>
<asrwt>0</asrwt>
<pdfrwt beam="1">  1        1 0.40351991E+00 0.23720386E+04</pdfrwt>
<pdfrwt beam="2">  1       -1 0.82507199E-01 0.23720386E+04</pdfrwt>
<totfact> 0.14583456E+00</totfact>
</mgrwt>
</event>
<event>
12    1  0.1442183E-007  0.1451785E+04  0.7818608E-02  0.8917164E-01
          1   -1    0    0  501    0  0.00000000000E+00  0.00000000000E+00  0.79517496366E+03  0.79517496366E+03  0.00000000000E+00 0. -1.
         -1   -1    0    0    0  501 -0.00000000000E+00 -0.00000000000E+00 -0.66264658781E+03  0.66264658781E+03  0.00000000000E+00 0.  1.
         23    2    1    2    0    0 -0.30458712068E+03  0.29730864543E+03  0.20148822072E+03  0.48473535337E+03  0.11491351087E+03 0.  0.
        254    2    1    2    0    0  0.30458712068E+03 -0.29730864543E+03 -0.68959844869E+02  0.97308619810E+03  0.87233912213E+03 0.  0.
        -24    2    4    4    0    0 -0.21518832274E+03 -0.11096456825E+03 -0.27809067670E+03  0.37731306510E+03  0.80072310944E+02 0.  0.
         24    2    4    4    0    0  0.51977544342E+03 -0.18634407718E+03  0.20913083183E+03  0.59577313300E+03  0.79493990271E+02 0.  0.
         13    1    3    3    0    0 -0.19891527866E+03  0.25833945120E+03  0.12810900439E+03  0.35031197116E+03  0.00000000000E+00 0.  1.
        -13    1    3    3    0    0 -0.10567184202E+03  0.38969194232E+02  0.73379216331E+02  0.13442338221E+03  0.00000000000E+00 0. -1.
          2    1    6    6  502    0  0.44046617010E+03 -0.13492539879E+03  0.19484824718E+03  0.50018111687E+03  0.00000000000E+00 0. -1.
          1    1    5    5  503    0 -0.19252575440E+03 -0.79124900232E+02 -0.19380212191E+03  0.28440495495E+03  0.00000000000E+00 0. -1.
         -2    1    5    5    0  503 -0.22662568339E+02 -0.31839668015E+02 -0.84288554792E+02  0.92908110152E+02  0.00000000000E+00 0.  1.
         -1    1    6    6    0  502  0.79309273319E+02 -0.51418678396E+02  0.14282584647E+02  0.95592016124E+02  0.00000000000E+00 0.  1.
<mgrwt>
<rscale>  0 0.14517851E+04</rscale>
<asrwt>0</asrwt>
<pdfrwt beam="1">  1        1 0.12233461E+00 0.14517851E+04</pdfrwt>
<pdfrwt beam="2">  1       -1 0.10194563E+00 0.14517851E+04</pdfrwt>
<totfact> 0.19774635E+01</totfact>
</mgrwt>
</event>
<event>
12    1  0.1442183E-007  0.1203216E+04  0.7818608E-02  0.9110046E-01
          2   -1    0    0  501    0  0.00000000000E+00  0.00000000000E+00  0.12855470558E+04  0.12855470558E+04  0.00000000000E+00 0. -1.
         -2   -1    0    0    0  501 -0.00000000000E+00 -0.00000000000E+00 -0.28153942600E+03  0.28153942600E+03  0.00000000000E+00 0.  1.
         23    2    1    2    0    0 -0.21360294004E+03  0.13142743036E+03  0.12241160233E+03  0.29356073066E+03  0.91070943530E+02 0.  0.
        254    2    1    2    0    0  0.21360294004E+03 -0.13142743036E+03  0.88159602746E+03  0.12735257511E+04  0.88417017463E+03 0.  0.
        -24    2    4    4    0    0  0.20928233224E+03 -0.49229263040E+03  0.59747894989E+03  0.80682995360E+03  0.88557043369E+02 0.  0.
         24    2    4    4    0    0  0.43206077922E+01  0.36086520004E+03  0.28411707757E+03  0.46669579753E+03  0.82704857251E+02 0.  0.
         11    1    3    3    0    0 -0.19461053931E+03  0.77708009119E+02  0.90540529953E+02  0.22827479987E+03  0.00000000000E+00 0.  1.
        -11    1    3    3    0    0 -0.18992400722E+02  0.53719421242E+02  0.31871072377E+02  0.65285930783E+02  0.00000000000E+00 0. -1.
          4    1    6    6  502    0  0.70846757159E+01  0.60512226721E+02  0.13501993234E+02  0.62403734135E+02  0.00000000000E+00 0. -1.
          3    1    5    5  503    0  0.17362999517E+03 -0.42901386311E+03  0.55514075035E+03  0.72275965760E+03  0.00000000000E+00 0. -1.
         -4    1    5    5    0  503  0.35652337078E+02 -0.63278767288E+02  0.42338199545E+02  0.84070295998E+02  0.00000000000E+00 0.  1.
         -3    1    6    6    0  502 -0.27640679236E+01  0.30035297332E+03  0.27061508434E+03  0.40429206339E+03  0.00000000000E+00 0.  1.
<mgrwt>
<rscale>  0 0.12032160E+04</rscale>
<asrwt>0</asrwt>
<pdfrwt beam="1">  1        2 0.19777647E+00 0.12032160E+04</pdfrwt>
<pdfrwt beam="2">  1       -2 0.43313759E-01 0.12032160E+04</pdfrwt>
<totfact> 0.84002504E+01</totfact>
</mgrwt>
</event>
<event>
12    1  0.1442183E-007  0.1640706E+04  0.7818608E-02  0.8795924E-01
         -1   -1    0    0    0  501 -0.00000000000E+00  0.00000000000E+00  0.24884054388E+03  0.24884054388E+03  0.00000000000E+00 0.  1.
          1   -1    0    0  501    0  0.00000000000E+00 -0.00000000000E+00 -0.27044573983E+04  0.27044573983E+04  0.00000000000E+00 0. -1.
         23    2    1    2    0    0 -0.85881909435E+02 -0.48750329586E+03 -0.35780408120E+03  0.61762801800E+03  0.91681199019E+02 0.  0.
        254    2    1    2    0    0  0.85881909435E+02  0.48750329586E+03 -0.20978127732E+04  0.23356699242E+04  0.89972240017E+03 0.  0.
        -24    2    4    4    0    0  0.22507531996E+03  0.38500941197E+03 -0.33543993756E+03  0.56303437113E+03  0.74810456442E+02 0.  0.
         24    2    4    4    0    0 -0.13919341053E+03  0.10249388389E+03 -0.17623728356E+04  0.17726355530E+04  0.79993689215E+02 0.  0.
         11    1    3    3    0    0  0.70582615411E+00  0.38750694445E+01 -0.57873021525E+01  0.70005156928E+01  0.00000000000E+00 0. -1.
        -11    1    3    3    0    0 -0.86587735589E+02 -0.49137836531E+03 -0.35201677905E+03  0.61062750231E+03  0.00000000000E+00 0.  1.
          2    1    6    6  502    0 -0.78050120760E+02  0.93586900215E+02 -0.13722009265E+04  0.13776014343E+04  0.00000000000E+00 0. -1.
          1    1    5    5  503    0  0.19923751342E+02  0.15571652723E+02 -0.31989010368E+01  0.25488530831E+02  0.00000000000E+00 0. -1.
         -2    1    5    5    0  503  0.20515156862E+03  0.36943775925E+03 -0.33224103653E+03  0.53754584030E+03  0.00000000000E+00 0.  1.
         -1    1    6    6    0  502 -0.61143289766E+02  0.89069836755E+01 -0.39017190914E+03  0.39503411869E+03  0.00000000000E+00 0.  1.
<mgrwt>
<rscale>  0 0.16407055E+04</rscale>
<asrwt>0</asrwt>
<pdfrwt beam="1">  1        1 0.41607036E+00 0.16407055E+04</pdfrwt>
<pdfrwt beam="2">  1       -1 0.38283161E-01 0.16407055E+04</pdfrwt>
<totfact> 0.61655733E+00</totfact>
</mgrwt>
</event>
<event>
12    1  0.1705942E-007  0.1415181E+04  0.7818608E-02  0.8942903E-01
         -2   -1    0    0    0  501 -0.00000000000E+00  0.00000000000E+00  0.31693471451E+03  0.31693471451E+03  0.00000000000E+00 0.  1.
          2   -1    0    0  501    0  0.00000000000E+00 -0.00000000000E+00 -0.15797703091E+04  0.15797703091E+04  0.00000000000E+00 0. -1.
         23    2    1    2    0    0 -0.23640655148E+03  0.33595458425E+03 -0.35176417793E+03  0.54839605834E+03  0.90811120871E+02 0.  0.
        254    2    1    2    0    0  0.23640655148E+03 -0.33595458425E+03 -0.91107141666E+03  0.13483089653E+04  0.90505933467E+03 0.  0.
        -24    2    4    4    0    0  0.29392899088E+03 -0.45192612219E+03 -0.14024037805E+03  0.56261202545E+03  0.78952238427E+02 0.  0.
         24    2    4    4    0    0 -0.57522439404E+02  0.11597153794E+03 -0.77083103862E+03  0.78569693981E+03  0.79880926882E+02 0.  0.
         11    1    3    3    0    0 -0.13084244166E+03  0.16494916009E+03 -0.23683549060E+03  0.31688960154E+03  0.00000000000E+00 0.  1.
        -11    1    3    3    0    0 -0.10556410981E+03  0.17100542416E+03 -0.11492868733E+03  0.23150645681E+03  0.00000000000E+00 0. -1.
          4    1    6    6  502    0 -0.14159929903E+01 -0.94150376449E+01 -0.17295202505E+02  0.19742644192E+02  0.00000000000E+00 0. -1.
          1    1    5    5  503    0 -0.31989785185E+01 -0.20521333751E+00  0.16736077515E+01  0.36161497455E+01  0.00000000000E+00 0. -1.
         -2    1    5    5    0  503  0.29712796940E+03 -0.45172090885E+03 -0.14191398580E+03  0.55899587571E+03  0.00000000000E+00 0.  1.
         -3    1    6    6    0  502 -0.56106446414E+02  0.12538657559E+03 -0.75353583611E+03  0.76595429561E+03  0.00000000000E+00 0.  1.
<mgrwt>
<rscale>  0 0.14151806E+04</rscale>
<asrwt>0</asrwt>
<pdfrwt beam="1">  1        2 0.24304159E+00 0.14151806E+04</pdfrwt>
<pdfrwt beam="2">  1       -2 0.48759186E-01 0.14151806E+04</pdfrwt>
<totfact> 0.44319496E+01</totfact>
</mgrwt>
</event>
<event>
12    1  0.1442183E-007  0.2609810E+04  0.7818608E-02  0.8364876E-01
          2   -1    0    0  501    0  0.00000000000E+00  0.00000000000E+00  0.20522444511E+04  0.20522444511E+04  0.00000000000E+00 0. -1.
         -2   -1    0    0    0  501 -0.00000000000E+00 -0.00000000000E+00 -0.82971473388E+03  0.82971473388E+03  0.00000000000E+00 0.  1.
         23    2    1    2    0    0  0.79413808806E+03  0.51594725232E+02 -0.35884903276E+03  0.87777265880E+03  0.91623652235E+02 0.  0.
        254    2    1    2    0    0 -0.79413808806E+03 -0.51594725232E+02  0.15813787500E+04  0.20041865262E+04  0.93951453545E+03 0.  0.
        -24    2    4    4    0    0 -0.98958787630E+03 -0.13069691730E+03  0.13531305200E+04  0.16833768890E+04  0.80185392112E+02 0.  0.
         24    2    4    4    0    0  0.19544978824E+03  0.79102192067E+02  0.22824823005E+03  0.32080963727E+03  0.79773381086E+02 0.  0.
         11    1    3    3    0    0  0.42369966081E+03  0.65435214201E+02 -0.16431541328E+03  0.45913257875E+03  0.00000000000E+00 0.  1.
        -11    1    3    3    0    0  0.37043842724E+03 -0.13840488969E+02 -0.19453361948E+03  0.41864008005E+03  0.00000000000E+00 0. -1.
          4    1    6    6  502    0  0.15985181996E+03  0.80543943948E+02  0.22109828467E+03  0.28447211241E+03  0.00000000000E+00 0. -1.
          1    1    5    5  503    0 -0.68791687387E+03 -0.70510445835E+02  0.88316289794E+03  0.11216853626E+04  0.00000000000E+00 0. -1.
         -2    1    5    5    0  503 -0.30167100242E+03 -0.60186471464E+02  0.46996762202E+03  0.56169152637E+03  0.00000000000E+00 0.  1.
         -3    1    6    6    0  502  0.35597968281E+02 -0.14417518803E+01  0.71499453767E+01  0.36337524862E+02  0.00000000000E+00 0.  1.
<mgrwt>
<rscale>  0 0.26098103E+04</rscale>
<asrwt>0</asrwt>
<pdfrwt beam="1">  1        2 0.31572991E+00 0.26098103E+04</pdfrwt>
<pdfrwt beam="2">  1       -2 0.12764842E+00 0.26098103E+04</pdfrwt>
<totfact> 0.25116759E+00</totfact>
</mgrwt>
</event>
<event>
12    1  0.1442183E-007  0.1859329E+04  0.7818608E-02  0.8675370E-01
          2   -1    0    0  501    0  0.00000000000E+00  0.00000000000E+00  0.21124119368E+04  0.21124119368E+04  0.00000000000E+00 0.  1.
         -2   -1    0    0    0  501 -0.00000000000E+00 -0.00000000000E+00 -0.40914201068E+03  0.40914201068E+03  0.00000000000E+00 0. -1.
         23    2    1    2    0    0 -0.40423886903E+03 -0.59127886746E+03  0.67958242606E+03  0.99235195532E+03  0.99550826589E+02 0.  0.
        254    2    1    2    0    0  0.40423886903E+03  0.59127886746E+03  0.10236875001E+04  0.15292019922E+04  0.88176123340E+03 0.  0.
        -24    2    4    4    0    0  0.11857394955E+03 -0.15804437597E+03  0.56035213004E+03  0.59926749901E+03  0.78033450730E+02 0.  0.
         24    2    4    4    0    0  0.28566491948E+03  0.74932324343E+03  0.46333537003E+03  0.92993449317E+03  0.83718140819E+02 0.  0.
         11    1    3    3    0    0 -0.33040926226E+03 -0.51079656264E+03  0.61702184522E+03  0.86648679532E+03  0.00000000000E+00 0.  1.
        -11    1    3    3    0    0 -0.73829606773E+02 -0.80482304821E+02  0.62560580836E+02  0.12586515999E+03  0.00000000000E+00 0. -1.
          4    1    6    6  502    0  0.23443207368E+03  0.68529159438E+03  0.41585771779E+03  0.83517699199E+03  0.00000000000E+00 0. -1.
          1    1    5    5  503    0  0.84225693116E+02 -0.14041646371E+03  0.51109424988E+03  0.53668247868E+03  0.00000000000E+00 0. -1.
         -2    1    5    5    0  503  0.34348256438E+02 -0.17627912262E+02  0.49257880158E+02  0.62585020322E+02  0.00000000000E+00 0.  1.
         -3    1    6    6    0  502  0.51232845793E+02  0.64031649049E+02  0.47477652241E+02  0.94757501182E+02  0.00000000000E+00 0.  1.
<mgrwt>
<rscale>  0 0.18593294E+04</rscale>
<asrwt>0</asrwt>
<pdfrwt beam="1">  1        2 0.32498645E+00 0.18593294E+04</pdfrwt>
<pdfrwt beam="2">  1       -2 0.62944926E-01 0.18593294E+04</pdfrwt>
<totfact> 0.12709165E+01</totfact>
</mgrwt>
</event>
<event>
12    1  0.1442183E-007  0.2095818E+04  0.7818608E-02  0.8563088E-01
          1   -1    0    0  501    0  0.00000000000E+00  0.00000000000E+00  0.16597022684E+04  0.16597022684E+04  0.00000000000E+00 0. -1.
         -1   -1    0    0    0  501 -0.00000000000E+00 -0.00000000000E+00 -0.66163281642E+03  0.66163281642E+03  0.00000000000E+00 0.  1.
         23    2    1    2    0    0 -0.26407860199E+02  0.37823400918E+03  0.12429869023E+04  0.13026766529E+04  0.90507911071E+02 0.  0.
        254    2    1    2    0    0  0.26407860199E+02 -0.37823400918E+03 -0.24491745035E+03  0.10186584319E+04  0.91319335444E+03 0.  0.
        -24    2    4    4    0    0 -0.19713793188E+03 -0.57384046908E+03  0.20596709031E+02  0.61241584284E+03  0.80453042220E+02 0.  0.
         24    2    4    4    0    0  0.22354579207E+03  0.19560645989E+03 -0.26551415938E+03  0.40624258905E+03  0.79376722168E+02 0.  0.
         13    1    3    3    0    0 -0.97714774623E+01  0.41130550242E+01  0.84556359415E+02  0.85218407114E+02  0.00000000000E+00 0.  1.
        -13    1    3    3    0    0 -0.16636382737E+02  0.37412095416E+03  0.11584305429E+04  0.12174582458E+04  0.00000000000E+00 0. -1.
          4    1    6    6  502    0  0.90186629650E+02  0.61906425300E+02 -0.51746976589E+02  0.12101150047E+03  0.00000000000E+00 0. -1.
          3    1    5    5  503    0 -0.16568810181E+03 -0.54365695920E+03  0.22428217985E+02  0.56878683294E+03  0.00000000000E+00 0. -1.
         -4    1    5    5    0  503 -0.31449830061E+02 -0.30183509880E+02 -0.18315089534E+01  0.43629009897E+02  0.00000000000E+00 0.  1.
         -3    1    6    6    0  502  0.13335916243E+03  0.13370003459E+03 -0.21376718279E+03  0.28523108858E+03  0.00000000000E+00 0.  1.
<mgrwt>
<rscale>  0 0.20958182E+04</rscale>
<asrwt>0</asrwt>
<pdfrwt beam="1">  1        1 0.25533881E+00 0.20958182E+04</pdfrwt>
<pdfrwt beam="2">  1       -1 0.10178966E+00 0.20958182E+04</pdfrwt>
<totfact> 0.42743520E+00</totfact>
</mgrwt>
</event>
<event>
12    1  0.1442183E-007  0.1135477E+04  0.7818608E-02  0.9171288E-01
         -1   -1    0    0    0  501 -0.00000000000E+00  0.00000000000E+00  0.61727960680E+03  0.61727960680E+03  0.00000000000E+00 0.  1.
          1   -1    0    0  501    0  0.00000000000E+00 -0.00000000000E+00 -0.52217303103E+03  0.52217303103E+03  0.00000000000E+00 0. -1.
         23    2    1    2    0    0  0.14183209358E+03 -0.10669205658E+03 -0.60340782831E+02  0.21056645596E+03  0.95904559819E+02 0.  0.
        254    2    1    2    0    0 -0.14183209358E+03  0.10669205658E+03  0.15544735860E+03  0.92888618187E+03  0.89842424270E+03 0.  0.
        -24    2    4    4    0    0 -0.18565579289E+03  0.39500477568E+03  0.35380233801E+03  0.56749937752E+03  0.79891193849E+02 0.  0.
         24    2    4    4    0    0  0.43823699307E+02 -0.28831271911E+03 -0.19835497940E+03  0.36138680436E+03  0.78809795635E+02 0.  0.
         11    1    3    3    0    0  0.43080941842E+00 -0.63254473348E+01 -0.34707009347E+02  0.35281346042E+02  0.00000000000E+00 0.  1.
        -11    1    3    3    0    0  0.14140128417E+03 -0.10036660924E+03 -0.25633773484E+02  0.17528510991E+03  0.00000000000E+00 0. -1.
          2    1    6    6  502    0  0.61031083182E+02 -0.20233561561E+03 -0.11594357330E+03  0.24105477936E+03  0.00000000000E+00 0. -1.
          1    1    5    5  503    0 -0.18594257096E+03  0.34693951153E+03  0.29708573066E+03  0.49315473810E+03  0.00000000000E+00 0. -1.
         -2    1    5    5    0  503  0.28677806833E+00  0.48065264158E+02  0.56716607349E+02  0.74344639413E+02  0.00000000000E+00 0.  1.
         -1    1    6    6    0  502 -0.17207383875E+02 -0.85977103494E+02 -0.82411406100E+02  0.12033202500E+03  0.00000000000E+00 0.  1.
<mgrwt>
<rscale>  0 0.11354766E+04</rscale>
<asrwt>0</asrwt>
<pdfrwt beam="1">  1        1 0.80334312E-01 0.11354766E+04</pdfrwt>
<pdfrwt beam="2">  1       -1 0.94966094E-01 0.11354766E+04</pdfrwt>
<totfact> 0.44480677E+01</totfact>
</mgrwt>
</event>
<event>
12    1  0.1442183E-007  0.3537106E+04  0.7818608E-02  0.8105052E-01
         -2   -1    0    0    0  501 -0.00000000000E+00  0.00000000000E+00  0.19637923982E+04  0.19637923982E+04  0.00000000000E+00 0.  1.
          2   -1    0    0  501    0  0.00000000000E+00 -0.00000000000E+00 -0.15927238562E+04  0.15927238562E+04  0.00000000000E+00 0. -1.
         23    2    1    2    0    0  0.14392290773E+04  0.52907701197E+03 -0.45038705436E+03  0.16007832711E+04  0.91409848914E+02 0.  0.
        254    2    1    2    0    0 -0.14392290773E+04 -0.52907701197E+03  0.82145559632E+03  0.19557329833E+04  0.89375577411E+03 0.  0.
        -24    2    4    4    0    0 -0.65512045209E+03 -0.91506000079E+02  0.81632548106E+03  0.10542349772E+04  0.86417251181E+02 0.  0.
         24    2    4    4    0    0 -0.78410862526E+03 -0.43757101189E+03  0.51301152668E+01  0.90149800617E+03  0.79859942287E+02 0.  0.
         13    1    3    3    0    0  0.61385079807E+03  0.26263003811E+03 -0.16557529437E+03  0.68789717060E+03  0.00000000000E+00 0. -1.
        -13    1    3    3    0    0  0.82537827927E+03  0.26644697386E+03 -0.28481176000E+03  0.91288610046E+03  0.00000000000E+00 0.  1.
          4    1    6    6  502    0 -0.51297835289E+03 -0.24999038199E+03  0.25076553261E+02  0.57120120373E+03  0.00000000000E+00 0. -1.
          1    1    5    5  503    0 -0.43680420195E+03 -0.61743437262E+02  0.60655101831E+03  0.75000953374E+03  0.00000000000E+00 0. -1.
         -2    1    5    5    0  503 -0.21831625013E+03 -0.29762562817E+02  0.20977446275E+03  0.30422544345E+03  0.00000000000E+00 0.  1.
         -3    1    6    6    0  502 -0.27113027237E+03 -0.18758062990E+03 -0.19946437994E+02  0.33029680243E+03  0.00000000000E+00 0.  1.
<mgrwt>
<rscale>  0 0.35371056E+04</rscale>
<asrwt>0</asrwt>
<pdfrwt beam="1">  1        2 0.24503444E+00 0.35371056E+04</pdfrwt>
<pdfrwt beam="2">  1       -2 0.30212191E+00 0.35371056E+04</pdfrwt>
<totfact> 0.28444253E-01</totfact>
</mgrwt>
</event>
<event>
12    1  0.1442183E-007  0.1311436E+04  0.7818608E-02  0.9020545E-01
          2   -1    0    0  501    0  0.00000000000E+00  0.00000000000E+00  0.17829232285E+04  0.17829232285E+04  0.00000000000E+00 0. -1.
         -2   -1    0    0    0  501 -0.00000000000E+00 -0.00000000000E+00 -0.24115785442E+03  0.24115785442E+03  0.00000000000E+00 0.  1.
         23    2    1    2    0    0  0.18282732192E+03  0.74815561080E+02  0.66692243771E+03  0.70192887117E+03  0.94315451762E+02 0.  0.
        254    2    1    2    0    0 -0.18282732192E+03 -0.74815561080E+02  0.87484293634E+03  0.13221522117E+04  0.97144897440E+03 0.  0.
        -24    2    4    4    0    0  0.37114344632E+03 -0.33176501955E+02  0.16011978433E+03  0.41371930940E+03  0.81714035586E+02 0.  0.
         24    2    4    4    0    0 -0.55397076824E+03 -0.41639059125E+02  0.71472315201E+03  0.90843290232E+03  0.76182220256E+02 0.  0.
         11    1    3    3    0    0  0.17647802310E+03  0.64804798214E+02  0.49342441052E+03  0.52802632833E+03  0.00000000000E+00 0. -1.
        -11    1    3    3    0    0  0.63492988189E+01  0.10010762866E+02  0.17349802719E+03  0.17390254284E+03  0.00000000000E+00 0.  1.
          2    1    6    6  502    0 -0.82857797608E+02 -0.28382989339E+02  0.86746812859E+02  0.12327213087E+03  0.00000000000E+00 0. -1.
          1    1    5    5  503    0  0.31799384039E+02  0.13701736211E+02  0.34408586762E+02  0.48814846547E+02  0.00000000000E+00 0. -1.
         -4    1    5    5    0  503  0.33934406228E+03 -0.46878238166E+02  0.12571119757E+03  0.36490446286E+03  0.00000000000E+00 0.  1.
         -1    1    6    6    0  502 -0.47111297063E+03 -0.13256069786E+02  0.62797633915E+03  0.78516077144E+03  0.00000000000E+00 0.  1.
<mgrwt>
<rscale>  0 0.13114358E+04</rscale>
<asrwt>0</asrwt>
<pdfrwt beam="1">  1        2 0.27429587E+00 0.13114358E+04</pdfrwt>
<pdfrwt beam="2">  1       -2 0.37101210E-01 0.13114358E+04</pdfrwt>
<totfact> 0.59147976E+01</totfact>
</mgrwt>
</event>
<event>
12    1  0.1442183E-007  0.1759124E+04  0.7818608E-02  0.8728344E-01
          2   -1    0    0  501    0  0.00000000000E+00  0.00000000000E+00  0.28464270154E+04  0.28464270154E+04  0.00000000000E+00 0. -1.
         -2   -1    0    0    0  501 -0.00000000000E+00 -0.00000000000E+00 -0.27178972689E+03  0.27178972689E+03  0.00000000000E+00 0.  1.
         23    2    1    2    0    0 -0.27494155429E+03 -0.56477173370E+03  0.11757863241E+04  0.13356931735E+04  0.83921417144E+02 0.  0.
        254    2    1    2    0    0  0.27494155429E+03  0.56477173370E+03  0.13988509644E+04  0.17825235688E+04  0.90887088375E+03 0.  0.
        -24    2    4    4    0    0  0.34268732648E+03  0.23783721502E+03  0.13744360055E+04  0.14385953431E+04  0.80505176906E+02 0.  0.
         24    2    4    4    0    0 -0.67745772188E+02  0.32693451867E+03  0.24414958932E+02  0.34392822570E+03  0.78834415488E+02 0.  0.
         11    1    3    3    0    0 -0.82113397168E+01 -0.74234480620E+02  0.11984650223E+03  0.14121390976E+03  0.00000000000E+00 0.  1.
        -11    1    3    3    0    0 -0.26673021458E+03 -0.49053725308E+03  0.10559398219E+04  0.11944792637E+04  0.00000000000E+00 0. -1.
          2    1    6    6  502    0 -0.76542379547E+02  0.20821302057E+03 -0.26124082274E+01  0.22185180296E+03  0.00000000000E+00 0. -1.
          3    1    5    5  503    0  0.31642355304E+03  0.18729501761E+03  0.12036816127E+04  0.12585915594E+04  0.00000000000E+00 0. -1.
         -4    1    5    5    0  503  0.26263773445E+02  0.50542197413E+02  0.17075439276E+03  0.18000378374E+03  0.00000000000E+00 0.  1.
         -1    1    6    6    0  502  0.87966073593E+01  0.11872149811E+03  0.27027367159E+02  0.12207642274E+03  0.00000000000E+00 0.  1.
<mgrwt>
<rscale>  0 0.17591244E+04</rscale>
<asrwt>0</asrwt>
<pdfrwt beam="1">  1        2 0.43791183E+00 0.17591244E+04</pdfrwt>
<pdfrwt beam="2">  1       -2 0.41813806E-01 0.17591244E+04</pdfrwt>
<totfact> 0.11159065E+01</totfact>
</mgrwt>
</event>
<event>
12    1  0.1442183E-007  0.1419418E+04  0.7818608E-02  0.8939882E-01
         -2   -1    0    0    0  501 -0.00000000000E+00  0.00000000000E+00  0.32557730032E+03  0.32557730032E+03  0.00000000000E+00 0.  1.
          2   -1    0    0  501    0  0.00000000000E+00 -0.00000000000E+00 -0.15470574945E+04  0.15470574945E+04  0.00000000000E+00 0. -1.
         23    2    1    2    0    0  0.14690190397E+03  0.38194893560E+03 -0.49136799738E+03  0.64590999917E+03  0.91060745581E+02 0.  0.
        254    2    1    2    0    0 -0.14690190397E+03 -0.38194893560E+03 -0.73011219679E+03  0.12267247956E+04  0.89684153871E+03 0.  0.
        -24    2    4    4    0    0  0.12118418876E+03 -0.17827562482E+03 -0.83430069790E+03  0.86540078784E+03  0.79956632376E+02 0.  0.
         24    2    4    4    0    0 -0.26808609273E+03 -0.20367331077E+03  0.10418850111E+03  0.36132400781E+03  0.79666958155E+02 0.  0.
         13    1    3    3    0    0  0.15267302822E+03  0.30134120265E+03 -0.40983244503E+03  0.53111035290E+03  0.00000000000E+00 0. -1.
        -13    1    3    3    0    0 -0.57711242536E+01  0.80607732951E+02 -0.81535552345E+02  0.11479964627E+03  0.00000000000E+00 0.  1.
          4    1    6    6  502    0 -0.12518038984E+03 -0.75808221522E+02  0.74241371670E+01  0.14653373081E+03  0.00000000000E+00 0. -1.
          1    1    5    5  503    0  0.13053775867E+02 -0.14416739036E+01 -0.13503127206E+02  0.18836505312E+02  0.00000000000E+00 0. -1.
         -2    1    5    5    0  503  0.10813041289E+03 -0.17683395092E+03 -0.82079757069E+03  0.84656428252E+03  0.00000000000E+00 0.  1.
         -3    1    6    6    0  502 -0.14290570288E+03 -0.12786508925E+03  0.96764363941E+02  0.21479027700E+03  0.00000000000E+00 0.  1.
<mgrwt>
<rscale>  0 0.14194179E+04</rscale>
<asrwt>0</asrwt>
<pdfrwt beam="1">  1        2 0.23800885E+00 0.14194179E+04</pdfrwt>
<pdfrwt beam="2">  1       -2 0.50088815E-01 0.14194179E+04</pdfrwt>
<totfact> 0.43753640E+01</totfact>
</mgrwt>
</event>
<event>
12    1  0.1442183E-007  0.1641288E+04  0.7818608E-02  0.8795577E-01
          1   -1    0    0  501    0  0.00000000000E+00  0.00000000000E+00  0.10390491420E+04  0.10390491420E+04  0.00000000000E+00 0. -1.
         -1   -1    0    0    0  501 -0.00000000000E+00 -0.00000000000E+00 -0.64814669333E+03  0.64814669333E+03  0.00000000000E+00 0.  1.
         23    2    1    2    0    0  0.45419251831E+03  0.32452053358E+03  0.56603598855E+02  0.56846655722E+03  0.91355562902E+02 0.  0.
        254    2    1    2    0    0 -0.45419251831E+03 -0.32452053358E+03  0.33429884978E+03  0.11187292781E+04  0.91005222722E+03 0.  0.
        -24    2    4    4    0    0 -0.50646812209E+03 -0.58407895930E+03  0.16755579943E+03  0.79601846365E+03  0.88950880578E+02 0.  0.
         24    2    4    4    0    0  0.52275603783E+02  0.25955842572E+03  0.16674305034E+03  0.32271081443E+03  0.78966510608E+02 0.  0.
         13    1    3    3    0    0  0.21408644063E+03  0.14618385890E+03 -0.19121391273E+02  0.25993913186E+03  0.00000000000E+00 0.  1.
        -13    1    3    3    0    0  0.24010607768E+03  0.17833667468E+03  0.75724990128E+02  0.30852742536E+03  0.00000000000E+00 0. -1.
          2    1    6    6  502    0  0.20628928646E+02  0.22662425452E+03  0.15567256435E+03  0.27571371516E+03  0.00000000000E+00 0. -1.
          1    1    5    5  503    0 -0.43958189562E+03 -0.49844207226E+03  0.11193457055E+03  0.67394813631E+03  0.00000000000E+00 0. -1.
         -2    1    5    5    0  503 -0.66886226475E+02 -0.85636887045E+02  0.55621228886E+02  0.12207032734E+03  0.00000000000E+00 0.  1.
         -1    1    6    6    0  502  0.31646675137E+02  0.32934171196E+02  0.11070485996E+02  0.46997099270E+02  0.00000000000E+00 0.  1.
<mgrwt>
<rscale>  0 0.16412876E+04</rscale>
<asrwt>0</asrwt>
<pdfrwt beam="1">  1        1 0.15985371E+00 0.16412876E+04</pdfrwt>
<pdfrwt beam="2">  1       -1 0.99714876E-01 0.16412876E+04</pdfrwt>
<totfact> 0.12947798E+01</totfact>
</mgrwt>
</event>
<event>
12    1  0.1442183E-007  0.1211700E+04  0.7818608E-02  0.9102676E-01
         -2   -1    0    0    0  501 -0.00000000000E+00  0.00000000000E+00  0.12767248823E+04  0.12767248823E+04  0.00000000000E+00 0. -1.
          2   -1    0    0  501    0  0.00000000000E+00 -0.00000000000E+00 -0.28749689385E+03  0.28749689385E+03  0.00000000000E+00 0.  1.
         23    2    1    2    0    0  0.17700326296E+03  0.13578834025E+03  0.63542881069E+02  0.24951392464E+03  0.91928626693E+02 0.  0.
        254    2    1    2    0    0 -0.17700326296E+03 -0.13578834025E+03  0.92568510735E+03  0.13147078515E+04  0.90652919884E+03 0.  0.
        -24    2    4    4    0    0 -0.39168091890E+01 -0.43074010695E+03  0.84844174108E+03  0.95522617441E+03  0.83971871101E+02 0.  0.
         24    2    4    4    0    0 -0.17308645377E+03  0.29495176670E+03  0.77243366266E+02  0.35948167708E+03  0.79404492086E+02 0.  0.
         13    1    3    3    0    0  0.18355888542E+03  0.10871273254E+03  0.58400852438E+02  0.22118540231E+03  0.00000000000E+00 0. -1.
        -13    1    3    3    0    0 -0.65556224517E+01  0.27075607710E+02  0.51420286318E+01  0.28328522324E+02  0.00000000000E+00 0.  1.
          4    1    6    6  502    0 -0.19940565415E+02  0.77716326630E+02 -0.73088684050E+01  0.80565955163E+02  0.00000000000E+00 0. -1.
          3    1    5    5  503    0  0.10273991476E+02 -0.60333337865E+02  0.19001637283E+03  0.19962937785E+03  0.00000000000E+00 0. -1.
         -4    1    5    5    0  503 -0.14190800665E+02 -0.37040676908E+03  0.65842536825E+03  0.75559679656E+03  0.00000000000E+00 0.  1.
         -3    1    6    6    0  502 -0.15314588836E+03  0.21723544007E+03  0.84552234671E+02  0.27891572191E+03  0.00000000000E+00 0.  1.
<mgrwt>
<rscale>  0 0.12117004E+04</rscale>
<asrwt>0</asrwt>
<pdfrwt beam="1">  1        2 0.44230292E-01 0.12117004E+04</pdfrwt>
<pdfrwt beam="2">  1       -2 0.19641921E+00 0.12117004E+04</pdfrwt>
<totfact> 0.15930953E+01</totfact>
</mgrwt>
</event>
<event>
12    1  0.1442183E-007  0.1112910E+04  0.7818608E-02  0.9192699E-01
         -1   -1    0    0    0  501 -0.00000000000E+00  0.00000000000E+00  0.56554599979E+03  0.56554599979E+03  0.00000000000E+00 0.  1.
          1   -1    0    0  501    0  0.00000000000E+00 -0.00000000000E+00 -0.54751033985E+03  0.54751033985E+03  0.00000000000E+00 0. -1.
         23    2    1    2    0    0  0.71657840171E+02  0.72069164816E+01 -0.14023458591E+03  0.19359976741E+03  0.11237591001E+03 0.  0.
        254    2    1    2    0    0 -0.71657840171E+02 -0.72069164816E+01  0.15827024585E+03  0.91945657223E+03  0.90286440388E+03 0.  0.
        -24    2    4    4    0    0  0.29567048952E+03 -0.29017569175E+03  0.15433052995E+03  0.44886139236E+03  0.77689552816E+02 0.  0.
         24    2    4    4    0    0 -0.36732832969E+03  0.28296877527E+03  0.39397158978E+01  0.47059517988E+03  0.80267505212E+02 0.  0.
         11    1    3    3    0    0  0.65458113590E+01  0.39071141001E+02 -0.10652819458E+03  0.11365587510E+03  0.00000000000E+00 0. -1.
        -11    1    3    3    0    0  0.65112028812E+02 -0.31864224519E+02 -0.33706391335E+02  0.79943892306E+02  0.00000000000E+00 0.  1.
          4    1    6    6  502    0 -0.16156136820E+02  0.18122216731E+02  0.18474128560E+02  0.30507850174E+02  0.00000000000E+00 0. -1.
          1    1    5    5  503    0  0.26957471901E+02 -0.62016781940E+02  0.11884616642E+02  0.68658798753E+02  0.00000000000E+00 0. -1.
         -2    1    5    5    0  503  0.26871301762E+03 -0.22815890981E+03  0.14244591331E+03  0.38020259360E+03  0.00000000000E+00 0.  1.
         -3    1    6    6    0  502 -0.35117219287E+03  0.26484655853E+03 -0.14534412662E+02  0.44008732970E+03  0.00000000000E+00 0.  1.
<mgrwt>
<rscale>  0 0.11129102E+04</rscale>
<asrwt>0</asrwt>
<pdfrwt beam="1">  1        1 0.84232360E-01 0.11129102E+04</pdfrwt>
<pdfrwt beam="2">  1       -1 0.87007077E-01 0.11129102E+04</pdfrwt>
<totfact> 0.50607764E+01</totfact>
</mgrwt>
</event>
<event>
12    1  0.1442183E-007  0.1399754E+04  0.7818608E-02  0.8953997E-01
         -1   -1    0    0    0  501 -0.00000000000E+00  0.00000000000E+00  0.73964127011E+03  0.73964127011E+03  0.00000000000E+00 0.  1.
          1   -1    0    0  501    0  0.00000000000E+00 -0.00000000000E+00 -0.66225010180E+03  0.66225010180E+03  0.00000000000E+00 0. -1.
         23    2    1    2    0    0  0.29244285029E+02  0.23790350210E+03  0.34741901802E+03  0.43158323682E+03  0.90060044980E+02 0.  0.
        254    2    1    2    0    0 -0.29244285029E+02 -0.23790350210E+03 -0.27002784971E+03  0.97030813509E+03  0.90062729966E+03 0.  0.
        -24    2    4    4    0    0 -0.39573302453E+02 -0.36079207785E+03 -0.54412273926E+03  0.65995534334E+03  0.87946177457E+02 0.  0.
         24    2    4    4    0    0  0.10329017424E+02  0.12288857575E+03  0.27409488954E+03  0.31035279175E+03  0.77346985859E+02 0.  0.
         13    1    3    3    0    0 -0.11901551413E+02  0.17629006844E+03  0.20195934360E+03  0.26834196769E+03  0.00000000000E+00 0. -1.
        -13    1    3    3    0    0  0.41145836442E+02  0.61613433658E+02  0.14545967442E+03  0.16324126913E+03  0.00000000000E+00 0.  1.
          4    1    6    6  502    0 -0.48401329357E+00 -0.28521200830E+00 -0.50330058494E+01  0.50642632868E+01  0.00000000000E+00 0. -1.
          3    1    5    5  503    0  0.50992527583E+01  0.30197060453E+01 -0.16286637373E+02  0.17331346174E+02  0.00000000000E+00 0. -1.
         -4    1    5    5    0  503 -0.44672555211E+02 -0.36381178389E+03 -0.52783610188E+03  0.64262399717E+03  0.00000000000E+00 0.  1.
         -3    1    6    6    0  502  0.10813030718E+02  0.12317378776E+03  0.27912789539E+03  0.30528852846E+03  0.00000000000E+00 0.  1.
<mgrwt>
<rscale>  0 0.13997536E+04</rscale>
<asrwt>0</asrwt>
<pdfrwt beam="1">  1        1 0.10188463E+00 0.13997536E+04</pdfrwt>
<pdfrwt beam="2">  1       -1 0.11379097E+00 0.13997536E+04</pdfrwt>
<totfact> 0.20342410E+01</totfact>
</mgrwt>
</event>
<event>
12    1  0.1442183E-007  0.1827202E+04  0.7818608E-02  0.8691966E-01
          1   -1    0    0  501    0  0.00000000000E+00  0.00000000000E+00  0.14715929585E+04  0.14715929585E+04  0.00000000000E+00 0. -1.
         -1   -1    0    0    0  501 -0.00000000000E+00 -0.00000000000E+00 -0.56718585957E+03  0.56718585957E+03  0.00000000000E+00 0.  1.
         23    2    1    2    0    0 -0.14605459631E+03 -0.28705350451E+03 -0.32869244162E+03  0.46964142943E+03  0.93769352697E+02 0.  0.
        254    2    1    2    0    0  0.14605459631E+03  0.28705350451E+03  0.12330995405E+04  0.15691373886E+04  0.91538298433E+03 0.  0.
        -24    2    4    4    0    0  0.40815697195E+03  0.16724635730E+03  0.19680953032E+03  0.48987842579E+03  0.81752205123E+02 0.  0.
         24    2    4    4    0    0 -0.26210237564E+03  0.11980714721E+03  0.10362900102E+04  0.10792589629E+04  0.88608779360E+02 0.  0.
         11    1    3    3    0    0 -0.83098267712E+02 -0.11042906146E+03 -0.85339618016E+02  0.16242767657E+03  0.00000000000E+00 0. -1.
        -11    1    3    3    0    0 -0.62956328599E+02 -0.17662444305E+03 -0.24335282360E+03  0.30721375286E+03  0.00000000000E+00 0.  1.
          2    1    6    6  502    0 -0.11600290928E+03  0.94548161699E+02  0.43757448965E+03  0.46245806711E+03  0.00000000000E+00 0. -1.
          1    1    5    5  503    0  0.22352680277E+02 -0.83352017177E+01  0.39266466632E+01  0.24177188779E+02  0.00000000000E+00 0. -1.
         -4    1    5    5    0  503  0.38580429168E+03  0.17558155902E+03  0.19288288366E+03  0.46570123701E+03  0.00000000000E+00 0.  1.
         -1    1    6    6    0  502 -0.14609946636E+03  0.25258985512E+02  0.59871552057E+03  0.61680089574E+03  0.00000000000E+00 0.  1.
<mgrwt>
<rscale>  0 0.18272019E+04</rscale>
<asrwt>0</asrwt>
<pdfrwt beam="1">  1        1 0.22639891E+00 0.18272019E+04</pdfrwt>
<pdfrwt beam="2">  1       -1 0.87259364E-01 0.18272019E+04</pdfrwt>
<totfact> 0.83328417E+00</totfact>
</mgrwt>
</event>
<event>
12    1  0.1442183E-007  0.1795701E+04  0.7818608E-02  0.8708589E-01
          2   -1    0    0  501    0  0.00000000000E+00  0.00000000000E+00  0.15534537749E+04  0.15534537749E+04  0.00000000000E+00 0. -1.
         -2   -1    0    0    0  501 -0.00000000000E+00 -0.00000000000E+00 -0.51893092417E+03  0.51893092417E+03  0.00000000000E+00 0.  1.
         23    2    1    2    0    0  0.37535618590E+03  0.40521038178E+03  0.82552434301E+03  0.99757515605E+03  0.92617661738E+02 0.  0.
        254    2    1    2    0    0 -0.37535618590E+03 -0.40521038178E+03  0.20899850775E+03  0.10748095431E+04  0.89802419667E+03 0.  0.
        -24    2    4    4    0    0  0.75995978459E+02 -0.55160872731E+03  0.39917739143E+02  0.56420554671E+03  0.81773444627E+02 0.  0.
         24    2    4    4    0    0 -0.45135216436E+03  0.14639834553E+03  0.16908076861E+03  0.51060399635E+03  0.83527737467E+02 0.  0.
         11    1    3    3    0    0  0.61262106089E+02  0.56094351521E+02  0.73225557372E+02  0.11073212798E+03  0.00000000000E+00 0.  1.
        -11    1    3    3    0    0  0.31409407981E+03  0.34911603026E+03  0.75229878564E+03  0.88684302807E+03  0.00000000000E+00 0. -1.
          2    1    6    6  502    0 -0.16299448171E+03  0.61639702751E+02  0.20914637422E+02  0.17551090018E+03  0.00000000000E+00 0. -1.
          1    1    5    5  503    0 -0.14337032277E+01 -0.20282170063E+03  0.40982353347E+02  0.20692571381E+03  0.00000000000E+00 0. -1.
         -2    1    5    5    0  503  0.77429681687E+02 -0.34878702669E+03 -0.10646142045E+01  0.35727983290E+03  0.00000000000E+00 0.  1.
         -1    1    6    6    0  502 -0.28835768266E+03  0.84758642780E+02  0.14816613119E+03  0.33509309617E+03  0.00000000000E+00 0.  1.
<mgrwt>
<rscale>  0 0.17957006E+04</rscale>
<asrwt>0</asrwt>
<pdfrwt beam="1">  1        2 0.23899289E+00 0.17957006E+04</pdfrwt>
<pdfrwt beam="2">  1       -2 0.79835527E-01 0.17957006E+04</pdfrwt>
<totfact> 0.15531563E+01</totfact>
</mgrwt>
</event>
<event>
12    1  0.1442183E-007  0.4551331E+04  0.7818608E-02  0.7901711E-01
          2   -1    0    0  501    0  0.00000000000E+00  0.00000000000E+00  0.27212871333E+04  0.27212871333E+04  0.00000000000E+00 0. -1.
         -2   -1    0    0    0  501 -0.00000000000E+00 -0.00000000000E+00 -0.19030164621E+04  0.19030164621E+04  0.00000000000E+00 0.  1.
         23    2    1    2    0    0  0.14741185443E+04  0.10407180095E+04 -0.86017059840E+03  0.20011606685E+04  0.92903740299E+02 0.  0.
        254    2    1    2    0    0 -0.14741185443E+04 -0.10407180095E+04  0.16784412696E+04  0.26231429268E+04  0.89866248459E+03 0.  0.
        -24    2    4    4    0    0 -0.10283444349E+04 -0.20980414287E+03  0.10577254390E+04  0.14920420676E+04  0.76787837509E+02 0.  0.
         24    2    4    4    0    0 -0.44577410932E+03 -0.83091386668E+03  0.62071583060E+03  0.11311008592E+04  0.70488304039E+02 0.  0.
         11    1    3    3    0    0  0.13367754182E+04  0.91176389118E+03 -0.75816206177E+03  0.17869223889E+04  0.00000000000E+00 0.  1.
        -11    1    3    3    0    0  0.13734312606E+03  0.12895411836E+03 -0.10200853663E+03  0.21423827964E+03  0.00000000000E+00 0. -1.
          2    1    6    6  502    0 -0.10573503920E+03 -0.14061849976E+03  0.10824616952E+03  0.20656886069E+03  0.00000000000E+00 0. -1.
          1    1    5    5  503    0 -0.50152479326E+03 -0.73962181663E+02  0.47272412847E+03  0.69315627690E+03  0.00000000000E+00 0. -1.
         -2    1    5    5    0  503 -0.52681964169E+03 -0.13584196120E+03  0.58500131050E+03  0.79888579070E+03  0.00000000000E+00 0.  1.
         -1    1    6    6    0  502 -0.34003907012E+03 -0.69029536691E+03  0.51246966107E+03  0.92453199853E+03  0.00000000000E+00 0.  1.
<mgrwt>
<rscale>  0 0.45513313E+04</rscale>
<asrwt>0</asrwt>
<pdfrwt beam="1">  1        2 0.41865956E+00 0.45513313E+04</pdfrwt>
<pdfrwt beam="2">  1       -2 0.29277176E+00 0.45513313E+04</pdfrwt>
<totfact> 0.68470573E-02</totfact>
</mgrwt>
</event>
<event>
12    1  0.1442183E-007  0.1917626E+04  0.7818608E-02  0.8646132E-01
          1   -1    0    0  501    0  0.00000000000E+00  0.00000000000E+00  0.11679469002E+04  0.11679469002E+04  0.00000000000E+00 0. -1.
         -1   -1    0    0    0  501 -0.00000000000E+00 -0.00000000000E+00 -0.78712725390E+03  0.78712725390E+03  0.00000000000E+00 0.  1.
         23    2    1    2    0    0  0.30156117145E+03 -0.67799604391E+03  0.20750319017E+03  0.77569432740E+03  0.89589842850E+02 0.  0.
        254    2    1    2    0    0 -0.30156117145E+03  0.67799604391E+03  0.17331645616E+03  0.11793798267E+04  0.90015576764E+03 0.  0.
        -24    2    4    4    0    0 -0.47627074309E+03  0.60770546202E+02  0.21283131739E+03  0.53121730936E+03  0.79798371483E+02 0.  0.
         24    2    4    4    0    0  0.17470957163E+03  0.61722549771E+03 -0.39514861231E+02  0.64816251736E+03  0.84038534134E+02 0.  0.
         11    1    3    3    0    0  0.35957963697E+02 -0.11062486777E+03  0.18398731679E+01  0.11633667374E+03  0.00000000000E+00 0.  1.
        -11    1    3    3    0    0  0.26560320776E+03 -0.56737117614E+03  0.20566331700E+03  0.65935765366E+03  0.00000000000E+00 0. -1.
          2    1    6    6  502    0  0.33726381475E+00  0.48942061217E+00 -0.63654172613E+01  0.63931069385E+01  0.00000000000E+00 0. -1.
          1    1    5    5  503    0 -0.24151333276E+03  0.51466008401E+02  0.71657287979E+02  0.25712294111E+03  0.00000000000E+00 0. -1.
         -2    1    5    5    0  503 -0.23475741032E+03  0.93045378010E+01  0.14117402941E+03  0.27409436825E+03  0.00000000000E+00 0.  1.
         -1    1    6    6    0  502  0.17437230782E+03  0.61673607709E+03 -0.33149443970E+02  0.64176941043E+03  0.00000000000E+00 0.  1.
<mgrwt>
<rscale>  0 0.19176265E+04</rscale>
<asrwt>0</asrwt>
<pdfrwt beam="1">  1        1 0.17968414E+00 0.19176265E+04</pdfrwt>
<pdfrwt beam="2">  1       -1 0.12109650E+00 0.19176265E+04</pdfrwt>
<totfact> 0.63812461E+00</totfact>
</mgrwt>
</event>
<event>
12    1  0.1442183E-007  0.1083720E+04  0.7818608E-02  0.9221206E-01
          2   -1    0    0  501    0  0.00000000000E+00  0.00000000000E+00  0.55560719938E+03  0.55560719938E+03  0.00000000000E+00 0. -1.
         -2   -1    0    0    0  501 -0.00000000000E+00 -0.00000000000E+00 -0.52845297489E+03  0.52845297489E+03  0.00000000000E+00 0.  1.
         23    2    1    2    0    0  0.59927745735E+02 -0.12028656048E+03  0.95793087943E+01  0.16150889536E+03  0.89068337704E+02 0.  0.
        254    2    1    2    0    0 -0.59927745735E+02  0.12028656048E+03  0.17574915690E+02  0.92255127891E+03  0.91254139261E+03 0.  0.
        -24    2    4    4    0    0  0.56839764760E+02  0.91785481225E+02 -0.43087510351E+03  0.45137346564E+03  0.80183023346E+02 0.  0.
         24    2    4    4    0    0 -0.11676751050E+03  0.28501079256E+02  0.44845001920E+03  0.47117781328E+03  0.80337718267E+02 0.  0.
         11    1    3    3    0    0  0.44304811612E+01 -0.87999435573E+02 -0.20717551205E+02  0.90513793161E+02  0.00000000000E+00 0.  1.
        -11    1    3    3    0    0  0.55497264574E+02 -0.32287124907E+02  0.30296859999E+02  0.70995102196E+02  0.00000000000E+00 0. -1.
          4    1    6    6  502    0 -0.11719733979E+03  0.26758144503E+02  0.45172288910E+03  0.46744495215E+03  0.00000000000E+00 0. -1.
          1    1    5    5  503    0  0.25314036300E+02  0.87902907662E+02 -0.38403327541E+03  0.39477750472E+03  0.00000000000E+00 0. -1.
         -2    1    5    5    0  503  0.31525728460E+02  0.38825735627E+01 -0.46841828102E+02  0.56595960919E+02  0.00000000000E+00 0.  1.
         -3    1    6    6    0  502  0.42982929512E+00  0.17429347525E+01 -0.32728699031E+01  0.37328611248E+01  0.00000000000E+00 0.  1.
<mgrwt>
<rscale>  0 0.10837200E+04</rscale>
<asrwt>0</asrwt>
<pdfrwt beam="1">  1        2 0.85478030E-01 0.10837200E+04</pdfrwt>
<pdfrwt beam="2">  1       -2 0.81300458E-01 0.10837200E+04</pdfrwt>
<totfact> 0.72097655E+01</totfact>
</mgrwt>
</event>
<event>
12    1  0.1442183E-007  0.2976991E+04  0.7818608E-02  0.8250332E-01
          2   -1    0    0  501    0  0.00000000000E+00  0.00000000000E+00  0.42264897188E+04  0.42264897188E+04  0.00000000000E+00 0. -1.
         -2   -1    0    0    0  501 -0.00000000000E+00 -0.00000000000E+00 -0.52422208323E+03  0.52422208323E+03  0.00000000000E+00 0.  1.
         23    2    1    2    0    0 -0.54315171329E+03 -0.41337029001E+03 -0.17912824210E+03  0.71163909721E+03  0.91948340075E+02 0.  0.
        254    2    1    2    0    0  0.54315171329E+03  0.41337029001E+03  0.38813958777E+04  0.40390727049E+04  0.88486472152E+03 0.  0.
        -24    2    4    4    0    0  0.13668484581E+03 -0.26467294806E+03  0.14056991070E+04  0.14389147100E+04  0.75835655560E+02 0.  0.
         24    2    4    4    0    0  0.40646686747E+03  0.67804323807E+03  0.24756967707E+04  0.26001579949E+04  0.82396303595E+02 0.  0.
         11    1    3    3    0    0 -0.60429043564E+02 -0.15114882495E+02 -0.25118384310E+02  0.67164441554E+02  0.00000000000E+00 0. -1.
        -11    1    3    3    0    0 -0.48272266972E+03 -0.39825540752E+03 -0.15400985779E+03  0.64447465565E+03  0.00000000000E+00 0.  1.
          2    1    6    6  502    0  0.11575945660E+03  0.26158684362E+03  0.83386951771E+03  0.88157036084E+03  0.00000000000E+00 0. -1.
          3    1    5    5  503    0  0.56022788016E+02 -0.71755385593E+02  0.29584827945E+03  0.30953770787E+03  0.00000000000E+00 0. -1.
         -4    1    5    5    0  503  0.80662057798E+02 -0.19291756247E+03  0.11098508275E+04  0.11293770021E+04  0.00000000000E+00 0.  1.
         -1    1    6    6    0  502  0.29070741088E+03  0.41645639445E+03  0.16418272530E+04  0.17185876341E+04  0.00000000000E+00 0.  1.
<mgrwt>
<rscale>  0 0.29769913E+04</rscale>
<asrwt>0</asrwt>
<pdfrwt beam="1">  1        2 0.65022916E+00 0.29769913E+04</pdfrwt>
<pdfrwt beam="2">  1       -2 0.80649554E-01 0.29769913E+04</pdfrwt>
<totfact> 0.25655177E-01</totfact>
</mgrwt>
</event>
<event>
12    1  0.1442183E-007  0.1484902E+04  0.7818608E-02  0.8894556E-01
         -2   -1    0    0    0  501 -0.00000000000E+00  0.00000000000E+00  0.32212036573E+03  0.32212036573E+03  0.00000000000E+00 0.  1.
          2   -1    0    0  501    0  0.00000000000E+00 -0.00000000000E+00 -0.17112647416E+04  0.17112647416E+04  0.00000000000E+00 0. -1.
         23    2    1    2    0    0  0.32910644867E+03 -0.74060437388E+02 -0.87531338173E+03  0.94241206018E+03  0.90393428890E+02 0.  0.
        254    2    1    2    0    0 -0.32910644867E+03  0.74060437388E+02 -0.51383099410E+03  0.10909730471E+04  0.90133450842E+03 0.  0.
        -24    2    4    4    0    0  0.56756913506E+02 -0.35159893197E+03 -0.10010016146E+03  0.37843045065E+03  0.79664342486E+02 0.  0.
         24    2    4    4    0    0 -0.38586336217E+03  0.42565936936E+03 -0.41373083264E+03  0.71254259645E+03  0.80419629972E+02 0.  0.
         13    1    3    3    0    0  0.12068109760E+03 -0.78772578852E+01 -0.21310137489E+03  0.24502688524E+03  0.00000000000E+00 0.  1.
        -13    1    3    3    0    0  0.20842535106E+03 -0.66183179503E+02 -0.66221200684E+03  0.69738517493E+03  0.00000000000E+00 0. -1.
          2    1    6    6  502    0 -0.10204162490E+03  0.16362505671E+03 -0.11826761030E+03  0.22621423483E+03  0.00000000000E+00 0. -1.
          3    1    5    5  503    0  0.57750476899E+02 -0.17093431361E+03 -0.22578166092E+02  0.18183352478E+03  0.00000000000E+00 0. -1.
         -4    1    5    5    0  503 -0.99356339339E+00 -0.18066461837E+03 -0.77521995363E+02  0.19659692587E+03  0.00000000000E+00 0.  1.
         -1    1    6    6    0  502 -0.28382173727E+03  0.26203431265E+03 -0.29546322235E+03  0.48632836162E+03  0.00000000000E+00 0.  1.
<mgrwt>
<rscale>  0 0.14849016E+04</rscale>
<asrwt>0</asrwt>
<pdfrwt beam="1">  1        2 0.26327150E+00 0.14849016E+04</pdfrwt>
<pdfrwt beam="2">  1       -2 0.49556978E-01 0.14849016E+04</pdfrwt>
<totfact> 0.36027608E+01</totfact>
</mgrwt>
</event>
<event>
12    1  0.1442183E-007  0.1831115E+04  0.7818608E-02  0.8689926E-01
          2   -1    0    0  501    0  0.00000000000E+00  0.00000000000E+00  0.10775025202E+04  0.10775025202E+04  0.00000000000E+00 0.  1.
         -2   -1    0    0    0  501 -0.00000000000E+00 -0.00000000000E+00 -0.77795216773E+03  0.77795216773E+03  0.00000000000E+00 0. -1.
         23    2    1    2    0    0 -0.26478233050E+03 -0.45564748303E+03  0.57121200339E+03  0.78309898471E+03  0.96107001323E+02 0.  0.
        254    2    1    2    0    0  0.26478233050E+03  0.45564748303E+03 -0.27166165088E+03  0.10723557033E+04  0.89354484522E+03 0.  0.
        -24    2    4    4    0    0  0.55933980691E+03  0.24398278160E+03 -0.32749690085E+03  0.69708560393E+03  0.79281156804E+02 0.  0.
         24    2    4    4    0    0 -0.29455747641E+03  0.21166470143E+03  0.55835249966E+02  0.37527009933E+03  0.78383796616E+02 0.  0.
         13    1    3    3    0    0 -0.59748831778E+02 -0.18257327865E+03  0.17296392463E+03  0.25849457286E+03  0.00000000000E+00 0. -1.
        -13    1    3    3    0    0 -0.20503349873E+03 -0.27307420438E+03  0.39824807876E+03  0.52460441185E+03  0.00000000000E+00 0.  1.
          2    1    6    6  502    0 -0.29953445086E+03  0.20604271854E+03  0.55333849149E+02  0.36774491700E+03  0.00000000000E+00 0. -1.
          3    1    5    5  503    0  0.33163250189E+03  0.17787272068E+03 -0.22756024435E+03  0.43977549486E+03  0.00000000000E+00 0. -1.
         -4    1    5    5    0  503  0.22770730503E+03  0.66110060920E+02 -0.99936656494E+02  0.25731010907E+03  0.00000000000E+00 0.  1.
         -1    1    6    6    0  502  0.49769744525E+01  0.56219828972E+01  0.50140081659E+00  0.75251823351E+01  0.00000000000E+00 0.  1.
<mgrwt>
<rscale>  0 0.18311149E+04</rscale>
<asrwt>0</asrwt>
<pdfrwt beam="1">  1        2 0.16576962E+00 0.18311149E+04</pdfrwt>
<pdfrwt beam="2">  1       -2 0.11968495E+00 0.18311149E+04</pdfrwt>
<totfact> 0.11325312E+01</totfact>
</mgrwt>
</event>
<event>
12    1  0.1442183E-007  0.1863500E+04  0.7818608E-02  0.8673241E-01
         -1   -1    0    0    0  501 -0.00000000000E+00  0.00000000000E+00  0.79711458699E+03  0.79711458699E+03  0.00000000000E+00 0.  1.
          1   -1    0    0  501    0  0.00000000000E+00 -0.00000000000E+00 -0.10891255757E+04  0.10891255757E+04  0.00000000000E+00 0. -1.
         23    2    1    2    0    0 -0.10432297527E+03 -0.48826326288E+02 -0.82184837426E+03  0.83423680630E+03  0.85141091091E+02 0.  0.
        254    2    1    2    0    0  0.10432297527E+03  0.48826326288E+02  0.52983738560E+03  0.10520033563E+04  0.90150768897E+03 0.  0.
        -24    2    4    4    0    0 -0.37169036542E+02  0.11118021251E+03  0.75460128153E+03  0.76780730252E+03  0.79764545875E+02 0.  0.
         24    2    4    4    0    0  0.14149201181E+03 -0.62353886225E+02 -0.22476389593E+03  0.28419605383E+03  0.79627831603E+02 0.  0.
         11    1    3    3    0    0 -0.12018586382E+02  0.21464891336E+02 -0.21449111746E+03  0.21589726133E+03  0.00000000000E+00 0.  1.
        -11    1    3    3    0    0 -0.92304388885E+02 -0.70291217623E+02 -0.60735725680E+03  0.61833954497E+03  0.00000000000E+00 0. -1.
          4    1    6    6  502    0  0.14462842797E+03 -0.53122290262E+02 -0.22684887432E+03  0.27422576771E+03  0.00000000000E+00 0. -1.
          3    1    5    5  503    0 -0.49299498603E+02  0.10036252068E+03  0.72869753403E+03  0.73722667629E+03  0.00000000000E+00 0. -1.
         -4    1    5    5    0  503  0.12130462061E+02  0.10817691828E+02  0.25903747496E+02  0.30580626230E+02  0.00000000000E+00 0.  1.
         -3    1    6    6    0  502 -0.31364161599E+01 -0.92315959627E+01  0.20849783875E+01  0.99702861154E+01  0.00000000000E+00 0.  1.
<mgrwt>
<rscale>  0 0.18634998E+04</rscale>
<asrwt>0</asrwt>
<pdfrwt beam="1">  1        1 0.16755778E+00 0.18634998E+04</pdfrwt>
<pdfrwt beam="2">  1       -1 0.12263301E+00 0.18634998E+04</pdfrwt>
<totfact> 0.71172829E+00</totfact>
</mgrwt>
</event>
<event>
12    1  0.1442183E-007  0.1945844E+04  0.7818608E-02  0.8632367E-01
          1   -1    0    0  501    0  0.00000000000E+00  0.00000000000E+00  0.13322614954E+04  0.13322614954E+04  0.00000000000E+00 0.  1.
         -1   -1    0    0    0  501 -0.00000000000E+00 -0.00000000000E+00 -0.71050411825E+03  0.71050411825E+03  0.00000000000E+00 0. -1.
         23    2    1    2    0    0  0.50141622509E+03 -0.57414635083E+03  0.24889985176E+03  0.80688876045E+03  0.89755627032E+02 0.  0.
        254    2    1    2    0    0 -0.50141622509E+03  0.57414635083E+03  0.37285752542E+03  0.12358768532E+04  0.89850242019E+03 0.  0.
        -24    2    4    4    0    0  0.25327845680E+03  0.12266782267E+03  0.13005640518E+03  0.32008585467E+03  0.79642416045E+02 0.  0.
         24    2    4    4    0    0 -0.75469468189E+03  0.45147852816E+03  0.24280112024E+03  0.91579099855E+03  0.79522605437E+02 0.  0.
         11    1    3    3    0    0  0.35054307105E+03 -0.35276089307E+03  0.13162286786E+03  0.51443684908E+03  0.00000000000E+00 0. -1.
        -11    1    3    3    0    0  0.15087315404E+03 -0.22138545775E+03  0.11727698390E+03  0.29245191138E+03  0.00000000000E+00 0.  1.
          2    1    6    6  502    0 -0.24002298742E+03  0.10136435778E+03  0.71141813180E+02  0.27008688435E+03  0.00000000000E+00 0. -1.
          3    1    5    5  503    0  0.12713629917E+03  0.93198715697E+02  0.10134179094E+03  0.18740276883E+03  0.00000000000E+00 0. -1.
         -4    1    5    5    0  503  0.12614215763E+03  0.29469106975E+02  0.28714614242E+02  0.13268308584E+03  0.00000000000E+00 0.  1.
         -1    1    6    6    0  502 -0.51467169447E+03  0.35011417038E+03  0.17165930706E+03  0.64570411419E+03  0.00000000000E+00 0.  1.
<mgrwt>
<rscale>  0 0.19458441E+04</rscale>
<asrwt>0</asrwt>
<pdfrwt beam="1">  1        1 0.20496331E+00 0.19458441E+04</pdfrwt>
<pdfrwt beam="2">  1       -1 0.10930833E+00 0.19458441E+04</pdfrwt>
<totfact> 0.61936548E+00</totfact>
</mgrwt>
</event>
<event>
12    1  0.1442183E-007  0.1645472E+04  0.7818608E-02  0.8793090E-01
         -1   -1    0    0    0  501 -0.00000000000E+00  0.00000000000E+00  0.55358780547E+03  0.55358780547E+03  0.00000000000E+00 0.  1.
          1   -1    0    0  501    0  0.00000000000E+00 -0.00000000000E+00 -0.12227405240E+04  0.12227405240E+04  0.00000000000E+00 0. -1.
         23    2    1    2    0    0  0.31762069156E+03 -0.31029550227E+03 -0.59001575842E+03  0.74397812842E+03  0.90656814128E+02 0.  0.
        254    2    1    2    0    0 -0.31762069156E+03  0.31029550227E+03 -0.79136960148E+02  0.10323502011E+04  0.92861083172E+03 0.  0.
        -24    2    4    4    0    0 -0.40854097260E+03 -0.21845436610E+03  0.54679973115E+02  0.47389769529E+03  0.83433145547E+02 0.  0.
         24    2    4    4    0    0  0.90920281037E+02  0.52874986836E+03 -0.13381693326E+03  0.55845250580E+03  0.78226011070E+02 0.  0.
         11    1    3    3    0    0  0.24401102583E+03 -0.24935998061E+03 -0.51704222147E+03  0.62374228608E+03  0.00000000000E+00 0. -1.
        -11    1    3    3    0    0  0.73609665733E+02 -0.60935521660E+02 -0.72973536945E+02  0.12023584234E+03  0.00000000000E+00 0.  1.
          2    1    6    6  502    0  0.10278839445E+03  0.40444563021E+03 -0.10445271363E+03  0.43017681389E+03  0.00000000000E+00 0. -1.
          1    1    5    5  503    0 -0.15340479122E+02  0.75956028651E+01  0.49511688370E+00  0.17125087542E+02  0.00000000000E+00 0. -1.
         -2    1    5    5    0  503 -0.39320049348E+03 -0.22604996896E+03  0.54184856231E+02  0.45677260774E+03  0.00000000000E+00 0.  1.
         -1    1    6    6    0  502 -0.11868113409E+02  0.12430423816E+03 -0.29364219634E+02  0.12827569191E+03  0.00000000000E+00 0.  1.
<mgrwt>
<rscale>  0 0.16454717E+04</rscale>
<asrwt>0</asrwt>
<pdfrwt beam="1">  1        1 0.18811393E+00 0.16454717E+04</pdfrwt>
<pdfrwt beam="2">  1       -1 0.85167355E-01 0.16454717E+04</pdfrwt>
<totfact> 0.13404275E+01</totfact>
</mgrwt>
</event>
<event>
12    1  0.1442183E-007  0.1063174E+04  0.7818608E-02  0.9241847E-01
          2   -1    0    0  501    0  0.00000000000E+00  0.00000000000E+00  0.68454612881E+03  0.68454612881E+03  0.00000000000E+00 0. -1.
         -2   -1    0    0    0  501 -0.00000000000E+00 -0.00000000000E+00 -0.41280635674E+03  0.41280635674E+03  0.00000000000E+00 0.  1.
         23    2    1    2    0    0  0.11436269205E+03  0.22592779686E+02  0.23052166598E+02  0.15020615873E+03  0.91876159632E+02 0.  0.
        254    2    1    2    0    0 -0.11436269205E+03 -0.22592779686E+02  0.24868760547E+03  0.94714632682E+03  0.90644987741E+03 0.  0.
        -24    2    4    4    0    0 -0.50366040424E+03  0.36732593633E+02  0.16226362338E+03  0.53611305399E+03  0.77875778937E+02 0.  0.
         24    2    4    4    0    0  0.38929771219E+03 -0.59325373318E+02  0.86423982094E+02  0.41103327283E+03  0.80043975778E+02 0.  0.
         13    1    3    3    0    0  0.27349777060E+02  0.86323791118E+01  0.50353560915E+02  0.57948333636E+02  0.00000000000E+00 0. -1.
        -13    1    3    3    0    0  0.87012914993E+02  0.13960400574E+02 -0.27301394317E+02  0.92257825096E+02  0.00000000000E+00 0.  1.
          4    1    6    6  502    0  0.35070516945E+03 -0.43815815231E+02  0.99956916937E+02  0.36729460490E+03  0.00000000000E+00 0. -1.
          3    1    5    5  503    0 -0.24265922683E+03  0.55489513570E+02  0.68908542813E+02  0.25828467580E+03  0.00000000000E+00 0. -1.
         -4    1    5    5    0  503 -0.26100117741E+03 -0.18756919937E+02  0.93355080567E+02  0.27782837818E+03  0.00000000000E+00 0.  1.
         -3    1    6    6    0  502  0.38592542738E+02 -0.15509558087E+02 -0.13532934843E+02  0.43738667933E+02  0.00000000000E+00 0.  1.
<mgrwt>
<rscale>  0 0.10631745E+04</rscale>
<asrwt>0</asrwt>
<pdfrwt beam="1">  1        2 0.10531479E+00 0.10631745E+04</pdfrwt>
<pdfrwt beam="2">  1       -2 0.63508670E-01 0.10631745E+04</pdfrwt>
<totfact> 0.96280804E+01</totfact>
</mgrwt>
</event>
<event>
12    1  0.1442183E-007  0.1566054E+04  0.7818608E-02  0.8841678E-01
          1   -1    0    0  501    0  0.00000000000E+00  0.00000000000E+00  0.77805166489E+03  0.77805166489E+03  0.00000000000E+00 0. -1.
         -1   -1    0    0    0  501 -0.00000000000E+00 -0.00000000000E+00 -0.78803430562E+03  0.78803430562E+03  0.00000000000E+00 0.  1.
         23    2    1    2    0    0  0.36953136544E+02 -0.50872095770E+03  0.10002639778E+03  0.52774379957E+03  0.91354751562E+02 0.  0.
        254    2    1    2    0    0 -0.36953136544E+02  0.50872095770E+03 -0.11000903851E+03  0.10383421709E+04  0.89771372290E+03 0.  0.
        -24    2    4    4    0    0 -0.45302050472E+03  0.33035147707E+03 -0.11950501976E+03  0.57900117732E+03  0.81247999859E+02 0.  0.
         24    2    4    4    0    0  0.41606736818E+03  0.17836948063E+03  0.94959812418E+01  0.45934099361E+03  0.77306198144E+02 0.  0.
         11    1    3    3    0    0  0.11528949421E+02 -0.36683406077E+03  0.32164980066E+02  0.36842194663E+03  0.00000000000E+00 0.  1.
        -11    1    3    3    0    0  0.25424187123E+02 -0.14188689693E+03  0.67861417717E+02  0.15932185294E+03  0.00000000000E+00 0. -1.
          2    1    6    6  502    0  0.59229389614E+02  0.25044019127E+02 -0.25945684217E+02  0.69343363183E+02  0.00000000000E+00 0. -1.
          3    1    5    5  503    0 -0.23289932725E+03  0.21542271011E+03 -0.83762503998E+02  0.32812375370E+03  0.00000000000E+00 0. -1.
         -4    1    5    5    0  503 -0.22012117747E+03  0.11492876696E+03 -0.35742515759E+02  0.25087742362E+03  0.00000000000E+00 0.  1.
         -1    1    6    6    0  502  0.35683797857E+03  0.15332546150E+03  0.35441665459E+02  0.38999763043E+03  0.00000000000E+00 0.  1.
<mgrwt>
<rscale>  0 0.15660542E+04</rscale>
<asrwt>0</asrwt>
<pdfrwt beam="1">  1        1 0.11970026E+00 0.15660542E+04</pdfrwt>
<pdfrwt beam="2">  1       -1 0.12123605E+00 0.15660542E+04</pdfrwt>
<totfact> 0.13430278E+01</totfact>
</mgrwt>
</event>
<event>
12    1  0.1442183E-007  0.3126848E+04  0.7818608E-02  0.8208408E-01
          2   -1    0    0  501    0  0.00000000000E+00  0.00000000000E+00  0.13820169997E+04  0.13820169997E+04  0.00000000000E+00 0. -1.
         -2   -1    0    0    0  501 -0.00000000000E+00 -0.00000000000E+00 -0.17686433978E+04  0.17686433978E+04  0.00000000000E+00 0.  1.
         23    2    1    2    0    0 -0.33158291675E+03 -0.28880214577E+03 -0.15512487511E+04  0.16147037997E+04  0.86843324607E+02 0.  0.
        254    2    1    2    0    0  0.33158291675E+03  0.28880214577E+03  0.11646223530E+04  0.15359565977E+04  0.89970191454E+03 0.  0.
        -24    2    4    4    0    0 -0.19154134265E+03 -0.19231323782E+03  0.38878096967E+03  0.48053918183E+03  0.78069171311E+02 0.  0.
         24    2    4    4    0    0  0.52312425940E+03  0.48111538359E+03  0.77584138331E+03  0.10554174159E+04  0.82734918113E+02 0.  0.
         13    1    3    3    0    0 -0.17180268606E+03 -0.10116964002E+03 -0.61180315684E+03  0.64347071551E+03  0.00000000000E+00 0.  1.
        -13    1    3    3    0    0 -0.15978023070E+03 -0.18763250575E+03 -0.93944559424E+03  0.97123308421E+03  0.00000000000E+00 0. -1.
          4    1    6    6  502    0  0.10971099530E+03  0.13103712572E+03  0.22828173747E+03  0.28516623655E+03  0.00000000000E+00 0. -1.
          1    1    5    5  503    0 -0.23775558723E+02 -0.70009059378E+02  0.11937110369E+03  0.14041369585E+03  0.00000000000E+00 0. -1.
         -2    1    5    5    0  503 -0.16776578392E+03 -0.12230417844E+03  0.26940986598E+03  0.34012548597E+03  0.00000000000E+00 0.  1.
         -3    1    6    6    0  502  0.41341326410E+03  0.35007825787E+03  0.54755964583E+03  0.77025117937E+03  0.00000000000E+00 0.  1.
<mgrwt>
<rscale>  0 0.31268484E+04</rscale>
<asrwt>0</asrwt>
<pdfrwt beam="1">  1        2 0.21261800E+00 0.31268484E+04</pdfrwt>
<pdfrwt beam="2">  1       -2 0.27209898E+00 0.31268484E+04</pdfrwt>
<totfact> 0.59072048E-01</totfact>
</mgrwt>
</event>
<event>
12    1  0.1474504E-007  0.1635665E+04  0.7818608E-02  0.8798932E-01
         -2   -1    0    0    0  501 -0.00000000000E+00  0.00000000000E+00  0.34941661082E+03  0.34941661082E+03  0.00000000000E+00 0.  1.
          2   -1    0    0  501    0  0.00000000000E+00 -0.00000000000E+00 -0.19141909681E+04  0.19141909681E+04  0.00000000000E+00 0. -1.
         23    2    1    2    0    0 -0.48462600097E+03  0.11653855263E+03 -0.92904682893E+03  0.10583068382E+04  0.91879042392E+02 0.  0.
        254    2    1    2    0    0  0.48462600097E+03 -0.11653855263E+03 -0.63572752837E+03  0.12053007407E+04  0.89451483506E+03 0.  0.
        -24    2    4    4    0    0  0.16313733292E+03 -0.17446309632E+03 -0.79472767131E+03  0.83372655288E+03  0.80353793026E+02 0.  0.
         24    2    4    4    0    0  0.32148866805E+03  0.57924543687E+02  0.15900014295E+03  0.37157418782E+03  0.77949439732E+02 0.  0.
         11    1    3    3    0    0 -0.18090264400E+03  0.19696321614E+02 -0.26196278246E+03  0.31896427870E+03  0.00000000000E+00 0.  1.
        -11    1    3    3    0    0 -0.30372335697E+03  0.96842231019E+02 -0.66708404647E+03  0.73934255953E+03  0.00000000000E+00 0. -1.
          4    1    6    6  502    0  0.29752872109E+03  0.65130168587E+02  0.16420558840E+03  0.34601843014E+03  0.00000000000E+00 0. -1.
          3    1    5    5  503    0  0.13553630407E+03 -0.17811272926E+03 -0.69216087837E+03  0.72744822193E+03  0.00000000000E+00 0. -1.
         -4    1    5    5    0  503  0.27601028846E+02  0.36496329414E+01 -0.10256679295E+03  0.10627833095E+03  0.00000000000E+00 0.  1.
         -3    1    6    6    0  502  0.23959946954E+02 -0.72056249009E+01 -0.52054454541E+01  0.25555757680E+02  0.00000000000E+00 0.  1.
<mgrwt>
<rscale>  0 0.16356651E+04</rscale>
<asrwt>0</asrwt>
<pdfrwt beam="1">  1        2 0.29449092E+00 0.16356651E+04</pdfrwt>
<pdfrwt beam="2">  1       -2 0.53756401E-01 0.16356651E+04</pdfrwt>
<totfact> 0.23250132E+01</totfact>
</mgrwt>
</event>
<event>
12    1  0.1442183E-007  0.3379057E+04  0.7818608E-02  0.8143066E-01
          2   -1    0    0  501    0  0.00000000000E+00  0.00000000000E+00  0.25754016620E+04  0.25754016620E+04  0.00000000000E+00 0. -1.
         -2   -1    0    0    0  501 -0.00000000000E+00 -0.00000000000E+00 -0.11083732863E+04  0.11083732863E+04  0.00000000000E+00 0.  1.
         23    2    1    2    0    0 -0.14220463133E+04  0.66059066228E+03  0.82999255900E+03  0.17764398877E+04  0.90858606714E+02 0.  0.
        254    2    1    2    0    0  0.14220463133E+04 -0.66059066228E+03  0.63703581665E+03  0.19073350606E+04  0.87949795979E+03 0.  0.
        -24    2    4    4    0    0  0.11154560452E+04 -0.12833664561E+03  0.62553225012E+03  0.12877078816E+04  0.78667077134E+02 0.  0.
         24    2    4    4    0    0  0.30659026813E+03 -0.53225401667E+03  0.11503566526E+02  0.61962717897E+03  0.80706741408E+02 0.  0.
         13    1    3    3    0    0 -0.87421901625E+02  0.27775852360E+02  0.69658890223E+02  0.11518006705E+03  0.00000000000E+00 0.  1.
        -13    1    3    3    0    0 -0.13346244117E+04  0.63281480992E+03  0.76033366877E+03  0.16612598207E+04  0.00000000000E+00 0. -1.
          2    1    6    6  502    0  0.16959517556E+03 -0.27350478172E+03 -0.32920464808E+02  0.32349829397E+03  0.00000000000E+00 0. -1.
          3    1    5    5  503    0  0.34897511205E+03 -0.76955090098E+02  0.20062587224E+03  0.40982490814E+03  0.00000000000E+00 0. -1.
         -4    1    5    5    0  503  0.76648093313E+03 -0.51381555507E+02  0.42490637788E+03  0.87788297344E+03  0.00000000000E+00 0.  1.
         -1    1    6    6    0  502  0.13699509256E+03 -0.25874923496E+03  0.44424031335E+02  0.29612888501E+03  0.00000000000E+00 0.  1.
<mgrwt>
<rscale>  0 0.33790569E+04</rscale>
<asrwt>0</asrwt>
<pdfrwt beam="1">  1        2 0.39621564E+00 0.33790569E+04</pdfrwt>
<pdfrwt beam="2">  1       -2 0.17051897E+00 0.33790569E+04</pdfrwt>
<totfact> 0.55161268E-01</totfact>
</mgrwt>
</event>
<event>
12    1  0.1442183E-007  0.3869361E+04  0.7818608E-02  0.8031432E-01
         -2   -1    0    0    0  501 -0.00000000000E+00  0.00000000000E+00  0.18013317833E+04  0.18013317833E+04  0.00000000000E+00 0.  1.
          2   -1    0    0  501    0  0.00000000000E+00 -0.00000000000E+00 -0.20779006785E+04  0.20779006785E+04  0.00000000000E+00 0. -1.
         23    2    1    2    0    0  0.44752754184E+03  0.68826659612E+03 -0.17384950813E+04  0.19247709821E+04  0.91577168114E+02 0.  0.
        254    2    1    2    0    0 -0.44752754184E+03 -0.68826659612E+03  0.14619261861E+04  0.19544614797E+04  0.10043404273E+04 0.  0.
        -24    2    4    4    0    0  0.86310253752E+02 -0.25047522458E+03 -0.58129725448E+02  0.28305310901E+03  0.80948746162E+02 0.  0.
         24    2    4    4    0    0 -0.53383779559E+03 -0.43779137154E+03  0.15200559116E+04  0.16714083707E+04  0.79949297911E+02 0.  0.
         11    1    3    3    0    0  0.34386995141E+03  0.45770212106E+03 -0.12439803325E+04  0.13693884922E+04  0.00000000000E+00 0. -1.
        -11    1    3    3    0    0  0.10365759042E+03  0.23056447506E+03 -0.49451474888E+03  0.55538248989E+03  0.00000000000E+00 0.  1.
          4    1    6    6  502    0 -0.35893938369E+02 -0.49478958509E+02  0.98649666692E+02  0.11605300033E+03  0.00000000000E+00 0. -1.
          1    1    5    5  503    0 -0.56322268626E+01  0.28708627948E+01 -0.56476631509E+01  0.84770237516E+01  0.00000000000E+00 0. -1.
         -2    1    5    5    0  503  0.91942480615E+02 -0.25334608738E+03 -0.52482062297E+02  0.27457608525E+03  0.00000000000E+00 0.  1.
         -3    1    6    6    0  502 -0.49794385722E+03 -0.38831241303E+03  0.14214062449E+04  0.15553553704E+04  0.00000000000E+00 0.  1.
<mgrwt>
<rscale>  0 0.38693609E+04</rscale>
<asrwt>0</asrwt>
<pdfrwt beam="1">  1        2 0.31967702E+00 0.38693609E+04</pdfrwt>
<pdfrwt beam="2">  1       -2 0.27712797E+00 0.38693609E+04</pdfrwt>
<totfact> 0.21134429E-01</totfact>
</mgrwt>
</event>
<event>
12    1  0.1442183E-007  0.1477446E+04  0.7818608E-02  0.8899591E-01
         -1   -1    0    0    0  501 -0.00000000000E+00  0.00000000000E+00  0.14240067936E+04  0.14240067936E+04  0.00000000000E+00 0.  1.
          1   -1    0    0  501    0  0.00000000000E+00 -0.00000000000E+00 -0.38322283125E+03  0.38322283125E+03  0.00000000000E+00 0. -1.
         23    2    1    2    0    0 -0.48549488832E+02  0.45530425932E+03  0.41728697076E+03  0.62554463174E+03  0.86710143050E+02 0.  0.
        254    2    1    2    0    0  0.48549488832E+02 -0.45530425932E+03  0.62349699164E+03  0.11816849932E+04  0.89329273089E+03 0.  0.
        -24    2    4    4    0    0  0.17563824728E+03 -0.51089643654E+03  0.78397590149E+03  0.95550565460E+03  0.80677624420E+02 0.  0.
         24    2    4    4    0    0 -0.12708875845E+03  0.55592177223E+02 -0.16047890986E+03  0.22617933856E+03  0.78495668596E+02 0.  0.
         11    1    3    3    0    0  0.21955886702E+02  0.19508944013E+03  0.16929376020E+03  0.25923411784E+03  0.00000000000E+00 0. -1.
        -11    1    3    3    0    0 -0.70505375534E+02  0.26021481919E+03  0.24799321056E+03  0.36631051389E+03  0.00000000000E+00 0.  1.
          4    1    6    6  502    0 -0.12303563509E+03  0.69843901690E+02 -0.12931497728E+03  0.19167238052E+03  0.00000000000E+00 0. -1.
          1    1    5    5  503    0  0.17919608422E+03 -0.43878111103E+03  0.67507901667E+03  0.82484651829E+03  0.00000000000E+00 0. -1.
         -2    1    5    5    0  503 -0.35578369337E+01 -0.72115325506E+02  0.10889688482E+03  0.13065913631E+03  0.00000000000E+00 0.  1.
         -3    1    6    6    0  502 -0.40531233609E+01 -0.14251724467E+02 -0.31163932580E+02  0.34506958039E+02  0.00000000000E+00 0.  1.
<mgrwt>
<rscale>  0 0.14774463E+04</rscale>
<asrwt>0</asrwt>
<pdfrwt beam="1">  1        1 0.58957359E-01 0.14774463E+04</pdfrwt>
<pdfrwt beam="2">  1       -1 0.21907797E+00 0.14774463E+04</pdfrwt>
<totfact> 0.68718473E+00</totfact>
</mgrwt>
</event>
<event>
12    1  0.1442183E-007  0.1710692E+04  0.7818608E-02  0.8755290E-01
         -2   -1    0    0    0  501 -0.00000000000E+00  0.00000000000E+00  0.35888059360E+03  0.35888059360E+03  0.00000000000E+00 0.  1.
          2   -1    0    0  501    0  0.00000000000E+00 -0.00000000000E+00 -0.20386075692E+04  0.20386075692E+04  0.00000000000E+00 0. -1.
         23    2    1    2    0    0  0.11695045309E+03 -0.96480303308E+02 -0.14455131735E+04  0.14562873440E+04  0.90987011248E+02 0.  0.
        254    2    1    2    0    0 -0.11695045309E+03  0.96480303308E+02 -0.23421380212E+03  0.94120081879E+03  0.89889766870E+03 0.  0.
        -24    2    4    4    0    0 -0.31267941324E+03 -0.18886321803E+03 -0.40155948289E+03  0.54898819879E+03  0.81855320659E+02 0.  0.
         24    2    4    4    0    0  0.19572896015E+03  0.28534352134E+03  0.16734568078E+03  0.39221262000E+03  0.78073115748E+02 0.  0.
         13    1    3    3    0    0  0.64686777205E+02 -0.81606447899E+02 -0.12150737875E+04  0.12195279007E+04  0.00000000000E+00 0. -1.
        -13    1    3    3    0    0  0.52263675888E+02 -0.14873855409E+02 -0.23043938597E+03  0.23675944332E+03  0.00000000000E+00 0.  1.
          4    1    6    6  502    0  0.87894821142E+02  0.89556524837E+02  0.94624605906E+02  0.15716133993E+03  0.00000000000E+00 0. -1.
          3    1    5    5  503    0 -0.31617921974E+03 -0.18845919306E+03 -0.38734195731E+03  0.53434067629E+03  0.00000000000E+00 0. -1.
         -4    1    5    5    0  503  0.34998065003E+01 -0.40402497098E+00 -0.14217525582E+02  0.14647522500E+02  0.00000000000E+00 0.  1.
         -3    1    6    6    0  502  0.10783413901E+03  0.19578699650E+03  0.72721074870E+02  0.23505128008E+03  0.00000000000E+00 0.  1.
<mgrwt>
<rscale>  0 0.17106919E+04</rscale>
<asrwt>0</asrwt>
<pdfrwt beam="1">  1        2 0.31363193E+00 0.17106919E+04</pdfrwt>
<pdfrwt beam="2">  1       -2 0.55212400E-01 0.17106919E+04</pdfrwt>
<totfact> 0.18647245E+01</totfact>
</mgrwt>
</event>
<event>
12    1  0.1442183E-007  0.1185295E+04  0.7818608E-02  0.9125826E-01
         -2   -1    0    0    0  501 -0.00000000000E+00  0.00000000000E+00  0.17946787143E+03  0.17946787143E+03  0.00000000000E+00 0.  1.
          2   -1    0    0  501    0  0.00000000000E+00 -0.00000000000E+00 -0.19570678401E+04  0.19570678401E+04  0.00000000000E+00 0. -1.
         23    2    1    2    0    0 -0.77771839694E+02  0.75977127053E+01  0.16076063101E+02  0.11976797826E+03  0.89329415779E+02 0.  0.
        254    2    1    2    0    0  0.77771839694E+02 -0.75977127053E+01 -0.17936760317E+04  0.20167677332E+04  0.91867959523E+03 0.  0.
        -24    2    4    4    0    0 -0.34193418968E+03 -0.23904124714E+03 -0.98302062421E+03  0.10715125774E+04  0.88033789304E+02 0.  0.
         24    2    4    4    0    0  0.41970602938E+03  0.23144353443E+03 -0.81065540752E+03  0.94525515580E+03  0.81399380188E+02 0.  0.
         13    1    3    3    0    0 -0.62810201360E+02  0.23814938504E+02 -0.26182558180E+02  0.72095763008E+02  0.00000000000E+00 0. -1.
        -13    1    3    3    0    0 -0.14961638335E+02 -0.16217225799E+02  0.42258621281E+02  0.47672215250E+02  0.00000000000E+00 0.  1.
          4    1    6    6  502    0  0.78080867066E+02  0.82062882027E+02 -0.19277121325E+03  0.22358819081E+03  0.00000000000E+00 0. -1.
          1    1    5    5  503    0 -0.68979622852E+02 -0.70585632933E+02 -0.15749193432E+03  0.18586077941E+03  0.00000000000E+00 0. -1.
         -4    1    5    5    0  503 -0.27295456683E+03 -0.16845561420E+03 -0.82552868989E+03  0.88565179802E+03  0.00000000000E+00 0.  1.
         -3    1    6    6    0  502  0.34162516231E+03  0.14938065241E+03 -0.61788419427E+03  0.72166696499E+03  0.00000000000E+00 0.  1.
<mgrwt>
<rscale>  0 0.11852946E+04</rscale>
<asrwt>0</asrwt>
<pdfrwt beam="1">  1        2 0.30108735E+00 0.11852946E+04</pdfrwt>
<pdfrwt beam="2">  1       -2 0.27610443E-01 0.11852946E+04</pdfrwt>
<totfact> 0.83497707E+01</totfact>
</mgrwt>
</event>
<event>
12    1  0.1442183E-007  0.1968059E+04  0.7818608E-02  0.8621702E-01
         -1   -1    0    0    0  501 -0.00000000000E+00  0.00000000000E+00  0.50585022015E+03  0.50585022015E+03  0.00000000000E+00 0.  1.
          1   -1    0    0  501    0  0.00000000000E+00 -0.00000000000E+00 -0.19142300874E+04  0.19142300874E+04  0.00000000000E+00 0. -1.
         23    2    1    2    0    0  0.21194408695E+03 -0.70608456812E+03 -0.26501304103E+03  0.78862994472E+03  0.90716946930E+02 0.  0.
        254    2    1    2    0    0 -0.21194408695E+03  0.70608456812E+03 -0.11433668262E+04  0.16314503628E+04  0.90048146773E+03 0.  0.
        -24    2    4    4    0    0  0.48109435616E+02  0.31369063832E+02  0.13060931992E+03  0.16436038883E+03  0.81590483555E+02 0.  0.
         24    2    4    4    0    0 -0.26005352257E+03  0.67471550429E+03 -0.12739761462E+04  0.14670899740E+04  0.80429624544E+02 0.  0.
         11    1    3    3    0    0  0.14899984905E+03 -0.51047665213E+03 -0.14723563428E+03  0.55178410577E+03  0.00000000000E+00 0. -1.
        -11    1    3    3    0    0  0.62944237906E+02 -0.19560791600E+03 -0.11777740675E+03  0.23684583895E+03  0.00000000000E+00 0.  1.
          4    1    6    6  502    0 -0.54015710428E+02  0.75120652704E+02 -0.13759471254E+03  0.16581047722E+03  0.00000000000E+00 0. -1.
          1    1    5    5  503    0 -0.21163775518E+02  0.47472318520E+01  0.51547495600E+02  0.55924823711E+02  0.00000000000E+00 0. -1.
         -4    1    5    5    0  503  0.69273211134E+02  0.26621831980E+02  0.79061824320E+02  0.10843556512E+03  0.00000000000E+00 0.  1.
         -3    1    6    6    0  502 -0.20603781214E+03  0.59959485159E+03 -0.11363814336E+04  0.13012794968E+04  0.00000000000E+00 0.  1.
<mgrwt>
<rscale>  0 0.19680586E+04</rscale>
<asrwt>0</asrwt>
<pdfrwt beam="1">  1        1 0.29449694E+00 0.19680586E+04</pdfrwt>
<pdfrwt beam="2">  1       -1 0.77823110E-01 0.19680586E+04</pdfrwt>
<totfact> 0.52423159E+00</totfact>
</mgrwt>
</event>
<event>
12    1  0.1442183E-007  0.2062091E+04  0.7818608E-02  0.8578129E-01
         -1   -1    0    0    0  501 -0.00000000000E+00  0.00000000000E+00  0.56412210679E+03  0.56412210679E+03  0.00000000000E+00 0.  1.
          1   -1    0    0  501    0  0.00000000000E+00 -0.00000000000E+00 -0.18844413286E+04  0.18844413286E+04  0.00000000000E+00 0. -1.
         23    2    1    2    0    0  0.68036592861E+03 -0.31588795544E+03 -0.28813909553E+02  0.75639719826E+03  0.92862710207E+02 0.  0.
        254    2    1    2    0    0 -0.68036592861E+03  0.31588795544E+03 -0.12915053123E+04  0.16921662371E+04  0.79546062458E+03 0.  0.
        -24    2    4    4    0    0 -0.74486627193E+03  0.47884501904E+03 -0.11476988998E+04  0.14518860647E+04  0.81498864070E+02 0.  0.
         24    2    4    4    0    0  0.64500343314E+02 -0.16295706360E+03 -0.14380641247E+03  0.24028017247E+03  0.79617699989E+02 0.  0.
         13    1    3    3    0    0  0.15678209459E+03 -0.75951171125E+02 -0.46060861219E+02  0.18019658297E+03  0.00000000000E+00 0. -1.
        -13    1    3    3    0    0  0.52358383403E+03 -0.23993678432E+03  0.17246951666E+02  0.57620061529E+03  0.00000000000E+00 0.  1.
          2    1    6    6  502    0  0.31371564819E+02 -0.57858634761E+02 -0.94148436100E+01  0.66486359322E+02  0.00000000000E+00 0. -1.
          1    1    5    5  503    0 -0.58171359923E+03  0.38429688998E+03 -0.95347448084E+03  0.11811809331E+04  0.00000000000E+00 0. -1.
         -2    1    5    5    0  503 -0.16315267270E+03  0.94548129053E+02 -0.19422441895E+03  0.27070513152E+03  0.00000000000E+00 0.  1.
         -1    1    6    6    0  502  0.33128778495E+02 -0.10509842884E+03 -0.13439156886E+03  0.17379381315E+03  0.00000000000E+00 0.  1.
<mgrwt>
<rscale>  0 0.20620912E+04</rscale>
<asrwt>0</asrwt>
<pdfrwt beam="1">  1        1 0.28991405E+00 0.20620912E+04</pdfrwt>
<pdfrwt beam="2">  1       -1 0.86788018E-01 0.20620912E+04</pdfrwt>
<totfact> 0.43091776E+00</totfact>
</mgrwt>
</event>
<event>
12    1  0.1442183E-007  0.1364938E+04  0.7818608E-02  0.8979597E-01
         -1   -1    0    0    0  501 -0.00000000000E+00  0.00000000000E+00  0.12840801356E+04  0.12840801356E+04  0.00000000000E+00 0.  1.
          1   -1    0    0  501    0  0.00000000000E+00 -0.00000000000E+00 -0.36272160335E+03  0.36272160335E+03  0.00000000000E+00 0. -1.
         23    2    1    2    0    0 -0.61641656430E+02  0.69581509304E+02 -0.17742964422E+03  0.22062801691E+03  0.92488717964E+02 0.  0.
        254    2    1    2    0    0  0.61641656430E+02 -0.69581509304E+02  0.10987881765E+04  0.14261737220E+04  0.90443062111E+03 0.  0.
        -24    2    4    4    0    0 -0.10811154766E+03  0.38993773836E+03  0.50140858507E+03  0.64952626668E+03  0.82062509005E+02 0.  0.
         24    2    4    4    0    0  0.16975320409E+03 -0.45951924767E+03  0.59737959138E+03  0.77664745533E+03  0.79654280474E+02 0.  0.
         13    1    3    3    0    0 -0.11257565019E+02  0.37702241892E+02 -0.14986093706E+03  0.15494028615E+03  0.00000000000E+00 0. -1.
        -13    1    3    3    0    0 -0.50384091411E+02  0.31879267413E+02 -0.27568707163E+02  0.65687730762E+02  0.00000000000E+00 0.  1.
          2    1    6    6  502    0  0.42074724350E+02 -0.42310078551E+02  0.81349321994E+02  0.10088675515E+03  0.00000000000E+00 0. -1.
          3    1    5    5  503    0 -0.88950904403E+02  0.21715561020E+03  0.24060365639E+03  0.33609365049E+03  0.00000000000E+00 0. -1.
         -4    1    5    5    0  503 -0.19160643260E+02  0.17278212817E+03  0.26080492868E+03  0.31343261619E+03  0.00000000000E+00 0.  1.
         -1    1    6    6    0  502  0.12767847974E+03 -0.41720916912E+03  0.51603026938E+03  0.67576070018E+03  0.00000000000E+00 0.  1.
<mgrwt>
<rscale>  0 0.13649375E+04</rscale>
<asrwt>0</asrwt>
<pdfrwt beam="1">  1        1 0.55803324E-01 0.13649375E+04</pdfrwt>
<pdfrwt beam="2">  1       -1 0.19755079E+00 0.13649375E+04</pdfrwt>
<totfact> 0.10452972E+01</totfact>
</mgrwt>
</event>
<event>
12    1  0.1442183E-007  0.1506480E+04  0.7818608E-02  0.8880155E-01
          1   -1    0    0  501    0  0.00000000000E+00  0.00000000000E+00  0.12162363392E+04  0.12162363392E+04  0.00000000000E+00 0. -1.
         -1   -1    0    0    0  501 -0.00000000000E+00 -0.00000000000E+00 -0.46649688992E+03  0.46649688992E+03  0.00000000000E+00 0.  1.
         23    2    1    2    0    0  0.38415824418E+02  0.30815390150E+03  0.67573297203E+03  0.74934854385E+03  0.92052094541E+02 0.  0.
        254    2    1    2    0    0 -0.38415824418E+02 -0.30815390150E+03  0.74006477279E+02  0.93338468531E+03  0.87709486916E+03 0.  0.
        -24    2    4    4    0    0 -0.18283185812E+03 -0.10930069912E+03 -0.36175145100E+03  0.42670175560E+03  0.76394664435E+02 0.  0.
         24    2    4    4    0    0  0.14441603370E+03 -0.19885320238E+03  0.43575792828E+03  0.50668292971E+03  0.80274730229E+02 0.  0.
         11    1    3    3    0    0  0.66871768775E+02  0.17921872375E+03  0.42139135943E+03  0.46277625501E+03  0.00000000000E+00 0.  1.
        -11    1    3    3    0    0 -0.28455944357E+02  0.12893517775E+03  0.25434161261E+03  0.28657228884E+03  0.00000000000E+00 0. -1.
          2    1    6    6  502    0  0.64395246786E+02 -0.12432720235E+03  0.17638389190E+03  0.22520052925E+03  0.00000000000E+00 0. -1.
          3    1    5    5  503    0 -0.47288223781E+02 -0.40155858815E+02 -0.49561452567E+02  0.79404072226E+02  0.00000000000E+00 0. -1.
         -4    1    5    5    0  503 -0.13554363434E+03 -0.69144840308E+02 -0.31218999844E+03  0.34729768337E+03  0.00000000000E+00 0.  1.
         -1    1    6    6    0  502  0.80020786913E+02 -0.74526000022E+02  0.25937403639E+03  0.28148240046E+03  0.00000000000E+00 0.  1.
<mgrwt>
<rscale>  0 0.15064800E+04</rscale>
<asrwt>0</asrwt>
<pdfrwt beam="1">  1        1 0.18711328E+00 0.15064800E+04</pdfrwt>
<pdfrwt beam="2">  1       -1 0.71768753E-01 0.15064800E+04</pdfrwt>
<totfact> 0.19701284E+01</totfact>
</mgrwt>
</event>
<event>
12    1  0.1442183E-007  0.3622042E+04  0.7818608E-02  0.8085461E-01
          2   -1    0    0  501    0  0.00000000000E+00  0.00000000000E+00  0.13029899892E+04  0.13029899892E+04  0.00000000000E+00 0. -1.
         -2   -1    0    0    0  501 -0.00000000000E+00 -0.00000000000E+00 -0.25171319835E+04  0.25171319835E+04  0.00000000000E+00 0.  1.
         23    2    1    2    0    0  0.10540033632E+04  0.53157823469E+03 -0.18569554057E+04  0.22023558949E+04  0.92680091946E+02 0.  0.
        254    2    1    2    0    0 -0.10540033632E+04 -0.53157823469E+03  0.64281341141E+03  0.16177660778E+04  0.90025523674E+03 0.  0.
        -24    2    4    4    0    0 -0.90693367639E+03 -0.57972604238E+03  0.83111867520E+03  0.13622197663E+04  0.79205187917E+02 0.  0.
         24    2    4    4    0    0 -0.14706968685E+03  0.48147807684E+02 -0.18830526378E+03  0.25554631153E+03  0.76794145559E+02 0.  0.
         13    1    3    3    0    0  0.49305665673E+03  0.19864995390E+03 -0.85506026706E+03  0.10068240816E+04  0.00000000000E+00 0. -1.
        -13    1    3    3    0    0  0.56094670651E+03  0.33292828079E+03 -0.10018951387E+04  0.11955318133E+04  0.00000000000E+00 0.  1.
          4    1    6    6  502    0 -0.14272542361E+03  0.45553010457E+02 -0.19577574567E+03  0.24652335772E+03  0.00000000000E+00 0. -1.
          1    1    5    5  503    0 -0.79429870435E+03 -0.48507176442E+03  0.69240228206E+03  0.11600111933E+04  0.00000000000E+00 0. -1.
         -2    1    5    5    0  503 -0.11263497204E+03 -0.94654277957E+02  0.13871639313E+03  0.20220857297E+03  0.00000000000E+00 0.  1.
         -1    1    6    6    0  502 -0.43442632344E+01  0.25947972270E+01  0.74704818915E+01  0.90229538063E+01  0.00000000000E+00 0.  1.
<mgrwt>
<rscale>  0 0.36220424E+04</rscale>
<asrwt>0</asrwt>
<pdfrwt beam="1">  1        2 0.20046000E+00 0.36220424E+04</pdfrwt>
<pdfrwt beam="2">  1       -2 0.38725107E+00 0.36220424E+04</pdfrwt>
<totfact> 0.12029721E-01</totfact>
</mgrwt>
</event>
<event>
12    1  0.1442183E-007  0.2992196E+04  0.7818608E-02  0.8245963E-01
          2   -1    0    0  501    0  0.00000000000E+00  0.00000000000E+00  0.23337182127E+04  0.23337182127E+04  0.00000000000E+00 0.  1.
         -2   -1    0    0    0  501 -0.00000000000E+00 -0.00000000000E+00 -0.95911722770E+03  0.95911722770E+03  0.00000000000E+00 0. -1.
         23    2    1    2    0    0 -0.66274022973E+03  0.28141536980E+03 -0.64283939304E+03  0.96956933942E+03  0.91667858305E+02 0.  0.
        254    2    1    2    0    0  0.66274022973E+03 -0.28141536980E+03  0.20174403781E+04  0.23232661010E+04  0.89948900750E+03 0.  0.
        -24    2    4    4    0    0 -0.76797709218E+02  0.21855360578E+03  0.57701306228E+03  0.62684747195E+03  0.79562002942E+02 0.  0.
         24    2    4    4    0    0  0.73953793895E+03 -0.49996897557E+03  0.14404273158E+04  0.16964186291E+04  0.78230258155E+02 0.  0.
         11    1    3    3    0    0 -0.56031496504E+03  0.20902333839E+03 -0.55971179560E+03  0.81909761944E+03  0.00000000000E+00 0. -1.
        -11    1    3    3    0    0 -0.10242526469E+03  0.72392031412E+02 -0.83127597433E+02  0.15047171998E+03  0.00000000000E+00 0.  1.
          2    1    6    6  502    0  0.65079034856E+03 -0.46844761807E+03  0.12955114097E+04  0.15235882191E+04  0.00000000000E+00 0. -1.
          3    1    5    5  503    0 -0.60265521041E+02  0.21990914539E+03  0.52898737517E+03  0.57603785322E+03  0.00000000000E+00 0. -1.
         -4    1    5    5    0  503 -0.16532188177E+02 -0.13555396093E+01  0.48025687106E+02  0.50809618731E+02  0.00000000000E+00 0.  1.
         -1    1    6    6    0  502  0.88747590383E+02 -0.31521357505E+02  0.14491590605E+03  0.17283040995E+03  0.00000000000E+00 0.  1.
<mgrwt>
<rscale>  0 0.29921961E+04</rscale>
<asrwt>0</asrwt>
<pdfrwt beam="1">  1        2 0.35903357E+00 0.29921961E+04</pdfrwt>
<pdfrwt beam="2">  1       -2 0.14755650E+00 0.29921961E+04</pdfrwt>
<totfact> 0.11626191E+00</totfact>
</mgrwt>
</event>
<event>
12    1  0.1442183E-007  0.1370280E+04  0.7818608E-02  0.8975617E-01
         -1   -1    0    0    0  501 -0.00000000000E+00  0.00000000000E+00  0.10861156421E+04  0.10861156421E+04  0.00000000000E+00 0.  1.
          1   -1    0    0  501    0  0.00000000000E+00 -0.00000000000E+00 -0.43219771211E+03  0.43219771211E+03  0.00000000000E+00 0. -1.
         23    2    1    2    0    0  0.79308380322E+02  0.26779811285E+03 -0.92732935782E+02  0.30714071423E+03  0.87922537066E+02 0.  0.
        254    2    1    2    0    0 -0.79308380322E+02 -0.26779811285E+03  0.74665086578E+03  0.12111726400E+04  0.91183660820E+03 0.  0.
        -24    2    4    4    0    0  0.28232150490E+02 -0.29479184089E+03  0.93262873745E+03  0.98179858401E+03  0.80204824447E+02 0.  0.
         24    2    4    4    0    0 -0.10754053081E+03  0.26993728037E+02 -0.18597787167E+03  0.22937405598E+03  0.75703775879E+02 0.  0.
         11    1    3    3    0    0  0.38324857369E+02  0.22720118115E+03 -0.95429039769E+02  0.24939100433E+03  0.00000000000E+00 0. -1.
        -11    1    3    3    0    0  0.40983522953E+02  0.40596931698E+02  0.26961039874E+01  0.57749709901E+02  0.00000000000E+00 0.  1.
          4    1    6    6  502    0  0.64998568767E+01 -0.12047552965E+02 -0.17559019816E+02  0.22264564867E+02  0.00000000000E+00 0. -1.
          3    1    5    5  503    0  0.20255138891E+02 -0.13099839414E+03  0.54540648001E+03  0.56128342070E+03  0.00000000000E+00 0. -1.
         -4    1    5    5    0  503  0.79770115982E+01 -0.16379344675E+03  0.38722225744E+03  0.42051516330E+03  0.00000000000E+00 0.  1.
         -3    1    6    6    0  502 -0.11404038769E+03  0.39041281001E+02 -0.16841885186E+03  0.20710949111E+03  0.00000000000E+00 0.  1.
<mgrwt>
<rscale>  0 0.13702798E+04</rscale>
<asrwt>0</asrwt>
<pdfrwt beam="1">  1        1 0.66491956E-01 0.13702798E+04</pdfrwt>
<pdfrwt beam="2">  1       -1 0.16709471E+00 0.13702798E+04</pdfrwt>
<totfact> 0.13662830E+01</totfact>
</mgrwt>
</event>
<event>
12    1  0.1442183E-007  0.1243789E+04  0.7818608E-02  0.9075369E-01
          1   -1    0    0  501    0  0.00000000000E+00  0.00000000000E+00  0.26656586020E+04  0.26656586020E+04  0.00000000000E+00 0. -1.
         -1   -1    0    0    0  501 -0.00000000000E+00 -0.00000000000E+00 -0.14508709978E+03  0.14508709978E+03  0.00000000000E+00 0.  1.
         23    2    1    2    0    0  0.27734701872E+03  0.16280073849E+02  0.47506789373E+03  0.55782934963E+03  0.91091547646E+02 0.  0.
        254    2    1    2    0    0 -0.27734701872E+03 -0.16280073849E+02  0.20455036085E+04  0.22529163521E+04  0.90241934146E+03 0.  0.
        -24    2    4    4    0    0  0.16777365212E+03 -0.33606119524E+03  0.73278752083E+03  0.82826511607E+03  0.89221222390E+02 0.  0.
         24    2    4    4    0    0 -0.44512067085E+03  0.31978112139E+03  0.13127160876E+04  0.14246512361E+04  0.77557981260E+02 0.  0.
         13    1    3    3    0    0  0.26429768139E+03  0.30573240352E+02  0.40072000551E+03  0.48100364887E+03  0.00000000000E+00 0.  1.
        -13    1    3    3    0    0  0.13049337336E+02 -0.14293166503E+02  0.74347888223E+02  0.76825700757E+02  0.00000000000E+00 0. -1.
          4    1    6    6  502    0 -0.39800911307E+03  0.31204461765E+03  0.11941012677E+04  0.12967887010E+04  0.00000000000E+00 0. -1.
          1    1    5    5  503    0  0.52575117216E+02 -0.20001788157E+03  0.36390771653E+03  0.41856913652E+03  0.00000000000E+00 0. -1.
         -2    1    5    5    0  503  0.11519853491E+03 -0.13604331366E+03  0.36887980430E+03  0.40969597955E+03  0.00000000000E+00 0.  1.
         -3    1    6    6    0  502 -0.47111557772E+02  0.77365037378E+01  0.11861481994E+03  0.12786253507E+03  0.00000000000E+00 0.  1.
<mgrwt>
<rscale>  0 0.12437888E+04</rscale>
<asrwt>0</asrwt>
<pdfrwt beam="1">  1        1 0.41010129E+00 0.12437888E+04</pdfrwt>
<pdfrwt beam="2">  1       -1 0.22321094E-01 0.12437888E+04</pdfrwt>
<totfact> 0.17528715E+01</totfact>
</mgrwt>
</event>
<event>
12    1  0.1442183E-007  0.2563768E+04  0.7818608E-02  0.8380614E-01
          2   -1    0    0  501    0  0.00000000000E+00  0.00000000000E+00  0.14047297788E+04  0.14047297788E+04  0.00000000000E+00 0.  1.
         -2   -1    0    0    0  501 -0.00000000000E+00 -0.00000000000E+00 -0.11697811292E+04  0.11697811292E+04  0.00000000000E+00 0. -1.
         23    2    1    2    0    0 -0.11028030689E+03  0.70736019481E+03  0.97176510396E+03  0.12105135762E+04  0.92171088143E+02 0.  0.
        254    2    1    2    0    0  0.11028030689E+03 -0.70736019481E+03 -0.73681645435E+03  0.13639973319E+04  0.89725695465E+03 0.  0.
        -24    2    4    4    0    0  0.22749540030E+03 -0.86884960724E+03 -0.45575316554E+03  0.10103305464E+04  0.80019172222E+02 0.  0.
         24    2    4    4    0    0 -0.11721509341E+03  0.16148941243E+03 -0.28106328881E+03  0.35366678548E+03  0.79154370600E+02 0.  0.
         11    1    3    3    0    0 -0.14284825432E+02  0.86481292623E+02  0.73762543701E+02  0.11455995402E+03  0.00000000000E+00 0. -1.
        -11    1    3    3    0    0 -0.95995481455E+02  0.62087890219E+03  0.89800256026E+03  0.10959536221E+04  0.00000000000E+00 0.  1.
          4    1    6    6  502    0 -0.81970271863E+02  0.63533114224E+02 -0.18462089773E+03  0.21175565624E+03  0.00000000000E+00 0. -1.
          3    1    5    5  503    0 -0.45648675094E+01 -0.50771959335E+02 -0.19287733859E+02  0.54503637929E+02  0.00000000000E+00 0. -1.
         -4    1    5    5    0  503  0.23206026781E+03 -0.81807764791E+03 -0.43646543168E+03  0.95582690847E+03  0.00000000000E+00 0.  1.
         -3    1    6    6    0  502 -0.35244821550E+02  0.97956298205E+02 -0.96442391075E+02  0.14191112923E+03  0.00000000000E+00 0.  1.
<mgrwt>
<rscale>  0 0.25637678E+04</rscale>
<asrwt>0</asrwt>
<pdfrwt beam="1">  1        2 0.21611227E+00 0.25637678E+04</pdfrwt>
<pdfrwt beam="2">  1       -2 0.17996633E+00 0.25637678E+04</pdfrwt>
<totfact> 0.23149952E+00</totfact>
</mgrwt>
</event>
<event>
12    1  0.1442183E-007  0.1288791E+04  0.7818608E-02  0.9038501E-01
          1   -1    0    0  501    0  0.00000000000E+00  0.00000000000E+00  0.12122030707E+04  0.12122030707E+04  0.00000000000E+00 0. -1.
         -1   -1    0    0    0  501 -0.00000000000E+00 -0.00000000000E+00 -0.34255454787E+03  0.34255454787E+03  0.00000000000E+00 0.  1.
         23    2    1    2    0    0  0.14740602577E+03  0.27510716081E+03  0.40587781516E+01  0.32513558032E+03  0.91017501325E+02 0.  0.
        254    2    1    2    0    0 -0.14740602577E+03 -0.27510716081E+03  0.86558974470E+03  0.12296220383E+04  0.81566676071E+03 0.  0.
        -24    2    4    4    0    0  0.14868869502E+03 -0.16289429955E+02  0.80636716834E+03  0.82402796533E+03  0.80127422994E+02 0.  0.
         24    2    4    4    0    0 -0.29609472079E+03 -0.25881773085E+03  0.59222576360E+02  0.40559407295E+03  0.79627488804E+02 0.  0.
         11    1    3    3    0    0  0.79408572380E+01 -0.26413767639E+01 -0.11180017284E+02  0.13965202159E+02  0.00000000000E+00 0. -1.
        -11    1    3    3    0    0  0.13946516854E+03  0.27774853757E+03  0.15238795435E+02  0.31117037816E+03  0.00000000000E+00 0.  1.
          4    1    6    6  502    0 -0.13999373501E+03 -0.83621148708E+02  0.50781151146E+02  0.17079071305E+03  0.00000000000E+00 0. -1.
          3    1    5    5  503    0  0.55628236183E+01  0.13710309910E+02  0.18897377191E+03  0.18955211440E+03  0.00000000000E+00 0. -1.
         -4    1    5    5    0  503  0.14312587140E+03 -0.29999739865E+02  0.61739339643E+03  0.63447585093E+03  0.00000000000E+00 0.  1.
         -3    1    6    6    0  502 -0.15610098578E+03 -0.17519658215E+03  0.84414252133E+01  0.23480335989E+03  0.00000000000E+00 0.  1.
<mgrwt>
<rscale>  0 0.12887912E+04</rscale>
<asrwt>0</asrwt>
<pdfrwt beam="1">  1        1 0.18649278E+00 0.12887912E+04</pdfrwt>
<pdfrwt beam="2">  1       -1 0.52700700E-01 0.12887912E+04</pdfrwt>
<totfact> 0.37349258E+01</totfact>
</mgrwt>
</event>
<event>
12    1  0.1442183E-007  0.1658967E+04  0.7818608E-02  0.8785119E-01
          2   -1    0    0  501    0  0.00000000000E+00  0.00000000000E+00  0.27361873615E+04  0.27361873615E+04  0.00000000000E+00 0. -1.
         -2   -1    0    0    0  501 -0.00000000000E+00 -0.00000000000E+00 -0.25146035554E+03  0.25146035554E+03  0.00000000000E+00 0.  1.
         23    2    1    2    0    0 -0.26449152820E+03  0.32531830914E+03  0.15443329342E+03  0.45556339742E+03  0.88885298002E+02 0.  0.
        254    2    1    2    0    0  0.26449152820E+03 -0.32531830914E+03  0.23302937125E+04  0.25320843196E+04  0.89743771048E+03 0.  0.
        -24    2    4    4    0    0  0.48303531164E+03  0.80139594471E+01  0.71708065929E+03  0.86834460185E+03  0.80189399594E+02 0.  0.
         24    2    4    4    0    0 -0.21854378343E+03 -0.33333226858E+03  0.16132130532E+04  0.16637397177E+04  0.81863952570E+02 0.  0.
         11    1    3    3    0    0 -0.74800745361E+01  0.20584976523E+01 -0.85874089083E+01  0.11572921818E+02  0.00000000000E+00 0. -1.
        -11    1    3    3    0    0 -0.25701145367E+03  0.32325981148E+03  0.16302070232E+03  0.44399047560E+03  0.00000000000E+00 0.  1.
          4    1    6    6  502    0 -0.10323342916E+03 -0.94163533473E+02  0.48680011847E+03  0.50645657985E+03  0.00000000000E+00 0. -1.
          1    1    5    5  503    0  0.29059389852E+02 -0.18541577930E+02  0.61097687613E+02  0.70151020537E+02  0.00000000000E+00 0. -1.
         -2    1    5    5    0  503  0.45397592179E+03  0.26555537377E+02  0.65598297167E+03  0.79819358132E+03  0.00000000000E+00 0.  1.
         -3    1    6    6    0  502 -0.11531035428E+03 -0.23916873511E+03  0.11264129347E+04  0.11572831379E+04  0.00000000000E+00 0.  1.
<mgrwt>
<rscale>  0 0.16589667E+04</rscale>
<asrwt>0</asrwt>
<pdfrwt beam="1">  1        2 0.42095188E+00 0.16589667E+04</pdfrwt>
<pdfrwt beam="2">  1       -2 0.38686210E-01 0.16589667E+04</pdfrwt>
<totfact> 0.15275342E+01</totfact>
</mgrwt>
</event>
<event>
12    1  0.1442183E-007  0.1621302E+04  0.7818608E-02  0.8807567E-01
          1   -1    0    0  501    0  0.00000000000E+00  0.00000000000E+00  0.75549695563E+03  0.75549695563E+03  0.00000000000E+00 0. -1.
         -1   -1    0    0    0  501 -0.00000000000E+00 -0.00000000000E+00 -0.86983128809E+03  0.86983128809E+03  0.00000000000E+00 0.  1.
         23    2    1    2    0    0  0.50398331734E+03  0.90519746139E+02 -0.24239550021E+03  0.57439173216E+03  0.94748482095E+02 0.  0.
        254    2    1    2    0    0 -0.50398331734E+03 -0.90519746139E+02  0.12806116775E+03  0.10509365116E+04  0.90877658424E+03 0.  0.
        -24    2    4    4    0    0 -0.63872007466E+03 -0.94278520335E+01 -0.20398928658E+03  0.67524371343E+03  0.79310940706E+02 0.  0.
         24    2    4    4    0    0  0.13473675733E+03 -0.81091894105E+02  0.33205045433E+03  0.37569279813E+03  0.78470920000E+02 0.  0.
         11    1    3    3    0    0  0.23937574267E+03  0.45774891469E+02 -0.16766510906E+03  0.29581696311E+03  0.00000000000E+00 0. -1.
        -11    1    3    3    0    0  0.26460757467E+03  0.44744854669E+02 -0.74730391149E+02  0.27857476905E+03  0.00000000000E+00 0.  1.
          4    1    6    6  502    0  0.13096075074E+03 -0.94065290448E+02  0.31560369191E+03  0.35440751607E+03  0.00000000000E+00 0. -1.
          1    1    5    5  503    0 -0.23213760919E+03  0.34729215435E+02 -0.74369669931E+02  0.24622111162E+03  0.00000000000E+00 0. -1.
         -4    1    5    5    0  503 -0.40658246548E+03 -0.44157067468E+02 -0.12961961665E+03  0.42902260181E+03  0.00000000000E+00 0.  1.
         -3    1    6    6    0  502  0.37760065857E+01  0.12973396342E+02  0.16446762420E+02  0.21285282063E+02  0.00000000000E+00 0.  1.
<mgrwt>
<rscale>  0 0.16213018E+04</rscale>
<asrwt>0</asrwt>
<pdfrwt beam="1">  1        1 0.11623030E+00 0.16213018E+04</pdfrwt>
<pdfrwt beam="2">  1       -1 0.13382020E+00 0.16213018E+04</pdfrwt>
<totfact> 0.10929042E+01</totfact>
</mgrwt>
</event>
<event>
12    1  0.1442183E-007  0.1352065E+04  0.7818608E-02  0.8989266E-01
          2   -1    0    0  501    0  0.00000000000E+00  0.00000000000E+00  0.13934888275E+04  0.13934888275E+04  0.00000000000E+00 0. -1.
         -2   -1    0    0    0  501 -0.00000000000E+00 -0.00000000000E+00 -0.32796808555E+03  0.32796808555E+03  0.00000000000E+00 0.  1.
         23    2    1    2    0    0 -0.50436397850E+02 -0.53637848696E+02 -0.16154768969E+03  0.19814641801E+03  0.87997147032E+02 0.  0.
        254    2    1    2    0    0  0.50436397850E+02  0.53637848696E+02  0.12270684316E+04  0.15233104950E+04  0.89964275095E+03 0.  0.
        -24    2    4    4    0    0 -0.76469470704E+01  0.17215998592E+03 -0.81222218351E+02  0.20601608094E+03  0.78409440129E+02 0.  0.
         24    2    4    4    0    0  0.58083344920E+02 -0.11852213722E+03  0.13082906500E+04  0.13172944141E+04  0.78860488161E+02 0.  0.
         11    1    3    3    0    0 -0.88212742736E+01 -0.62407940536E+02 -0.13225379377E+03  0.14650471626E+03  0.00000000000E+00 0.  1.
        -11    1    3    3    0    0 -0.41615123576E+02  0.87700918396E+01 -0.29293895926E+02  0.51641701750E+02  0.00000000000E+00 0. -1.
          2    1    6    6  502    0  0.32282229377E+02 -0.99107441324E+01  0.15624118943E+03  0.15984891134E+03  0.00000000000E+00 0. -1.
          1    1    5    5  503    0 -0.33845731736E+02  0.10714473594E+03 -0.22544873002E+02  0.11460278921E+03  0.00000000000E+00 0. -1.
         -2    1    5    5    0  503  0.26198784665E+02  0.65015249983E+02 -0.58677345349E+02  0.91413291733E+02  0.00000000000E+00 0.  1.
         -1    1    6    6    0  502  0.25801115543E+02 -0.10861139309E+03  0.11520494606E+04  0.11574455028E+04  0.00000000000E+00 0.  1.
<mgrwt>
<rscale>  0 0.13520649E+04</rscale>
<asrwt>0</asrwt>
<pdfrwt beam="1">  1        2 0.21438289E+00 0.13520649E+04</pdfrwt>
<pdfrwt beam="2">  1       -2 0.50456629E-01 0.13520649E+04</pdfrwt>
<totfact> 0.52935932E+01</totfact>
</mgrwt>
</event>
<event>
12    1  0.1442183E-007  0.2488532E+04  0.7818608E-02  0.8407082E-01
          2   -1    0    0  501    0  0.00000000000E+00  0.00000000000E+00  0.62749572365E+03  0.62749572365E+03  0.00000000000E+00 0. -1.
         -2   -1    0    0    0  501 -0.00000000000E+00 -0.00000000000E+00 -0.24672646119E+04  0.24672646119E+04  0.00000000000E+00 0.  1.
         23    2    1    2    0    0  0.52418757351E+03 -0.83679591941E+03 -0.13488830136E+04  0.16741279665E+04  0.90658926020E+02 0.  0.
        254    2    1    2    0    0 -0.52418757351E+03  0.83679591941E+03 -0.49088587463E+03  0.14206323690E+04  0.89567145935E+03 0.  0.
        -24    2    4    4    0    0  0.98573318939E+02 -0.12869994639E+03 -0.50396606337E+02  0.18765866299E+03  0.79972373083E+02 0.  0.
         24    2    4    4    0    0 -0.62276089245E+03  0.96549586579E+03 -0.44048926829E+03  0.12329737061E+04  0.78612774402E+02 0.  0.
         13    1    3    3    0    0  0.51570643935E+03 -0.83531088015E+03 -0.13272562232E+04  0.16508502294E+04  0.00000000000E+00 0.  1.
        -13    1    3    3    0    0  0.84811341665E+01 -0.14850392578E+01 -0.21626790451E+02  0.23277737080E+02  0.00000000000E+00 0. -1.
          4    1    6    6  502    0 -0.49237698820E+03  0.74649598347E+03 -0.37586650473E+03  0.97003452579E+03  0.00000000000E+00 0. -1.
          3    1    5    5  503    0  0.74828727509E+02 -0.33503551640E+02 -0.14948623198E+02  0.83338393125E+02  0.00000000000E+00 0. -1.
         -2    1    5    5    0  503  0.23744591430E+02 -0.95196394749E+02 -0.35447983139E+02  0.10432026986E+03  0.00000000000E+00 0.  1.
         -3    1    6    6    0  502 -0.13038390426E+03  0.21899988233E+03 -0.64622763561E+02  0.26293918026E+03  0.00000000000E+00 0.  1.
<mgrwt>
<rscale>  0 0.24885321E+04</rscale>
<asrwt>0</asrwt>
<pdfrwt beam="1">  1        2 0.96537805E-01 0.24885321E+04</pdfrwt>
<pdfrwt beam="2">  1       -2 0.37957917E+00 0.24885321E+04</pdfrwt>
<totfact> 0.42258087E-01</totfact>
</mgrwt>
</event>
<event>
12    1  0.1442183E-007  0.1402487E+04  0.7818608E-02  0.8952020E-01
          2   -1    0    0  501    0  0.00000000000E+00  0.00000000000E+00  0.13084692433E+04  0.13084692433E+04  0.00000000000E+00 0. -1.
         -2   -1    0    0    0  501 -0.00000000000E+00 -0.00000000000E+00 -0.37581532385E+03  0.37581532385E+03  0.00000000000E+00 0.  1.
         23    2    1    2    0    0  0.25438756670E+03  0.20504447442E+03  0.55606919506E+03  0.65121979523E+03  0.90099952414E+02 0.  0.
        254    2    1    2    0    0 -0.25438756670E+03 -0.20504447442E+03  0.37658472439E+03  0.10330647719E+04  0.90479306903E+03 0.  0.
        -24    2    4    4    0    0 -0.14700952667E+03  0.34980153019E+03  0.10945891204E+03  0.40285483713E+03  0.79610645766E+02 0.  0.
         24    2    4    4    0    0 -0.10737804003E+03 -0.55484600461E+03  0.26712581235E+03  0.63020993480E+03  0.80151294307E+02 0.  0.
         11    1    3    3    0    0  0.43982281754E+02  0.29930499823E+02  0.16869121545E+03  0.17688132207E+03  0.00000000000E+00 0.  1.
        -11    1    3    3    0    0  0.21040528494E+03  0.17511397460E+03  0.38737797961E+03  0.47433847315E+03  0.00000000000E+00 0. -1.
          4    1    6    6  502    0 -0.25168373783E+02 -0.15272843378E+03  0.11359967439E+03  0.19200080089E+03  0.00000000000E+00 0. -1.
          1    1    5    5  503    0  0.54585719573E+01  0.26050379335E+02 -0.51171827068E+01  0.27103575966E+02  0.00000000000E+00 0. -1.
         -2    1    5    5    0  503 -0.15246809862E+03  0.32375115086E+03  0.11457609475E+03  0.37575126116E+03  0.00000000000E+00 0.  1.
         -3    1    6    6    0  502 -0.82209666247E+02 -0.40211757084E+03  0.15352613796E+03  0.43820913391E+03  0.00000000000E+00 0.  1.
<mgrwt>
<rscale>  0 0.14024875E+04</rscale>
<asrwt>0</asrwt>
<pdfrwt beam="1">  1        2 0.20130296E+00 0.14024875E+04</pdfrwt>
<pdfrwt beam="2">  1       -2 0.57817743E-01 0.14024875E+04</pdfrwt>
<totfact> 0.44537582E+01</totfact>
</mgrwt>
</event>
<event>
12    1  0.1442183E-007  0.1544380E+04  0.7818608E-02  0.8855466E-01
          3   -1    0    0  501    0  0.00000000000E+00  0.00000000000E+00  0.96234901152E+03  0.96234901152E+03  0.00000000000E+00 0. -1.
         -3   -1    0    0    0  501 -0.00000000000E+00 -0.00000000000E+00 -0.61960594702E+03  0.61960594702E+03  0.00000000000E+00 0.  1.
         23    2    1    2    0    0  0.21894895726E+03  0.41079570160E+03 -0.28667259507E+02  0.47646825274E+03  0.97511177640E+02 0.  0.
        254    2    1    2    0    0 -0.21894895726E+03 -0.41079570160E+03  0.37141032400E+03  0.11054867058E+04  0.93137719189E+03 0.  0.
        -24    2    4    4    0    0 -0.41985205959E+03 -0.54594459756E+03  0.50022968235E+02  0.69524460239E+03  0.80817722396E+02 0.  0.
         24    2    4    4    0    0  0.20090310233E+03  0.13514889596E+03  0.32138735576E+03  0.41024210341E+03  0.79884105817E+02 0.  0.
         13    1    3    3    0    0  0.79941574471E+02  0.21339776562E+03 -0.52544303736E+02  0.23385928580E+03  0.00000000000E+00 0.  1.
        -13    1    3    3    0    0  0.13900738279E+03  0.19739793599E+03  0.23877044229E+02  0.24260896695E+03  0.00000000000E+00 0. -1.
          4    1    6    6  502    0  0.19835770388E+03  0.12739197860E+03  0.32484924790E+03  0.40137454922E+03  0.00000000000E+00 0. -1.
          3    1    5    5  503    0 -0.18111694177E+03 -0.26508248715E+03 -0.12846760729E+02  0.32130532341E+03  0.00000000000E+00 0. -1.
         -4    1    5    5    0  503 -0.23873511781E+03 -0.28086211041E+03  0.62869728964E+02  0.37393927898E+03  0.00000000000E+00 0.  1.
         -3    1    6    6    0  502  0.25453984476E+01  0.77569173531E+01 -0.34618921386E+01  0.88675541870E+01  0.00000000000E+00 0.  1.
<mgrwt>
<rscale>  0 0.15443797E+04</rscale>
<asrwt>0</asrwt>
<pdfrwt beam="1">  1        3 0.14805369E+00 0.15443797E+04</pdfrwt>
<pdfrwt beam="2">  1       -3 0.95323992E-01 0.15443797E+04</pdfrwt>
<totfact> 0.82439355E-01</totfact>
</mgrwt>
</event>
<event>
12    1  0.1442183E-007  0.1181986E+04  0.7818608E-02  0.9128772E-01
          2   -1    0    0  501    0  0.00000000000E+00  0.00000000000E+00  0.29360370707E+04  0.29360370707E+04  0.00000000000E+00 0. -1.
         -2   -1    0    0    0  501 -0.00000000000E+00 -0.00000000000E+00 -0.11896050025E+03  0.11896050025E+03  0.00000000000E+00 0.  1.
         23    2    1    2    0    0 -0.19793547803E+03  0.65618815591E+02  0.88367594272E+03  0.91240291381E+03  0.90064548851E+02 0.  0.
        254    2    1    2    0    0  0.19793547803E+03 -0.65618815591E+02  0.19334006278E+04  0.21425946572E+04  0.89954966238E+03 0.  0.
        -24    2    4    4    0    0 -0.28439863358E+03 -0.63902976741E+02  0.25690059818E+03  0.39633100691E+03  0.78193199646E+02 0.  0.
         24    2    4    4    0    0  0.48233411161E+03 -0.17158388507E+01  0.16765000296E+04  0.17462636503E+04  0.78327822058E+02 0.  0.
         11    1    3    3    0    0 -0.17686382997E+03  0.51256935217E+02  0.85232931221E+03  0.87199389001E+03  0.00000000000E+00 0. -1.
        -11    1    3    3    0    0 -0.21071648065E+02  0.14361880374E+02  0.31346630503E+02  0.40409023793E+02  0.00000000000E+00 0.  1.
          2    1    6    6  502    0  0.16843831187E+03  0.21194588847E+00  0.45836426386E+03  0.48833319384E+03  0.00000000000E+00 0. -1.
          1    1    5    5  503    0 -0.34799832177E+02  0.15180423597E+02  0.49080104145E+02  0.62051029024E+02  0.00000000000E+00 0. -1.
         -4    1    5    5    0  503 -0.24959880141E+03 -0.79083400338E+02  0.20782049403E+03  0.33427997788E+03  0.00000000000E+00 0.  1.
         -1    1    6    6    0  502  0.31389579974E+03 -0.19277847392E+01  0.12181357657E+04  0.12579304564E+04  0.00000000000E+00 0.  1.
<mgrwt>
<rscale>  0 0.11819855E+04</rscale>
<asrwt>0</asrwt>
<pdfrwt beam="1">  1        2 0.45169796E+00 0.11819855E+04</pdfrwt>
<pdfrwt beam="2">  1       -2 0.18301618E-01 0.11819855E+04</pdfrwt>
<totfact> 0.47729318E+01</totfact>
</mgrwt>
</event>
<event>
12    1  0.1442183E-007  0.2425154E+04  0.7818608E-02  0.8430146E-01
          1   -1    0    0  501    0  0.00000000000E+00  0.00000000000E+00  0.24833018107E+04  0.24833018107E+04  0.00000000000E+00 0. -1.
         -1   -1    0    0    0  501 -0.00000000000E+00 -0.00000000000E+00 -0.59209217961E+03  0.59209217961E+03  0.00000000000E+00 0.  1.
         23    2    1    2    0    0  0.44199345571E+03  0.93492475994E+03  0.61278314734E+03  0.12054733742E+04  0.90666138566E+02 0.  0.
        254    2    1    2    0    0 -0.44199345571E+03 -0.93492475994E+03  0.12784264837E+04  0.18699206160E+04  0.89038548641E+03 0.  0.
        -24    2    4    4    0    0  0.30564101227E+02  0.99287213494E+02  0.42823322050E+03  0.44796588350E+03  0.80607856887E+02 0.  0.
         24    2    4    4    0    0 -0.47255755694E+03 -0.10342119734E+04  0.85019326321E+03  0.14219547325E+04  0.78877284307E+02 0.  0.
         11    1    3    3    0    0  0.15340714571E+03  0.27392591742E+03  0.14511831257E+03  0.34587351045E+03  0.00000000000E+00 0.  1.
        -11    1    3    3    0    0  0.28858631000E+03  0.66099884252E+03  0.46766483477E+03  0.85959986378E+03  0.00000000000E+00 0. -1.
          4    1    6    6  502    0 -0.15106476637E+03 -0.30128654080E+03  0.29497372807E+03  0.44788798104E+03  0.00000000000E+00 0. -1.
          1    1    5    5  503    0  0.26176243995E+02  0.44296653169E+02  0.78177882897E+02  0.93590440783E+02  0.00000000000E+00 0. -1.
         -2    1    5    5    0  503  0.43878572321E+01  0.54990560325E+02  0.35005533760E+03  0.35437544271E+03  0.00000000000E+00 0.  1.
         -3    1    6    6    0  502 -0.32149279057E+03 -0.73292543263E+03  0.55521953514E+03  0.97406675150E+03  0.00000000000E+00 0.  1.
<mgrwt>
<rscale>  0 0.24251545E+04</rscale>
<asrwt>0</asrwt>
<pdfrwt beam="1">  1        1 0.38204643E+00 0.24251545E+04</pdfrwt>
<pdfrwt beam="2">  1       -1 0.91091106E-01 0.24251545E+04</pdfrwt>
<totfact> 0.14628890E+00</totfact>
</mgrwt>
</event>
<event>
12    1  0.1442183E-007  0.1326459E+04  0.7818608E-02  0.9008842E-01
         -1   -1    0    0    0  501 -0.00000000000E+00  0.00000000000E+00  0.10523528277E+04  0.10523528277E+04  0.00000000000E+00 0.  1.
          1   -1    0    0  501    0  0.00000000000E+00 -0.00000000000E+00 -0.41799061467E+03  0.41799061467E+03  0.00000000000E+00 0. -1.
         23    2    1    2    0    0  0.26233909546E+03 -0.22573785456E+03  0.28352041602E+03  0.45845945118E+03  0.10010925076E+03 0.  0.
        254    2    1    2    0    0 -0.26233909546E+03  0.22573785456E+03  0.35084179705E+03  0.10118839912E+04  0.88376459828E+03 0.  0.
        -24    2    4    4    0    0  0.20990868153E+03  0.26033340346E+03 -0.94477218120E+02  0.35706407680E+03  0.82058970637E+02 0.  0.
         24    2    4    4    0    0 -0.47224777699E+03 -0.34595548901E+02  0.44531901517E+03  0.65481991444E+03  0.79153522989E+02 0.  0.
         13    1    3    3    0    0  0.22692750495E+03 -0.18654231529E+03  0.18640977366E+03  0.34791195957E+03  0.00000000000E+00 0. -1.
        -13    1    3    3    0    0  0.35411590513E+02 -0.39195539269E+02  0.97110642365E+02  0.11054749161E+03  0.00000000000E+00 0.  1.
          2    1    6    6  502    0 -0.14184642073E+03 -0.46499506088E+02  0.14720752114E+03  0.20964890990E+03  0.00000000000E+00 0. -1.
          1    1    5    5  503    0 -0.71675028275E+01  0.61914989215E+01 -0.63736104808E+01  0.11416245716E+02  0.00000000000E+00 0. -1.
         -4    1    5    5    0  503  0.21707618435E+03  0.25414190454E+03 -0.88103607639E+02  0.34564783109E+03  0.00000000000E+00 0.  1.
         -1    1    6    6    0  502 -0.33040135626E+03  0.11903957187E+02  0.29811149402E+03  0.44517100454E+03  0.00000000000E+00 0.  1.
<mgrwt>
<rscale>  0 0.13264594E+04</rscale>
<asrwt>0</asrwt>
<pdfrwt beam="1">  1        1 0.64306249E-01 0.13264594E+04</pdfrwt>
<pdfrwt beam="2">  1       -1 0.16190043E+00 0.13264594E+04</pdfrwt>
<totfact> 0.15681611E+01</totfact>
</mgrwt>
</event>
<event>
12    1  0.1442183E-007  0.1299796E+04  0.7818608E-02  0.9029727E-01
         -2   -1    0    0    0  501 -0.00000000000E+00  0.00000000000E+00  0.27674937709E+03  0.27674937709E+03  0.00000000000E+00 0.  1.
          2   -1    0    0  501    0  0.00000000000E+00 -0.00000000000E+00 -0.15261718469E+04  0.15261718469E+04  0.00000000000E+00 0. -1.
         23    2    1    2    0    0 -0.24973629230E+03  0.20190938885E+03 -0.23812041152E+03  0.41055517819E+03  0.93373481017E+02 0.  0.
        254    2    1    2    0    0  0.24973629230E+03 -0.20190938885E+03 -0.10113020583E+04  0.13923660458E+04  0.90156294036E+03 0.  0.
        -24    2    4    4    0    0 -0.27471552088E+03 -0.19544489530E+03 -0.68927582275E+03  0.77149691501E+03  0.80243414188E+02 0.  0.
         24    2    4    4    0    0  0.52445181318E+03 -0.64644935439E+01 -0.32202623558E+03  0.62086913083E+03  0.81768497563E+02 0.  0.
         11    1    3    3    0    0 -0.29381766629E+02  0.19489831816E+02 -0.70945651593E+02  0.79223905700E+02  0.00000000000E+00 0. -1.
        -11    1    3    3    0    0 -0.22035452568E+03  0.18241955703E+03 -0.16717475993E+03  0.33133127249E+03  0.00000000000E+00 0.  1.
          2    1    6    6  502    0  0.29522548526E+02  0.83916699292E+01 -0.41999516732E+02  0.52018846599E+02  0.00000000000E+00 0. -1.
          1    1    5    5  503    0 -0.75067110810E+02 -0.49669274757E+02 -0.11322804996E+03  0.14464680873E+03  0.00000000000E+00 0. -1.
         -2    1    5    5    0  503 -0.19964841007E+03 -0.14577562055E+03 -0.57604777280E+03  0.62685010627E+03  0.00000000000E+00 0.  1.
         -1    1    6    6    0  502  0.49492926466E+03 -0.14856163473E+02 -0.28002671884E+03  0.56885028423E+03  0.00000000000E+00 0.  1.
<mgrwt>
<rscale>  0 0.12997955E+04</rscale>
<asrwt>0</asrwt>
<pdfrwt beam="1">  1        2 0.23479566E+00 0.12997955E+04</pdfrwt>
<pdfrwt beam="2">  1       -2 0.42576828E-01 0.12997955E+04</pdfrwt>
<totfact> 0.62865940E+01</totfact>
</mgrwt>
</event>
<event>
12    1  0.1442183E-007  0.2915281E+04  0.7818608E-02  0.8268345E-01
         -1   -1    0    0    0  501 -0.00000000000E+00  0.00000000000E+00  0.97917663259E+03  0.97917663259E+03  0.00000000000E+00 0.  1.
          1   -1    0    0  501    0  0.00000000000E+00 -0.00000000000E+00 -0.21699005228E+04  0.21699005228E+04  0.00000000000E+00 0. -1.
         23    2    1    2    0    0 -0.39186502723E+03 -0.11464774194E+04  0.27227670347E+02  0.12152033880E+04  0.89494443077E+02 0.  0.
        254    2    1    2    0    0  0.39186502723E+03  0.11464774194E+04 -0.12179515605E+04  0.19338737674E+04  0.88797132357E+03 0.  0.
        -24    2    4    4    0    0  0.37925382580E+02  0.77680145322E+03 -0.11793368518E+04  0.14150735434E+04  0.82090747823E+02 0.  0.
         24    2    4    4    0    0  0.35393964465E+03  0.36967596621E+03 -0.38614708748E+02  0.51880022397E+03  0.75690056217E+02 0.  0.
         13    1    3    3    0    0 -0.11716666899E+03 -0.35786225717E+03 -0.32670802671E+02  0.37796931724E+03  0.00000000000E+00 0. -1.
        -13    1    3    3    0    0 -0.27469835824E+03 -0.78861516226E+03  0.59898473019E+02  0.83723407076E+03  0.00000000000E+00 0.  1.
          4    1    6    6  502    0  0.21186020475E+03  0.23127327507E+03 -0.59905611894E+02  0.31931294439E+03  0.00000000000E+00 0. -1.
          1    1    5    5  503    0  0.25983571575E+02  0.27853501839E+03 -0.35791464254E+03  0.45426841604E+03  0.00000000000E+00 0. -1.
         -2    1    5    5    0  503  0.11941811004E+02  0.49826643483E+03 -0.82142220925E+03  0.96080512737E+03  0.00000000000E+00 0.  1.
         -3    1    6    6    0  502  0.14207943991E+03  0.13840269114E+03  0.21290903146E+02  0.19948727958E+03  0.00000000000E+00 0.  1.
<mgrwt>
<rscale>  0 0.29152810E+04</rscale>
<asrwt>0</asrwt>
<pdfrwt beam="1">  1        1 0.33383085E+00 0.29152810E+04</pdfrwt>
<pdfrwt beam="2">  1       -1 0.15064256E+00 0.29152810E+04</pdfrwt>
<totfact> 0.67515967E-01</totfact>
</mgrwt>
</event>
<event>
12    1  0.1442183E-007  0.4001615E+04  0.7818608E-02  0.8004221E-01
         -2   -1    0    0    0  501 -0.00000000000E+00  0.00000000000E+00  0.11320554973E+04  0.11320554973E+04  0.00000000000E+00 0.  1.
          2   -1    0    0  501    0  0.00000000000E+00 -0.00000000000E+00 -0.35362501003E+04  0.35362501003E+04  0.00000000000E+00 0. -1.
         23    2    1    2    0    0  0.15952165596E+04 -0.98057085188E+03 -0.15046009683E+04  0.24040120447E+04  0.95993591281E+02 0.  0.
        254    2    1    2    0    0 -0.15952165596E+04  0.98057085188E+03 -0.89959363463E+03  0.22642935529E+04  0.90084489159E+03 0.  0.
        -24    2    4    4    0    0 -0.16628408895E+04  0.93369671343E+03 -0.95776395998E+03  0.21356110005E+04  0.81811771307E+02 0.  0.
         24    2    4    4    0    0  0.67624329914E+02  0.46874138450E+02  0.58170325343E+02  0.12868255241E+03  0.80032354038E+02 0.  0.
         11    1    3    3    0    0  0.98872664213E+02 -0.67765002487E+02 -0.12717233903E+03  0.17475898576E+03  0.00000000000E+00 0.  1.
        -11    1    3    3    0    0  0.14963438954E+04 -0.91280584939E+03 -0.13774286293E+04  0.22292530589E+04  0.00000000000E+00 0. -1.
          2    1    6    6  502    0  0.48857259032E+02  0.69255778745E+02  0.49780603787E+02  0.98292945642E+02  0.00000000000E+00 0. -1.
          1    1    5    5  503    0 -0.11564086379E+04  0.60686878898E+03 -0.64561933386E+03  0.14568441884E+04  0.00000000000E+00 0. -1.
         -2    1    5    5    0  503 -0.50643225158E+03  0.32682792446E+03 -0.31214462612E+03  0.67876681214E+03  0.00000000000E+00 0.  1.
         -1    1    6    6    0  502  0.18767070882E+02 -0.22381640295E+02  0.83897215565E+01  0.30389606769E+02  0.00000000000E+00 0.  1.
<mgrwt>
<rscale>  0 0.40016154E+04</rscale>
<asrwt>0</asrwt>
<pdfrwt beam="1">  1        2 0.54403846E+00 0.40016154E+04</pdfrwt>
<pdfrwt beam="2">  1       -2 0.17416239E+00 0.40016154E+04</pdfrwt>
<totfact> 0.12019484E-01</totfact>
</mgrwt>
</event>
<event>
12    1  0.1442183E-007  0.2599013E+04  0.7818608E-02  0.8368537E-01
         -1   -1    0    0    0  501 -0.00000000000E+00  0.00000000000E+00  0.69809698046E+03  0.69809698046E+03  0.00000000000E+00 0.  1.
          1   -1    0    0  501    0  0.00000000000E+00 -0.00000000000E+00 -0.24190288517E+04  0.24190288517E+04  0.00000000000E+00 0. -1.
         23    2    1    2    0    0  0.80493833231E+03  0.58456089878E+03 -0.84238827321E+02  0.10024915193E+04  0.90861999792E+02 0.  0.
        254    2    1    2    0    0 -0.80493833231E+03 -0.58456089878E+03 -0.16366930439E+04  0.21146343128E+04  0.89625721415E+03 0.  0.
        -24    2    4    4    0    0 -0.40073218906E+03  0.85666708177E+02 -0.17111288232E+03  0.45122718742E+03  0.80008024184E+02 0.  0.
         24    2    4    4    0    0 -0.40420614325E+03 -0.67022760695E+03 -0.14655801616E+04  0.16634071254E+04  0.80064995678E+02 0.  0.
         13    1    3    3    0    0  0.50718268438E+03  0.37888422453E+03 -0.96541963749E+02  0.64039665965E+03  0.00000000000E+00 0.  1.
        -13    1    3    3    0    0  0.29775564793E+03  0.20567667425E+03  0.12303136429E+02  0.36209485963E+03  0.00000000000E+00 0. -1.
          4    1    6    6  502    0 -0.18205305723E+03 -0.26194837960E+03 -0.66832831648E+03  0.74055587759E+03  0.00000000000E+00 0. -1.
          3    1    5    5  503    0 -0.29733012936E+02  0.22713333282E+02 -0.34500290757E+02  0.50894180702E+02  0.00000000000E+00 0. -1.
         -4    1    5    5    0  503 -0.37099917612E+03  0.62953374895E+02 -0.13661259156E+03  0.40033300672E+03  0.00000000000E+00 0.  1.
         -1    1    6    6    0  502 -0.22215308602E+03 -0.40827922735E+03 -0.79725184508E+03  0.92285124782E+03  0.00000000000E+00 0.  1.
<mgrwt>
<rscale>  0 0.25990127E+04</rscale>
<asrwt>0</asrwt>
<pdfrwt beam="1">  1        1 0.37215828E+00 0.25990127E+04</pdfrwt>
<pdfrwt beam="2">  1       -1 0.10739954E+00 0.25990127E+04</pdfrwt>
<totfact> 0.10959046E+00</totfact>
</mgrwt>
</event>
<event>
12    1  0.1442183E-007  0.3243379E+04  0.7818608E-02  0.8177454E-01
         -1   -1    0    0    0  501 -0.00000000000E+00  0.00000000000E+00  0.26052318254E+04  0.26052318254E+04  0.00000000000E+00 0.  1.
          1   -1    0    0  501    0  0.00000000000E+00 -0.00000000000E+00 -0.10094598806E+04  0.10094598806E+04  0.00000000000E+00 0. -1.
         23    2    1    2    0    0  0.71188713716E+03 -0.64167114848E+03 -0.53722844606E+03  0.11025889190E+04  0.92535194153E+02 0.  0.
        254    2    1    2    0    0 -0.71188713716E+03  0.64167114848E+03  0.21330003908E+04  0.25121027871E+04  0.91784780152E+03 0.  0.
        -24    2    4    4    0    0 -0.90385457534E+02 -0.46099350675E+02  0.11553506026E+04  0.11625645373E+04  0.80166124337E+02 0.  0.
         24    2    4    4    0    0 -0.62150167962E+03  0.68777049916E+03  0.97764978824E+03  0.13495382498E+04  0.78497017986E+02 0.  0.
         11    1    3    3    0    0  0.38680345579E+03 -0.28771350422E+03 -0.25805471355E+03  0.54679814293E+03  0.00000000000E+00 0. -1.
        -11    1    3    3    0    0  0.32508368137E+03 -0.35395764427E+03 -0.27917373250E+03  0.55579077605E+03  0.00000000000E+00 0.  1.
          2    1    6    6  502    0 -0.44179527892E+03  0.44107441748E+03  0.62998545831E+03  0.88691114995E+03  0.00000000000E+00 0. -1.
          1    1    5    5  503    0 -0.62879974219E+02 -0.53891381204E+02  0.10543125850E+04  0.10575600215E+04  0.00000000000E+00 0. -1.
         -4    1    5    5    0  503 -0.27505483316E+02  0.77920305285E+01  0.10103801753E+03  0.10500451580E+03  0.00000000000E+00 0.  1.
         -1    1    6    6    0  502 -0.17970640071E+03  0.24669608168E+03  0.34766432994E+03  0.46262709981E+03  0.00000000000E+00 0.  1.
<mgrwt>
<rscale>  0 0.32433791E+04</rscale>
<asrwt>0</asrwt>
<pdfrwt beam="1">  1        1 0.15530152E+00 0.32433791E+04</pdfrwt>
<pdfrwt beam="2">  1       -1 0.40080489E+00 0.32433791E+04</pdfrwt>
<totfact> 0.87512303E-02</totfact>
</mgrwt>
</event>
<event>
12    1  0.1442183E-007  0.1456472E+04  0.7818608E-02  0.8913926E-01
          1   -1    0    0  501    0  0.00000000000E+00  0.00000000000E+00  0.55416040832E+03  0.55416040832E+03  0.00000000000E+00 0. -1.
         -1   -1    0    0    0  501 -0.00000000000E+00 -0.00000000000E+00 -0.95699247673E+03  0.95699247673E+03  0.00000000000E+00 0.  1.
         23    2    1    2    0    0 -0.34363219931E+03  0.11240294358E+03  0.13728561890E+03  0.39699771879E+03  0.89679080238E+02 0.  0.
        254    2    1    2    0    0  0.34363219931E+03 -0.11240294358E+03 -0.54011768731E+03  0.11141551663E+04  0.90492933880E+03 0.  0.
        -24    2    4    4    0    0  0.60981463929E+03 -0.14961643010E+02 -0.16387339253E+03  0.63645907251E+03  0.78281013969E+02 0.  0.
         24    2    4    4    0    0 -0.26618243997E+03 -0.97441300572E+02 -0.37624429479E+03  0.47769609375E+03  0.79283606248E+02 0.  0.
         11    1    3    3    0    0 -0.71983113292E+02  0.37797532493E+02  0.70190680069E+02  0.10741021195E+03  0.00000000000E+00 0. -1.
        -11    1    3    3    0    0 -0.27164908602E+03  0.74605411089E+02  0.67094938831E+02  0.28958750684E+03  0.00000000000E+00 0.  1.
          4    1    6    6  502    0 -0.16080788008E+01 -0.15979330099E+02 -0.33231869630E+02  0.36909105474E+02  0.00000000000E+00 0. -1.
          1    1    5    5  503    0  0.40667583568E+03  0.73684133650E+01 -0.14249849729E+03  0.43098184482E+03  0.00000000000E+00 0. -1.
         -2    1    5    5    0  503  0.20313880361E+03 -0.22330056375E+02 -0.21374895243E+02  0.20547722769E+03  0.00000000000E+00 0.  1.
         -3    1    6    6    0  502 -0.26457436117E+03 -0.81461970473E+02 -0.34301242516E+03  0.44078698828E+03  0.00000000000E+00 0.  1.
<mgrwt>
<rscale>  0 0.14564715E+04</rscale>
<asrwt>0</asrwt>
<pdfrwt beam="1">  1        1 0.85255449E-01 0.14564715E+04</pdfrwt>
<pdfrwt beam="2">  1       -1 0.14722961E+00 0.14564715E+04</pdfrwt>
<totfact> 0.13668042E+01</totfact>
</mgrwt>
</event>
<event>
12    1  0.1848974E-007  0.1735466E+04  0.7818608E-02  0.8741392E-01
         -2   -1    0    0    0  501 -0.00000000000E+00  0.00000000000E+00  0.73568791575E+03  0.73568791575E+03  0.00000000000E+00 0.  1.
          2   -1    0    0  501    0  0.00000000000E+00 -0.00000000000E+00 -0.10234778965E+04  0.10234778965E+04  0.00000000000E+00 0. -1.
         23    2    1    2    0    0  0.19739395859E+02 -0.62529819348E+03 -0.25717999083E+02  0.63278634633E+03  0.91485901143E+02 0.  0.
        254    2    1    2    0    0 -0.19739395859E+02  0.62529819348E+03 -0.26207198171E+03  0.11263794660E+04  0.89925608322E+03 0.  0.
        -24    2    4    4    0    0 -0.20219775657E+03  0.76077004000E+03 -0.35641619760E+03  0.86794738010E+03  0.81517864250E+02 0.  0.
         24    2    4    4    0    0  0.18245836071E+03 -0.13547184652E+03  0.94344215889E+02  0.25843208585E+03  0.79010362184E+02 0.  0.
         11    1    3    3    0    0  0.75380018321E+01 -0.78936036176E+02  0.26964772578E+02  0.83754511753E+02  0.00000000000E+00 0.  1.
        -11    1    3    3    0    0  0.12201394026E+02 -0.54636215731E+03 -0.52682771662E+02  0.54903183458E+03  0.00000000000E+00 0. -1.
          4    1    6    6  502    0  0.18504520663E+03 -0.14044542642E+03  0.84680227442E+02  0.24725975657E+03  0.00000000000E+00 0. -1.
          1    1    5    5  503    0 -0.18134149203E+03  0.69603771403E+03 -0.29900711494E+03  0.77894703984E+03  0.00000000000E+00 0. -1.
         -2    1    5    5    0  503 -0.20856264533E+02  0.64732325969E+02 -0.57409082654E+02  0.89000340262E+02  0.00000000000E+00 0.  1.
         -3    1    6    6    0  502 -0.25868459209E+01  0.49735799002E+01  0.96639884463E+01  0.11172329280E+02  0.00000000000E+00 0.  1.
<mgrwt>
<rscale>  0 0.17354657E+04</rscale>
<asrwt>0</asrwt>
<pdfrwt beam="1">  1        2 0.15745814E+00 0.17354657E+04</pdfrwt>
<pdfrwt beam="2">  1       -2 0.11318276E+00 0.17354657E+04</pdfrwt>
<totfact> 0.14155306E+01</totfact>
</mgrwt>
</event>
<event>
12    1  0.1442183E-007  0.1451290E+04  0.7818608E-02  0.8917507E-01
         -2   -1    0    0    0  501 -0.00000000000E+00  0.00000000000E+00  0.77032672098E+03  0.77032672098E+03  0.00000000000E+00 0. -1.
          2   -1    0    0  501    0  0.00000000000E+00 -0.00000000000E+00 -0.68355493893E+03  0.68355493893E+03  0.00000000000E+00 0.  1.
         23    2    1    2    0    0  0.20234868171E+03  0.93419683498E+02 -0.34704722091E+03  0.42612138784E+03  0.10707678264E+03 0.  0.
        254    2    1    2    0    0 -0.20234868171E+03 -0.93419683498E+02  0.43381900296E+03  0.10277602721E+04  0.90466569697E+03 0.  0.
        -24    2    4    4    0    0 -0.50057851233E+03 -0.21852780989E+03  0.10947533291E+03  0.56266347526E+03  0.79196509836E+02 0.  0.
         24    2    4    4    0    0  0.29822983062E+03  0.12510812640E+03  0.32434367005E+03  0.46509679681E+03  0.80765951629E+02 0.  0.
         13    1    3    3    0    0  0.89951159941E+02  0.51507934544E+02 -0.72446150476E+02  0.12646233912E+03  0.00000000000E+00 0. -1.
        -13    1    3    3    0    0  0.11239752177E+03  0.41911748954E+02 -0.27460107043E+03  0.29965904873E+03  0.00000000000E+00 0.  1.
          4    1    6    6  502    0  0.80008576728E+02  0.51792023115E+02  0.52279872264E+02  0.10870589245E+03  0.00000000000E+00 0. -1.
          1    1    5    5  503    0 -0.93965393261E+02 -0.75932618111E+02  0.30386942484E+02  0.12457376890E+03  0.00000000000E+00 0. -1.
         -2    1    5    5    0  503 -0.40661311907E+03 -0.14259519178E+03  0.79088390426E+02  0.43808970636E+03  0.00000000000E+00 0.  1.
         -3    1    6    6    0  502  0.21822125389E+03  0.73316103281E+02  0.27206379779E+03  0.35639090437E+03  0.00000000000E+00 0.  1.
<mgrwt>
<rscale>  0 0.14512900E+04</rscale>
<asrwt>0</asrwt>
<pdfrwt beam="1">  1        2 0.10516230E+00 0.14512900E+04</pdfrwt>
<pdfrwt beam="2">  1       -2 0.11851180E+00 0.14512900E+04</pdfrwt>
<totfact> 0.22422503E+01</totfact>
</mgrwt>
</event>
<event>
12    1  0.1442183E-007  0.1595119E+04  0.7818608E-02  0.8823552E-01
         -2   -1    0    0    0  501 -0.00000000000E+00  0.00000000000E+00  0.73325064631E+03  0.73325064631E+03  0.00000000000E+00 0.  1.
          2   -1    0    0  501    0  0.00000000000E+00 -0.00000000000E+00 -0.86750815201E+03  0.86750815201E+03  0.00000000000E+00 0. -1.
         23    2    1    2    0    0  0.20622296627E+03 -0.33547251943E+03  0.32066849691E+03  0.51606757642E+03  0.91802698274E+02 0.  0.
        254    2    1    2    0    0 -0.20622296627E+03  0.33547251943E+03 -0.45492600261E+03  0.10846912219E+04  0.90251185914E+03 0.  0.
        -24    2    4    4    0    0  0.35138365240E+03  0.16200503071E+03 -0.17755331976E+03  0.43317567486E+03  0.79999267411E+02 0.  0.
         24    2    4    4    0    0 -0.55760661868E+03  0.17346748872E+03 -0.27737268285E+03  0.65151554703E+03  0.80751421025E+02 0.  0.
         11    1    3    3    0    0  0.10918051292E+03 -0.17872967757E+03  0.11155624247E+03  0.23729618050E+03  0.00000000000E+00 0. -1.
        -11    1    3    3    0    0  0.97042453358E+02 -0.15674284186E+03  0.20911225444E+03  0.27877139592E+03  0.00000000000E+00 0.  1.
          2    1    6    6  502    0 -0.87657976919E+02  0.41033200728E+02 -0.17311322285E+02  0.98322562816E+02  0.00000000000E+00 0. -1.
          1    1    5    5  503    0  0.33458545541E+02  0.46228200011E+01  0.51130699587E+01  0.34161209271E+02  0.00000000000E+00 0. -1.
         -2    1    5    5    0  503  0.31792510686E+03  0.15738221071E+03 -0.18266638972E+03  0.39901446559E+03  0.00000000000E+00 0.  1.
         -1    1    6    6    0  502 -0.46994864176E+03  0.13243428799E+03 -0.26006136057E+03  0.55319298422E+03  0.00000000000E+00 0.  1.
<mgrwt>
<rscale>  0 0.15951187E+04</rscale>
<asrwt>0</asrwt>
<pdfrwt beam="1">  1        2 0.13346279E+00 0.15951187E+04</pdfrwt>
<pdfrwt beam="2">  1       -2 0.11280779E+00 0.15951187E+04</pdfrwt>
<totfact> 0.18297264E+01</totfact>
</mgrwt>
</event>
<event>
12    1  0.1442183E-007  0.1439333E+04  0.7818608E-02  0.8925829E-01
          2   -1    0    0  501    0  0.00000000000E+00  0.00000000000E+00  0.20635303231E+04  0.20635303231E+04  0.00000000000E+00 0. -1.
         -2   -1    0    0    0  501 -0.00000000000E+00 -0.00000000000E+00 -0.25098741426E+03  0.25098741426E+03  0.00000000000E+00 0.  1.
         23    2    1    2    0    0  0.38168953052E+03  0.22713818469E+03  0.57930793626E+03  0.73526133314E+03  0.87936854288E+02 0.  0.
        254    2    1    2    0    0 -0.38168953052E+03 -0.22713818469E+03  0.12332349725E+04  0.15792564042E+04  0.88085392661E+03 0.  0.
        -24    2    4    4    0    0  0.73635060847E+02  0.41750180584E+01 -0.10118894283E+03  0.14829304225E+03  0.79448544783E+02 0.  0.
         24    2    4    4    0    0 -0.45532459137E+03 -0.23131320274E+03  0.13344239154E+04  0.14309633619E+04  0.78375225826E+02 0.  0.
         13    1    3    3    0    0  0.60200195148E+01  0.40877463074E+01  0.42568549513E+02  0.43186012926E+02  0.00000000000E+00 0. -1.
        -13    1    3    3    0    0  0.37566951101E+03  0.22305043838E+03  0.53673938675E+03  0.69207532021E+03  0.00000000000E+00 0.  1.
          4    1    6    6  502    0 -0.31419535105E+03 -0.12231245262E+03  0.91832801890E+03  0.97826653064E+03  0.00000000000E+00 0. -1.
          3    1    5    5  503    0  0.67785933696E+02  0.13836740064E+02 -0.11265240867E+03  0.13220042875E+03  0.00000000000E+00 0. -1.
         -4    1    5    5    0  503  0.58491271506E+01 -0.96617220052E+01  0.11463465835E+02  0.16092613507E+02  0.00000000000E+00 0.  1.
         -3    1    6    6    0  502 -0.14112924031E+03 -0.10900075012E+03  0.41609589648E+03  0.45269683130E+03  0.00000000000E+00 0.  1.
<mgrwt>
<rscale>  0 0.14393334E+04</rscale>
<asrwt>0</asrwt>
<pdfrwt beam="1">  1        2 0.31746619E+00 0.14393334E+04</pdfrwt>
<pdfrwt beam="2">  1       -2 0.38613450E-01 0.14393334E+04</pdfrwt>
<totfact> 0.37898737E+01</totfact>
</mgrwt>
</event>
<event>
12    1  0.1442183E-007  0.1391787E+04  0.7818608E-02  0.8959785E-01
          2   -1    0    0  501    0  0.00000000000E+00  0.00000000000E+00  0.49615160510E+03  0.49615160510E+03  0.00000000000E+00 0. -1.
         -2   -1    0    0    0  501 -0.00000000000E+00 -0.00000000000E+00 -0.97604797974E+03  0.97604797974E+03  0.00000000000E+00 0.  1.
         23    2    1    2    0    0 -0.22481271400E+03  0.32967445318E+03 -0.13359687242E+03  0.43050469991E+03  0.90885482171E+02 0.  0.
        254    2    1    2    0    0  0.22481271400E+03 -0.32967445318E+03 -0.34629950222E+03  0.10416948849E+04  0.89776326867E+03 0.  0.
        -24    2    4    4    0    0 -0.31534922091E+03 -0.14078532491E+03  0.23775316425E+02  0.35533139635E+03  0.80184142552E+02 0.  0.
         24    2    4    4    0    0  0.54016193492E+03 -0.18888912827E+03 -0.37007481865E+03  0.68636348858E+03  0.81764591020E+02 0.  0.
         13    1    3    3    0    0 -0.71287740914E+02  0.13323227220E+03 -0.79465818012E+01  0.15131400637E+03  0.00000000000E+00 0. -1.
        -13    1    3    3    0    0 -0.15352497309E+03  0.19644218098E+03 -0.12565029062E+03  0.27919069354E+03  0.00000000000E+00 0.  1.
          4    1    6    6  502    0  0.53000513473E+03 -0.18435400784E+03 -0.34446821513E+03  0.65844528572E+03  0.00000000000E+00 0. -1.
          3    1    5    5  503    0 -0.19361434633E+03 -0.45519498504E+02  0.27001700309E+02  0.20071779111E+03  0.00000000000E+00 0. -1.
         -4    1    5    5    0  503 -0.12173487459E+03 -0.95265826409E+02 -0.32263838833E+01  0.15461360524E+03  0.00000000000E+00 0.  1.
         -3    1    6    6    0  502  0.10156800188E+02 -0.45351204217E+01 -0.25606603516E+02  0.27918202860E+02  0.00000000000E+00 0.  1.
<mgrwt>
<rscale>  0 0.13917870E+04</rscale>
<asrwt>0</asrwt>
<pdfrwt beam="1">  1        2 0.76331017E-01 0.13917870E+04</pdfrwt>
<pdfrwt beam="2">  1       -2 0.15016123E+00 0.13917870E+04</pdfrwt>
<totfact> 0.18062976E+01</totfact>
</mgrwt>
</event>
<event>
12    1  0.1442183E-007  0.2599968E+04  0.7818608E-02  0.8368212E-01
         -2   -1    0    0    0  501 -0.00000000000E+00  0.00000000000E+00  0.55682740079E+03  0.55682740079E+03  0.00000000000E+00 0.  1.
          2   -1    0    0  501    0  0.00000000000E+00 -0.00000000000E+00 -0.30349767240E+04  0.30349767240E+04  0.00000000000E+00 0. -1.
         23    2    1    2    0    0  0.25882896572E+03 -0.79145731800E+03 -0.21719837033E+04  0.23278981606E+04  0.90551194319E+02 0.  0.
        254    2    1    2    0    0 -0.25882896572E+03  0.79145731800E+03 -0.30616561987E+03  0.12639059642E+04  0.90017985972E+03 0.  0.
        -24    2    4    4    0    0 -0.99034166006E+02  0.32658204407E+03  0.31253385994E+03  0.46949140552E+03  0.79253824502E+02 0.  0.
         24    2    4    4    0    0 -0.15979479972E+03  0.46487527393E+03 -0.61869947981E+03  0.79441455868E+03  0.81621360018E+02 0.  0.
         11    1    3    3    0    0  0.22908123741E+03 -0.71357676072E+03 -0.20200707763E+04  0.21546127141E+04  0.00000000000E+00 0. -1.
        -11    1    3    3    0    0  0.29747728310E+02 -0.77880557276E+02 -0.15191292705E+03  0.17328544643E+03  0.00000000000E+00 0.  1.
          4    1    6    6  502    0 -0.14714296195E+03  0.31894462419E+03 -0.41894715509E+03  0.54671148086E+03  0.00000000000E+00 0. -1.
          3    1    5    5  503    0 -0.91315740523E+02  0.28093722685E+03  0.30109012506E+03  0.42180511295E+03  0.00000000000E+00 0. -1.
         -4    1    5    5    0  503 -0.77184254827E+01  0.45644817221E+02  0.11443734877E+02  0.47686292569E+02  0.00000000000E+00 0.  1.
         -3    1    6    6    0  502 -0.12651837767E+02  0.14593064973E+03 -0.19975232472E+03  0.24770307782E+03  0.00000000000E+00 0.  1.
<mgrwt>
<rscale>  0 0.25999678E+04</rscale>
<asrwt>0</asrwt>
<pdfrwt beam="1">  1        2 0.46691949E+00 0.25999678E+04</pdfrwt>
<pdfrwt beam="2">  1       -2 0.85665755E-01 0.25999678E+04</pdfrwt>
<totfact> 0.17328107E+00</totfact>
</mgrwt>
</event>
<event>
12    1  0.2268048E-007  0.2172622E+04  0.7818608E-02  0.8529911E-01
         -2   -1    0    0    0  501 -0.00000000000E+00  0.00000000000E+00  0.53216581990E+03  0.53216581990E+03  0.00000000000E+00 0.  1.
          2   -1    0    0  501    0  0.00000000000E+00 -0.00000000000E+00 -0.22174883369E+04  0.22174883369E+04  0.00000000000E+00 0. -1.
         23    2    1    2    0    0 -0.29670616494E+02  0.12753906655E+03  0.41075741499E+03  0.44075691547E+03  0.91643033466E+02 0.  0.
        254    2    1    2    0    0  0.29670616494E+02 -0.12753906655E+03 -0.20960799320E+04  0.23088972413E+04  0.95932728030E+03 0.  0.
        -24    2    4    4    0    0 -0.16137083056E+03  0.23368318092E+02 -0.20375493455E+04  0.20455735720E+04  0.78595674075E+02 0.  0.
         24    2    4    4    0    0  0.19104144705E+03 -0.15090738464E+03 -0.58530586451E+02  0.26332366926E+03  0.81508600845E+02 0.  0.
         13    1    3    3    0    0 -0.10976144998E+02  0.13727541382E+03  0.33715054990E+03  0.36419158186E+03  0.00000000000E+00 0.  1.
        -13    1    3    3    0    0 -0.18694471497E+02 -0.97363472637E+01  0.73606865085E+02  0.76565333606E+02  0.00000000000E+00 0. -1.
          4    1    6    6  502    0  0.15089534202E+03 -0.87908330005E+02 -0.11423478027E+02  0.17500792718E+03  0.00000000000E+00 0. -1.
          3    1    5    5  503    0 -0.10783531098E+03 -0.13487500377E+02 -0.15343856956E+04  0.15382294464E+04  0.00000000000E+00 0. -1.
         -4    1    5    5    0  503 -0.53535519575E+02  0.36855818469E+02 -0.50316364996E+03  0.50734412567E+03  0.00000000000E+00 0.  1.
         -3    1    6    6    0  502  0.40146105035E+02 -0.62999054640E+02 -0.47107108425E+02  0.88315742080E+02  0.00000000000E+00 0.  1.
<mgrwt>
<rscale>  0 0.21726219E+04</rscale>
<asrwt>0</asrwt>
<pdfrwt beam="1">  1        2 0.34115205E+00 0.21726219E+04</pdfrwt>
<pdfrwt beam="2">  1       -2 0.81871665E-01 0.21726219E+04</pdfrwt>
<totfact> 0.60666952E+00</totfact>
</mgrwt>
</event>
<event>
12    1  0.1442183E-007  0.1903388E+04  0.7818608E-02  0.8653172E-01
         -1   -1    0    0    0  501 -0.00000000000E+00  0.00000000000E+00  0.14122650692E+04  0.14122650692E+04  0.00000000000E+00 0.  1.
          1   -1    0    0  501    0  0.00000000000E+00 -0.00000000000E+00 -0.64132539465E+03  0.64132539465E+03  0.00000000000E+00 0. -1.
         23    2    1    2    0    0  0.50217292060E+03 -0.53566787701E+03  0.35372822632E+03  0.82015850618E+03  0.91752931969E+02 0.  0.
        254    2    1    2    0    0 -0.50217292060E+03  0.53566787701E+03  0.41721144825E+03  0.12334319577E+04  0.89898347320E+03 0.  0.
        -24    2    4    4    0    0 -0.21240510906E+03  0.68115124356E+03  0.25846320518E+02  0.71844155306E+03  0.80045524061E+02 0.  0.
         24    2    4    4    0    0 -0.28976781154E+03 -0.14548336655E+03  0.39136512774E+03  0.51499040464E+03  0.83172466105E+02 0.  0.
         13    1    3    3    0    0  0.13017146716E+03 -0.17125522059E+03  0.64981463185E+02  0.22471215365E+03  0.00000000000E+00 0. -1.
        -13    1    3    3    0    0  0.37200145344E+03 -0.36441265643E+03  0.28874676314E+03  0.59544635253E+03  0.00000000000E+00 0.  1.
          2    1    6    6  502    0 -0.11947396835E+03 -0.64548961997E+02  0.10293417345E+03  0.17039965279E+03  0.00000000000E+00 0. -1.
          3    1    5    5  503    0 -0.43920186448E+02  0.92789072830E+02 -0.20474020537E+02  0.10468037223E+03  0.00000000000E+00 0. -1.
         -4    1    5    5    0  503 -0.16848492261E+03  0.58836217073E+03  0.46320341055E+02  0.61376118083E+03  0.00000000000E+00 0.  1.
         -1    1    6    6    0  502 -0.17029384319E+03 -0.80934404552E+02  0.28843095429E+03  0.34459075185E+03  0.00000000000E+00 0.  1.
<mgrwt>
<rscale>  0 0.19033880E+04</rscale>
<asrwt>0</asrwt>
<pdfrwt beam="1">  1        1 0.98665446E-01 0.19033880E+04</pdfrwt>
<pdfrwt beam="2">  1       -1 0.21727155E+00 0.19033880E+04</pdfrwt>
<totfact> 0.33353932E+00</totfact>
</mgrwt>
</event>
<event>
12    1  0.1442183E-007  0.1499092E+04  0.7818608E-02  0.8885057E-01
          1   -1    0    0  501    0  0.00000000000E+00  0.00000000000E+00  0.36269350120E+04  0.36269350120E+04  0.00000000000E+00 0. -1.
         -1   -1    0    0    0  501 -0.00000000000E+00 -0.00000000000E+00 -0.15490189563E+03  0.15490189563E+03  0.00000000000E+00 0.  1.
         23    2    1    2    0    0  0.16405576499E+03 -0.36547568621E+03  0.47520680998E+03  0.62782816922E+03  0.88656226970E+02 0.  0.
        254    2    1    2    0    0 -0.16405576499E+03  0.36547568621E+03  0.29968263064E+04  0.31540087384E+04  0.89795124590E+03 0.  0.
        -24    2    4    4    0    0 -0.11693714411E+03  0.62531031392E+02  0.27449043092E+04  0.27492346070E+04  0.78783447625E+02 0.  0.
         24    2    4    4    0    0 -0.47118620874E+02  0.30294465482E+03  0.25192199714E+03  0.40477413144E+03  0.79886022086E+02 0.  0.
         13    1    3    3    0    0  0.12459835613E+03 -0.20956079213E+03  0.33590598540E+03  0.41505819709E+03  0.00000000000E+00 0. -1.
        -13    1    3    3    0    0  0.39457408852E+02 -0.15591489408E+03  0.13930082458E+03  0.21276997213E+03  0.00000000000E+00 0.  1.
          2    1    6    6  502    0 -0.22465067089E+02  0.35105614907E+02  0.96567704813E+01  0.42782433935E+02  0.00000000000E+00 0. -1.
          1    1    5    5  503    0 -0.17074915684E+02 -0.14588825222E+02  0.21122977511E+03  0.21242034851E+03  0.00000000000E+00 0. -1.
         -2    1    5    5    0  503 -0.99862228428E+02  0.77119856614E+02  0.25336745341E+04  0.25368142584E+04  0.00000000000E+00 0.  1.
         -1    1    6    6    0  502 -0.24653553785E+02  0.26783903991E+03  0.24226522666E+03  0.36199169750E+03  0.00000000000E+00 0.  1.
<mgrwt>
<rscale>  0 0.14990919E+04</rscale>
<asrwt>0</asrwt>
<pdfrwt beam="1">  1        1 0.55798994E+00 0.14990919E+04</pdfrwt>
<pdfrwt beam="2">  1       -1 0.23831063E-01 0.14990919E+04</pdfrwt>
<totfact> 0.29501796E+00</totfact>
</mgrwt>
</event>
<event>
12    1  0.1442183E-007  0.1548291E+04  0.7818608E-02  0.8852960E-01
         -2   -1    0    0    0  501 -0.00000000000E+00  0.00000000000E+00  0.20139745527E+03  0.20139745527E+03  0.00000000000E+00 0. -1.
          2   -1    0    0  501    0  0.00000000000E+00 -0.00000000000E+00 -0.29757158859E+04  0.29757158859E+04  0.00000000000E+00 0.  1.
         23    2    1    2    0    0  0.27952883221E+03 -0.35883140436E+03 -0.62888847807E+03  0.78147476940E+03  0.91135901629E+02 0.  0.
        254    2    1    2    0    0 -0.27952883221E+03  0.35883140436E+03 -0.21454299525E+04  0.23956385717E+04  0.96401148355E+03 0.  0.
        -24    2    4    4    0    0 -0.53220881746E+03  0.33164606459E+03 -0.19891257354E+04  0.20871547147E+04  0.79738787481E+02 0.  0.
         24    2    4    4    0    0  0.25267998525E+03  0.27185339774E+02 -0.15630421707E+03  0.30848385701E+03  0.78390459340E+02 0.  0.
         13    1    3    3    0    0  0.57342181281E+02 -0.73348276928E+02 -0.19847126576E+03  0.21922349056E+03  0.00000000000E+00 0.  1.
        -13    1    3    3    0    0  0.22218665093E+03 -0.28548312744E+03 -0.43041721232E+03  0.56225127884E+03  0.00000000000E+00 0. -1.
          4    1    6    6  502    0  0.62382468409E+02  0.17021885304E+02 -0.44579212998E+01  0.64816587432E+02  0.00000000000E+00 0. -1.
          1    1    5    5  503    0 -0.48465914921E+02  0.58114730205E+01 -0.14520349269E+03  0.15318868241E+03  0.00000000000E+00 0. -1.
         -2    1    5    5    0  503 -0.48374290254E+03  0.32583459157E+03 -0.18439222428E+04  0.19339660323E+04  0.00000000000E+00 0.  1.
         -3    1    6    6    0  502  0.19029751685E+03  0.10163454470E+02 -0.15184629577E+03  0.24366726958E+03  0.00000000000E+00 0.  1.
<mgrwt>
<rscale>  0 0.15482915E+04</rscale>
<asrwt>0</asrwt>
<pdfrwt beam="1">  1        2 0.45780239E+00 0.15482915E+04</pdfrwt>
<pdfrwt beam="2">  1       -2 0.30984228E-01 0.15482915E+04</pdfrwt>
<totfact> 0.16863601E+01</totfact>
</mgrwt>
</event>
<event>
12    1  0.1442183E-007  0.1704998E+04  0.7818608E-02  0.8758519E-01
          2   -1    0    0  501    0  0.00000000000E+00  0.00000000000E+00  0.17282519178E+04  0.17282519178E+04  0.00000000000E+00 0.  1.
         -2   -1    0    0    0  501 -0.00000000000E+00 -0.00000000000E+00 -0.42051434879E+03  0.42051434879E+03  0.00000000000E+00 0. -1.
         23    2    1    2    0    0 -0.59245408444E+03  0.33581806443E+02  0.30014785243E+03  0.67117506061E+03  0.90871606022E+02 0.  0.
        254    2    1    2    0    0  0.59245408444E+03 -0.33581806443E+02  0.10075897166E+04  0.14775912060E+04  0.90327689835E+03 0.  0.
        -24    2    4    4    0    0  0.34761322807E+03  0.22748318358E+03  0.10274507276E+04  0.11109910971E+04  0.77863116778E+02 0.  0.
         24    2    4    4    0    0  0.24484085637E+03 -0.26106499002E+03 -0.19861011021E+02  0.36660010891E+03  0.76806289658E+02 0.  0.
         11    1    3    3    0    0 -0.56643833293E+03  0.47410172904E+02  0.29757507932E+03  0.64160037199E+03  0.00000000000E+00 0. -1.
        -11    1    3    3    0    0 -0.26015751515E+02 -0.13828366461E+02  0.25727731028E+01  0.29574688625E+02  0.00000000000E+00 0.  1.
          2    1    6    6  502    0  0.21598743752E+02 -0.56221842523E+02 -0.20490240929E+02  0.63618010671E+02  0.00000000000E+00 0. -1.
          3    1    5    5  503    0  0.14325659040E+03  0.11174870555E+03  0.35656310781E+03  0.40018429971E+03  0.00000000000E+00 0. -1.
         -4    1    5    5    0  503  0.20435663767E+03  0.11573447803E+03  0.67088761979E+03  0.71080679734E+03  0.00000000000E+00 0.  1.
         -1    1    6    6    0  502  0.22324211262E+03 -0.20484314750E+03  0.62922990780E+00  0.30298209824E+03  0.00000000000E+00 0.  1.
<mgrwt>
<rscale>  0 0.17049982E+04</rscale>
<asrwt>0</asrwt>
<pdfrwt beam="1">  1        2 0.26588491E+00 0.17049982E+04</pdfrwt>
<pdfrwt beam="2">  1       -2 0.64694516E-01 0.17049982E+04</pdfrwt>
<totfact> 0.19838667E+01</totfact>
</mgrwt>
</event>
<event>
12    1  0.1442183E-007  0.3021231E+04  0.7818608E-02  0.8237694E-01
          1   -1    0    0  501    0  0.00000000000E+00  0.00000000000E+00  0.24389651448E+04  0.24389651448E+04  0.00000000000E+00 0. -1.
         -1   -1    0    0    0  501 -0.00000000000E+00 -0.00000000000E+00 -0.93562571508E+03  0.93562571508E+03  0.00000000000E+00 0.  1.
         23    2    1    2    0    0 -0.47024560871E+03 -0.17599146881E+03 -0.74294015776E+03  0.90125699485E+03  0.90554752226E+02 0.  0.
        254    2    1    2    0    0  0.47024560871E+03  0.17599146881E+03  0.22462795875E+04  0.24733338650E+04  0.90526487459E+03 0.  0.
        -24    2    4    4    0    0  0.71394258754E+02  0.31890656673E+03  0.18729518985E+04  0.19030026786E+04  0.81681345795E+02 0.  0.
         24    2    4    4    0    0  0.39885134996E+03 -0.14291509792E+03  0.37332768898E+03  0.57033118641E+03  0.79981086873E+02 0.  0.
         13    1    3    3    0    0 -0.11745360683E+02  0.32792622650E+01 -0.30821808841E+01  0.12578032341E+02  0.00000000000E+00 0. -1.
        -13    1    3    3    0    0 -0.45850024803E+03 -0.17927073107E+03 -0.73985797688E+03  0.88867896251E+03  0.00000000000E+00 0.  1.
          2    1    6    6  502    0  0.26867668614E+03 -0.12656587900E+03  0.22708478285E+03  0.37386305247E+03  0.00000000000E+00 0. -1.
          1    1    5    5  503    0  0.62719492307E+02  0.27543461630E+03  0.17418930889E+04  0.17646499640E+04  0.00000000000E+00 0. -1.
         -2    1    5    5    0  503  0.86747664467E+01  0.43471950423E+02  0.13105880963E+03  0.13835271456E+03  0.00000000000E+00 0.  1.
         -1    1    6    6    0  502  0.13017466382E+03 -0.16349218915E+02  0.14624290613E+03  0.19646813394E+03  0.00000000000E+00 0.  1.
<mgrwt>
<rscale>  0 0.30212305E+04</rscale>
<asrwt>0</asrwt>
<pdfrwt beam="1">  1        1 0.37522540E+00 0.30212305E+04</pdfrwt>
<pdfrwt beam="2">  1       -1 0.14394242E+00 0.30212305E+04</pdfrwt>
<totfact> 0.49404062E-01</totfact>
</mgrwt>
</event>
<event>
12    1  0.1442183E-007  0.1967463E+04  0.7818608E-02  0.8621986E-01
          1   -1    0    0  501    0  0.00000000000E+00  0.00000000000E+00  0.97284732540E+03  0.97284732540E+03  0.00000000000E+00 0. -1.
         -1   -1    0    0    0  501 -0.00000000000E+00 -0.00000000000E+00 -0.99473695142E+03  0.99473695142E+03  0.00000000000E+00 0.  1.
         23    2    1    2    0    0  0.38740449212E+03 -0.67128618202E+03  0.80449843387E+01  0.78026402225E+03  0.89665176929E+02 0.  0.
        254    2    1    2    0    0 -0.38740449212E+03  0.67128618202E+03 -0.29934610352E+02  0.11873202546E+04  0.89895824560E+03 0.  0.
        -24    2    4    4    0    0  0.26995596112E+03  0.35144520401E+03 -0.36846913491E+02  0.45176019500E+03  0.79621770764E+02 0.  0.
         24    2    4    4    0    0 -0.65736045324E+03  0.31984097800E+03  0.69123031391E+01  0.73556005958E+03  0.81115994810E+02 0.  0.
         11    1    3    3    0    0  0.18752172310E+03 -0.32092126299E+03  0.48613321772E+02  0.37485745121E+03  0.00000000000E+00 0. -1.
        -11    1    3    3    0    0  0.19988276903E+03 -0.35036491903E+03 -0.40568337434E+02  0.40540657104E+03  0.00000000000E+00 0.  1.
          2    1    6    6  502    0 -0.20728913662E+03  0.13259450877E+03  0.27862434126E+02  0.24764168702E+03  0.00000000000E+00 0. -1.
          3    1    5    5  503    0  0.14840522999E+02  0.50487835765E+02 -0.21730555784E+02  0.56933994571E+02  0.00000000000E+00 0. -1.
         -4    1    5    5    0  503  0.25511543812E+03  0.30095736825E+03 -0.15116357707E+02  0.39482620042E+03  0.00000000000E+00 0.  1.
         -1    1    6    6    0  502 -0.45007131663E+03  0.18724646923E+03 -0.20950130987E+02  0.48791837256E+03  0.00000000000E+00 0.  1.
<mgrwt>
<rscale>  0 0.19674625E+04</rscale>
<asrwt>0</asrwt>
<pdfrwt beam="1">  1        1 0.14966882E+00 0.19674625E+04</pdfrwt>
<pdfrwt beam="2">  1       -1 0.15303645E+00 0.19674625E+04</pdfrwt>
<totfact> 0.48862161E+00</totfact>
</mgrwt>
</event>
<event>
12    1  0.1442183E-007  0.3766246E+04  0.7818608E-02  0.8053437E-01
         -2   -1    0    0    0  501 -0.00000000000E+00  0.00000000000E+00  0.10874349299E+04  0.10874349299E+04  0.00000000000E+00 0.  1.
          2   -1    0    0  501    0  0.00000000000E+00 -0.00000000000E+00 -0.32610248666E+04  0.32610248666E+04  0.00000000000E+00 0. -1.
         23    2    1    2    0    0 -0.11489771550E+03 -0.12229458653E+03 -0.30665023657E+04  0.30723529694E+04  0.88082680817E+02 0.  0.
        254    2    1    2    0    0  0.11489771550E+03  0.12229458653E+03  0.89291242909E+03  0.12761068271E+04  0.89610187886E+03 0.  0.
        -24    2    4    4    0    0  0.38843781616E+03 -0.15620123852E+03  0.18766538390E+03  0.46597062408E+03  0.81409841302E+02 0.  0.
         24    2    4    4    0    0 -0.27354010066E+03  0.27849582505E+03  0.70524704519E+03  0.81013620304E+03  0.81013341416E+02 0.  0.
         11    1    3    3    0    0 -0.30898408038E+02 -0.94737519817E+02 -0.18136478904E+04  0.18163833791E+04  0.00000000000E+00 0.  1.
        -11    1    3    3    0    0 -0.83999307461E+02 -0.27557066709E+02 -0.12528544753E+04  0.12559695903E+04  0.00000000000E+00 0. -1.
          2    1    6    6  502    0 -0.61258076579E+02  0.11614312800E+03  0.22289334075E+03  0.25869522508E+03  0.00000000000E+00 0. -1.
          1    1    5    5  503    0  0.10171124647E+03 -0.60780926122E+02  0.88629836440E+02  0.14796873503E+03  0.00000000000E+00 0. -1.
         -2    1    5    5    0  503  0.28672656969E+03 -0.95420312401E+02  0.99035547455E+02  0.31800188906E+03  0.00000000000E+00 0.  1.
         -1    1    6    6    0  502 -0.21228202408E+03  0.16235269704E+03  0.48235370444E+03  0.55144097796E+03  0.00000000000E+00 0.  1.
<mgrwt>
<rscale>  0 0.37662461E+04</rscale>
<asrwt>0</asrwt>
<pdfrwt beam="1">  1        2 0.50169614E+00 0.37662461E+04</pdfrwt>
<pdfrwt beam="2">  1       -2 0.16729768E+00 0.37662461E+04</pdfrwt>
<totfact> 0.21158695E-01</totfact>
</mgrwt>
</event>
<event>
12    1  0.1442183E-007  0.1695243E+04  0.7818608E-02  0.8764082E-01
         -2   -1    0    0    0  501 -0.00000000000E+00  0.00000000000E+00  0.51791984113E+03  0.51791984113E+03  0.00000000000E+00 0. -1.
          2   -1    0    0  501    0  0.00000000000E+00 -0.00000000000E+00 -0.13872072670E+04  0.13872072670E+04  0.00000000000E+00 0.  1.
         23    2    1    2    0    0  0.21472199453E+03 -0.33096440075E+03  0.18013877648E+03  0.44301795692E+03  0.90398904120E+02 0.  0.
        254    2    1    2    0    0 -0.21472199453E+03  0.33096440075E+03 -0.10494262023E+04  0.14621091512E+04  0.93852269358E+03 0.  0.
        -24    2    4    4    0    0 -0.49495495475E+03  0.39058361177E+03 -0.40837661714E+03  0.75547211533E+03  0.80191586874E+02 0.  0.
         24    2    4    4    0    0  0.28023296023E+03 -0.59619211019E+02 -0.64104958516E+03  0.70663703584E+03  0.79412640402E+02 0.  0.
         13    1    3    3    0    0  0.14785857541E+03 -0.26001073582E+03  0.17234920638E+03  0.34521296326E+03  0.00000000000E+00 0. -1.
        -13    1    3    3    0    0  0.66863419113E+02 -0.70953664935E+02  0.77895701019E+01  0.97804993664E+02  0.00000000000E+00 0.  1.
          4    1    6    6  502    0  0.25238776366E+03 -0.33443732894E+02 -0.50829112478E+03  0.56848740887E+03  0.00000000000E+00 0. -1.
          3    1    5    5  503    0 -0.26780228474E+03  0.22710094948E+03 -0.18190394458E+03  0.39545157734E+03  0.00000000000E+00 0. -1.
         -4    1    5    5    0  503 -0.22715267001E+03  0.16348266230E+03 -0.22647267255E+03  0.36002053800E+03  0.00000000000E+00 0.  1.
         -3    1    6    6    0  502  0.27845196569E+02 -0.26175478125E+02 -0.13275846039E+03  0.13814962697E+03  0.00000000000E+00 0.  1.
<mgrwt>
<rscale>  0 0.16952430E+04</rscale>
<asrwt>0</asrwt>
<pdfrwt beam="1">  1        2 0.21341650E+00 0.16952430E+04</pdfrwt>
<pdfrwt beam="2">  1       -2 0.79679975E-01 0.16952430E+04</pdfrwt>
<totfact> 0.19541278E+01</totfact>
</mgrwt>
</event>
<event>
12    1  0.1442183E-007  0.1692822E+04  0.7818608E-02  0.8765469E-01
          2   -1    0    0  501    0  0.00000000000E+00  0.00000000000E+00  0.74048818969E+03  0.74048818969E+03  0.00000000000E+00 0. -1.
         -2   -1    0    0    0  501 -0.00000000000E+00 -0.00000000000E+00 -0.96748512832E+03  0.96748512832E+03  0.00000000000E+00 0.  1.
         23    2    1    2    0    0 -0.27102459614E+03 -0.29232071216E+03  0.37975920156E+03  0.55791272646E+03  0.90243164357E+02 0.  0.
        254    2    1    2    0    0  0.27102459614E+03  0.29232071216E+03 -0.60675614019E+03  0.11500605915E+04  0.89195326117E+03 0.  0.
        -24    2    4    4    0    0  0.29408179663E+03 -0.19803493805E+03  0.24516584702E+01  0.36332289773E+03  0.79344675911E+02 0.  0.
         24    2    4    4    0    0 -0.23057200486E+02  0.49035565020E+03 -0.60920779866E+03  0.78673769381E+03  0.82714924556E+02 0.  0.
         11    1    3    3    0    0 -0.11503609504E+03 -0.10958025239E+03  0.94117062352E+02  0.18465956867E+03  0.00000000000E+00 0.  1.
        -11    1    3    3    0    0 -0.15598850110E+03 -0.18274045976E+03  0.28564213921E+03  0.37325315779E+03  0.00000000000E+00 0. -1.
          4    1    6    6  502    0 -0.98572556269E+01  0.10435073631E+03 -0.18809170854E+03  0.21532471404E+03  0.00000000000E+00 0. -1.
          1    1    5    5  503    0  0.24733182524E+03 -0.18545705087E+03 -0.20351586557E+02  0.30980887103E+03  0.00000000000E+00 0. -1.
         -2    1    5    5    0  503  0.46749971381E+02 -0.12577887177E+02  0.22803245027E+02  0.53514026701E+02  0.00000000000E+00 0.  1.
         -3    1    6    6    0  502 -0.13199944859E+02  0.38600491390E+03 -0.42111609012E+03  0.57141297977E+03  0.00000000000E+00 0.  1.
<mgrwt>
<rscale>  0 0.16928217E+04</rscale>
<asrwt>0</asrwt>
<pdfrwt beam="1">  1        2 0.11392126E+00 0.16928217E+04</pdfrwt>
<pdfrwt beam="2">  1       -2 0.14884386E+00 0.16928217E+04</pdfrwt>
<totfact> 0.11095861E+01</totfact>
</mgrwt>
</event>
<event>
12    1  0.1442183E-007  0.1804769E+04  0.7818608E-02  0.8703768E-01
          1   -1    0    0  501    0  0.00000000000E+00  0.00000000000E+00  0.62876456331E+03  0.62876456331E+03  0.00000000000E+00 0. -1.
         -1   -1    0    0    0  501 -0.00000000000E+00 -0.00000000000E+00 -0.12950752476E+04  0.12950752476E+04  0.00000000000E+00 0.  1.
         23    2    1    2    0    0  0.79551351664E+02  0.26569776936E+03  0.40399813592E+03  0.49893610003E+03  0.93803069723E+02 0.  0.
        254    2    1    2    0    0 -0.79551351664E+02 -0.26569776936E+03 -0.10703088202E+04  0.14249037109E+04  0.89881360274E+03 0.  0.
        -24    2    4    4    0    0 -0.19675686526E+03 -0.56808554988E+03 -0.70164981451E+03  0.92743947570E+03  0.79981640850E+02 0.  0.
         24    2    4    4    0    0  0.11720551359E+03  0.30238778052E+03 -0.36865900571E+03  0.49746423519E+03  0.79910578639E+02 0.  0.
         13    1    3    3    0    0 -0.76026889831E-01  0.19502431274E+02  0.38927588097E+00  0.19506464093E+02  0.00000000000E+00 0.  1.
        -13    1    3    3    0    0  0.79627378554E+02  0.24619533809E+03  0.40360886004E+03  0.47942963594E+03  0.00000000000E+00 0. -1.
          4    1    6    6  502    0  0.12553856664E+03  0.29894924104E+03 -0.36342481472E+03  0.48704022050E+03  0.00000000000E+00 0. -1.
          3    1    5    5  503    0 -0.12076260859E+03 -0.28489034180E+03 -0.30800864857E+03  0.43659528408E+03  0.00000000000E+00 0. -1.
         -2    1    5    5    0  503 -0.75994256667E+02 -0.28319520808E+03 -0.39364116594E+03  0.49084419162E+03  0.00000000000E+00 0.  1.
         -3    1    6    6    0  502 -0.83330530513E+01  0.34385394788E+01 -0.52341909962E+01  0.10424014691E+02  0.00000000000E+00 0.  1.
<mgrwt>
<rscale>  0 0.18047686E+04</rscale>
<asrwt>0</asrwt>
<pdfrwt beam="1">  1        1 0.96733011E-01 0.18047686E+04</pdfrwt>
<pdfrwt beam="2">  1       -1 0.19924234E+00 0.18047686E+04</pdfrwt>
<totfact> 0.45951997E+00</totfact>
</mgrwt>
</event>
<event>
12    1  0.1442183E-007  0.1829693E+04  0.7818608E-02  0.8690666E-01
         -1   -1    0    0    0  501 -0.00000000000E+00  0.00000000000E+00  0.41026041324E+03  0.41026041324E+03  0.00000000000E+00 0.  1.
          1   -1    0    0  501    0  0.00000000000E+00 -0.00000000000E+00 -0.20400321231E+04  0.20400321231E+04  0.00000000000E+00 0. -1.
         23    2    1    2    0    0  0.56416756592E+02 -0.45623311770E+03  0.87967223282E+02  0.47636343199E+03  0.88613649403E+02 0.  0.
        254    2    1    2    0    0 -0.56416756592E+02  0.45623311770E+03 -0.17177389331E+04  0.19739291043E+04  0.85699332459E+03 0.  0.
        -24    2    4    4    0    0 -0.13348144767E+03  0.60932602465E+03 -0.16623792888E+04  0.17772736324E+04  0.78109943083E+02 0.  0.
         24    2    4    4    0    0  0.77064691078E+02 -0.15309290695E+03 -0.55359644280E+02  0.19665547194E+03  0.78944788670E+02 0.  0.
         11    1    3    3    0    0  0.38280970495E+02 -0.65062401058E+02  0.23673669695E+01  0.75525844317E+02  0.00000000000E+00 0. -1.
        -11    1    3    3    0    0  0.18135786097E+02 -0.39117071664E+03  0.85599856312E+02  0.40083758768E+03  0.00000000000E+00 0.  1.
          4    1    6    6  502    0  0.22716353291E+02 -0.12104916561E+03 -0.51345123438E+02  0.13343633277E+03  0.00000000000E+00 0. -1.
          3    1    5    5  503    0 -0.12971138737E+03  0.60077704959E+03 -0.15962732042E+04  0.17105105231E+04  0.00000000000E+00 0. -1.
         -4    1    5    5    0  503 -0.37700603000E+01  0.85489750589E+01 -0.66106084625E+02  0.66763109227E+02  0.00000000000E+00 0.  1.
         -3    1    6    6    0  502  0.54348337787E+02 -0.32043741334E+02 -0.40145208421E+01  0.63219139163E+02  0.00000000000E+00 0.  1.
<mgrwt>
<rscale>  0 0.18296933E+04</rscale>
<asrwt>0</asrwt>
<pdfrwt beam="1">  1        1 0.31385109E+00 0.18296933E+04</pdfrwt>
<pdfrwt beam="2">  1       -1 0.63116989E-01 0.18296933E+04</pdfrwt>
<totfact> 0.67085069E+00</totfact>
</mgrwt>
</event>
<event>
12    1  0.1442183E-007  0.2463356E+04  0.7818608E-02  0.8416158E-01
          1   -1    0    0  501    0  0.00000000000E+00  0.00000000000E+00  0.10964363276E+04  0.10964363276E+04  0.00000000000E+00 0. -1.
         -1   -1    0    0    0  501 -0.00000000000E+00 -0.00000000000E+00 -0.13836009337E+04  0.13836009337E+04  0.00000000000E+00 0.  1.
         23    2    1    2    0    0  0.41677289935E+03  0.85069275049E+03 -0.61683331767E+03  0.11341875175E+04  0.92304809172E+02 0.  0.
        254    2    1    2    0    0 -0.41677289935E+03 -0.85069275049E+03  0.32966871155E+03  0.13458497438E+04  0.89735849481E+03 0.  0.
        -24    2    4    4    0    0  0.93298015133E+02 -0.18315392110E+03 -0.24127012886E+03  0.32694546130E+03  0.80200879955E+02 0.  0.
         24    2    4    4    0    0 -0.51007091449E+03 -0.66753882939E+03  0.57093884040E+03  0.10189042825E+04  0.80089642968E+02 0.  0.
         11    1    3    3    0    0  0.20334486560E+03  0.45234057624E+03 -0.27127919599E+03  0.56529066280E+03  0.00000000000E+00 0. -1.
        -11    1    3    3    0    0  0.21342803375E+03  0.39835217425E+03 -0.34555412168E+03  0.56889685474E+03  0.00000000000E+00 0.  1.
          2    1    6    6  502    0 -0.43523637423E+03 -0.56440994803E+03  0.51719851985E+03  0.88061546649E+03  0.00000000000E+00 0. -1.
          3    1    5    5  503    0  0.64265498905E+02 -0.13228582869E+03 -0.22000355543E+03  0.26463400995E+03  0.00000000000E+00 0. -1.
         -4    1    5    5    0  503  0.29032516228E+02 -0.50868092411E+02 -0.21266573426E+02  0.62311451350E+02  0.00000000000E+00 0.  1.
         -1    1    6    6    0  502 -0.74834540255E+02 -0.10312888136E+03  0.53740320553E+02  0.13828881603E+03  0.00000000000E+00 0.  1.
<mgrwt>
<rscale>  0 0.24633557E+04</rscale>
<asrwt>0</asrwt>
<pdfrwt beam="1">  1        1 0.16868251E+00 0.24633557E+04</pdfrwt>
<pdfrwt beam="2">  1       -1 0.21286168E+00 0.24633557E+04</pdfrwt>
<totfact> 0.13977694E+00</totfact>
</mgrwt>
</event>
<event>
12    1  0.1549993E-007  0.2044165E+04  0.7818608E-02  0.8586246E-01
          2   -1    0    0  501    0  0.00000000000E+00  0.00000000000E+00  0.15173711315E+04  0.15173711315E+04  0.00000000000E+00 0. -1.
         -2   -1    0    0    0  501 -0.00000000000E+00 -0.00000000000E+00 -0.68846206485E+03  0.68846206485E+03  0.00000000000E+00 0.  1.
         23    2    1    2    0    0 -0.18981786616E+02  0.82079974458E+03  0.43858113841E+03  0.93528296708E+03  0.91259435758E+02 0.  0.
        254    2    1    2    0    0  0.18981786616E+02 -0.82079974458E+03  0.39032792824E+03  0.12705502293E+04  0.88762011278E+03 0.  0.
        -24    2    4    4    0    0  0.22046500685E+03 -0.83478968168E+03  0.53238848408E+02  0.86904991567E+03  0.83275140684E+02 0.  0.
         24    2    4    4    0    0 -0.20148322023E+03  0.13989937098E+02  0.33708907983E+03  0.40150031361E+03  0.82354403078E+02 0.  0.
         11    1    3    3    0    0  0.15504380147E+02  0.16125883927E+03  0.12248375323E+03  0.20309374400E+03  0.00000000000E+00 0.  1.
        -11    1    3    3    0    0 -0.34486166763E+02  0.65954090532E+03  0.31609738517E+03  0.73218922308E+03  0.00000000000E+00 0. -1.
          4    1    6    6  502    0 -0.22482833207E+02 -0.17621272678E+01  0.38180043302E+01  0.22872691984E+02  0.00000000000E+00 0. -1.
          1    1    5    5  503    0  0.21042360546E+02 -0.18027238765E+03  0.33364112160E+02  0.18453747226E+03  0.00000000000E+00 0. -1.
         -2    1    5    5    0  503  0.19942264630E+03 -0.65451729403E+03  0.19874736248E+02  0.68451244341E+03  0.00000000000E+00 0.  1.
         -3    1    6    6    0  502 -0.17900038703E+03  0.15752064366E+02  0.33327107550E+03  0.37862762162E+03  0.00000000000E+00 0.  1.
<mgrwt>
<rscale>  0 0.20441648E+04</rscale>
<asrwt>0</asrwt>
<pdfrwt beam="1">  1        2 0.23344171E+00 0.20441648E+04</pdfrwt>
<pdfrwt beam="2">  1       -2 0.10591724E+00 0.20441648E+04</pdfrwt>
<totfact> 0.82714369E+00</totfact>
</mgrwt>
</event>
<event>
12    1  0.1442183E-007  0.1268423E+04  0.7818608E-02  0.9054988E-01
          1   -1    0    0  501    0  0.00000000000E+00  0.00000000000E+00  0.16403168425E+04  0.16403168425E+04  0.00000000000E+00 0. -1.
         -1   -1    0    0    0  501 -0.00000000000E+00 -0.00000000000E+00 -0.24521132178E+03  0.24521132178E+03  0.00000000000E+00 0.  1.
         23    2    1    2    0    0 -0.20206782678E+03 -0.16075148894E+03  0.78820071658E+03  0.83443261955E+03  0.91350857397E+02 0.  0.
        254    2    1    2    0    0  0.20206782678E+03  0.16075148894E+03  0.60690480414E+03  0.10510955447E+04  0.81841062738E+03 0.  0.
        -24    2    4    4    0    0  0.24797519505E+02  0.46506085666E+03  0.21894722921E+03  0.52086539790E+03  0.80413656672E+02 0.  0.
         24    2    4    4    0    0  0.17727030727E+03 -0.30430936772E+03  0.38795757493E+03  0.53023014681E+03  0.81264847996E+02 0.  0.
         11    1    3    3    0    0  0.19642785695E+00  0.12328832633E-01  0.89345988279E+02  0.89346205054E+02  0.00000000000E+00 0.  1.
        -11    1    3    3    0    0 -0.20226425463E+03 -0.16076381778E+03  0.69885472830E+03  0.74508641450E+03  0.00000000000E+00 0. -1.
          2    1    6    6  502    0  0.98686264071E+02 -0.23233500280E+03  0.24357738143E+03  0.35078265776E+03  0.00000000000E+00 0. -1.
          1    1    5    5  503    0 -0.39556782808E+01  0.23755582938E+03  0.15171897375E+03  0.28189903593E+03  0.00000000000E+00 0. -1.
         -2    1    5    5    0  503  0.28753197786E+02  0.22750502728E+03  0.67228255462E+02  0.23896636197E+03  0.00000000000E+00 0.  1.
         -1    1    6    6    0  502  0.78584043201E+02 -0.71974364923E+02  0.14438019350E+03  0.17944748905E+03  0.00000000000E+00 0.  1.
<mgrwt>
<rscale>  0 0.12684231E+04</rscale>
<asrwt>0</asrwt>
<pdfrwt beam="1">  1        1 0.25235643E+00 0.12684231E+04</pdfrwt>
<pdfrwt beam="2">  1       -1 0.37724820E-01 0.12684231E+04</pdfrwt>
<totfact> 0.34949077E+01</totfact>
</mgrwt>
</event>
<event>
12    1  0.1442183E-007  0.2419755E+04  0.7818608E-02  0.8432145E-01
          2   -1    0    0  501    0  0.00000000000E+00  0.00000000000E+00  0.14715170515E+04  0.14715170515E+04  0.00000000000E+00 0. -1.
         -2   -1    0    0    0  501 -0.00000000000E+00 -0.00000000000E+00 -0.99475775983E+03  0.99475775983E+03  0.00000000000E+00 0.  1.
         23    2    1    2    0    0  0.58543784444E+03 -0.59309208894E+03 -0.41013288461E+03  0.93337464928E+03  0.92106227890E+02 0.  0.
        254    2    1    2    0    0 -0.58543784444E+03  0.59309208894E+03  0.88689217630E+03  0.15329001621E+04  0.93204585660E+03 0.  0.
        -24    2    4    4    0    0 -0.80802648398E+03  0.60461967268E+03  0.68470586003E+03  0.12219474046E+04  0.76561069994E+02 0.  0.
         24    2    4    4    0    0  0.22258863954E+03 -0.11527583733E+02  0.20218631627E+03  0.31095275747E+03  0.78318090196E+02 0.  0.
         11    1    3    3    0    0  0.51767070742E+03 -0.50208944970E+03 -0.32239737231E+03  0.78994736691E+03  0.00000000000E+00 0.  1.
        -11    1    3    3    0    0  0.67767137019E+02 -0.91002639242E+02 -0.87735512306E+02  0.14342728237E+03  0.00000000000E+00 0. -1.
          2    1    6    6  502    0  0.71312090976E+02  0.24311550366E+02  0.98804293046E+02  0.12425278317E+03  0.00000000000E+00 0. -1.
          1    1    5    5  503    0 -0.55649780775E+03  0.41526813729E+03  0.42753383216E+03  0.81542787144E+03  0.00000000000E+00 0. -1.
         -2    1    5    5    0  503 -0.25152867623E+03  0.18935153539E+03  0.25717202787E+03  0.40651953316E+03  0.00000000000E+00 0.  1.
         -1    1    6    6    0  502  0.15127654856E+03 -0.35839134099E+02  0.10338202323E+03  0.18669997430E+03  0.00000000000E+00 0.  1.
<mgrwt>
<rscale>  0 0.24197545E+04</rscale>
<asrwt>0</asrwt>
<pdfrwt beam="1">  1        2 0.22638724E+00 0.24197545E+04</pdfrwt>
<pdfrwt beam="2">  1       -2 0.15303965E+00 0.24197545E+04</pdfrwt>
<totfact> 0.33599550E+00</totfact>
</mgrwt>
</event>
<event>
12    1  0.1442183E-007  0.2112370E+04  0.7818608E-02  0.8555814E-01
         -2   -1    0    0    0  501 -0.00000000000E+00  0.00000000000E+00  0.21407458667E+04  0.21407458667E+04  0.00000000000E+00 0. -1.
          2   -1    0    0  501    0  0.00000000000E+00 -0.00000000000E+00 -0.52109259776E+03  0.52109259776E+03  0.00000000000E+00 0.  1.
         23    2    1    2    0    0  0.35406747753E+02  0.25971773907E+03 -0.36908688493E+03  0.46209334594E+03  0.92726425342E+02 0.  0.
        254    2    1    2    0    0 -0.35406747753E+02 -0.25971773907E+03  0.19887401538E+04  0.21997451185E+04  0.90282016207E+03 0.  0.
        -24    2    4    4    0    0 -0.17387374559E+01  0.33104694251E+03  0.66315173829E+03  0.74545501418E+03  0.79610607389E+02 0.  0.
         24    2    4    4    0    0 -0.33668010297E+02 -0.59076468158E+03  0.13255884155E+04  0.14542901043E+04  0.87399177086E+02 0.  0.
         11    1    3    3    0    0  0.55898293856E+02  0.24752835281E+03 -0.32965775728E+03  0.41601579493E+03  0.00000000000E+00 0.  1.
        -11    1    3    3    0    0 -0.20491546103E+02  0.12189386266E+02 -0.39429127655E+02  0.46077551008E+02  0.00000000000E+00 0. -1.
          2    1    6    6  502    0  0.92796101843E+01 -0.44340544011E+03  0.94411362202E+03  0.10430939683E+04  0.00000000000E+00 0. -1.
          3    1    5    5  503    0  0.57943698832E+01  0.35841053222E+02  0.31037861537E+02  0.47765098840E+02  0.00000000000E+00 0. -1.
         -4    1    5    5    0  503 -0.75331073391E+01  0.29520588928E+03  0.63211387676E+03  0.69768991534E+03  0.00000000000E+00 0.  1.
         -1    1    6    6    0  502 -0.42947620481E+02 -0.14735924147E+03  0.38147479352E+03  0.41119613598E+03  0.00000000000E+00 0.  1.
<mgrwt>
<rscale>  0 0.21123701E+04</rscale>
<asrwt>0</asrwt>
<pdfrwt beam="1">  1        2 0.80168093E-01 0.21123701E+04</pdfrwt>
<pdfrwt beam="2">  1       -2 0.32934551E+00 0.21123701E+04</pdfrwt>
<totfact> 0.11334769E+00</totfact>
</mgrwt>
</event>
<event>
12    1  0.1442183E-007  0.2750004E+04  0.7818608E-02  0.8318960E-01
         -1   -1    0    0    0  501 -0.00000000000E+00  0.00000000000E+00  0.90454267026E+03  0.90454267026E+03  0.00000000000E+00 0.  1.
          1   -1    0    0  501    0  0.00000000000E+00 -0.00000000000E+00 -0.20901508476E+04  0.20901508476E+04  0.00000000000E+00 0. -1.
         23    2    1    2    0    0  0.73523519103E+03  0.47047299745E+03  0.40734789102E+03  0.96744305944E+03  0.89989674258E+02 0.  0.
        254    2    1    2    0    0 -0.73523519103E+03 -0.47047299745E+03 -0.15929560684E+04  0.20272504584E+04  0.90017762581E+03 0.  0.
        -24    2    4    4    0    0  0.18425195057E+03 -0.18391880808E+03 -0.47903756969E+03  0.55247490326E+03  0.89311904615E+02 0.  0.
         24    2    4    4    0    0 -0.91948714161E+03 -0.28655418937E+03 -0.11139184987E+04  0.14747755552E+04  0.81108627188E+02 0.  0.
         11    1    3    3    0    0  0.54576025281E+03  0.33525032937E+03  0.25589590654E+03  0.68973165208E+03  0.00000000000E+00 0.  1.
        -11    1    3    3    0    0  0.18947493823E+03  0.13522266808E+03  0.15145198448E+03  0.27771140737E+03  0.00000000000E+00 0. -1.
          2    1    6    6  502    0 -0.82195327467E+03 -0.28059665507E+03 -0.10115254864E+04  0.13332387177E+04  0.00000000000E+00 0. -1.
          1    1    5    5  503    0  0.17108988972E+03 -0.11758262173E+03 -0.36208758618E+03  0.41737853725E+03  0.00000000000E+00 0. -1.
         -2    1    5    5    0  503  0.13162060856E+02 -0.66336186350E+02 -0.11694998351E+03  0.13509636601E+03  0.00000000000E+00 0.  1.
         -1    1    6    6    0  502 -0.97533866940E+02 -0.59575342991E+01 -0.10239301228E+03  0.14153683753E+03  0.00000000000E+00 0.  1.
<mgrwt>
<rscale>  0 0.27500041E+04</rscale>
<asrwt>0</asrwt>
<pdfrwt beam="1">  1        1 0.32156166E+00 0.27500041E+04</pdfrwt>
<pdfrwt beam="2">  1       -1 0.13916041E+00 0.27500041E+04</pdfrwt>
<totfact> 0.95796496E-01</totfact>
</mgrwt>
</event>
<event>
12    1  0.1442183E-007  0.1391142E+04  0.7818608E-02  0.8960255E-01
         -4   -1    0    0    0  501 -0.00000000000E+00  0.00000000000E+00  0.11228563299E+04  0.11228563299E+04  0.00000000000E+00 0.  1.
          4   -1    0    0  501    0  0.00000000000E+00 -0.00000000000E+00 -0.43088237457E+03  0.43088237457E+03  0.00000000000E+00 0. -1.
         23    2    1    2    0    0 -0.44646659488E+02 -0.38806330253E+03  0.16298481072E+03  0.43268808979E+03  0.89824737944E+02 0.  0.
        254    2    1    2    0    0  0.44646659488E+02  0.38806330253E+03  0.52898914461E+03  0.11210506147E+04  0.90793089746E+03 0.  0.
        -24    2    4    4    0    0 -0.12447215872E+03 -0.23378040065E+03  0.35413640437E+03  0.44867227929E+03  0.75813107517E+02 0.  0.
         24    2    4    4    0    0  0.16911881821E+03  0.62184370319E+03  0.17485274024E+03  0.67237833538E+03  0.78920081457E+02 0.  0.
         13    1    3    3    0    0 -0.18975612178E+02 -0.36266840094E+03  0.15869773458E+03  0.39632488423E+03  0.00000000000E+00 0.  1.
        -13    1    3    3    0    0 -0.25671047310E+02 -0.25394901590E+02  0.42870761342E+01  0.36363205559E+02  0.00000000000E+00 0. -1.
          4    1    6    6  502    0  0.10129908327E+03  0.23545116451E+03  0.83589640092E+02  0.26960338104E+03  0.00000000000E+00 0. -1.
          1    1    5    5  503    0 -0.25256971654E+02 -0.67291058323E+01  0.21220727225E+02  0.33667710739E+02  0.00000000000E+00 0. -1.
         -2    1    5    5    0  503 -0.99215187071E+02 -0.22705129482E+03  0.33291567714E+03  0.41500456855E+03  0.00000000000E+00 0.  1.
         -3    1    6    6    0  502  0.67819734940E+02  0.38639253868E+03  0.91263100146E+02  0.40277495434E+03  0.00000000000E+00 0.  1.
<mgrwt>
<rscale>  0 0.13911420E+04</rscale>
<asrwt>0</asrwt>
<pdfrwt beam="1">  1        4 0.66289596E-01 0.13911420E+04</pdfrwt>
<pdfrwt beam="2">  1       -4 0.17274713E+00 0.13911420E+04</pdfrwt>
<totfact> 0.83064595E-01</totfact>
</mgrwt>
</event>
<event>
12    1  0.1442183E-007  0.1905132E+04  0.7818608E-02  0.8652306E-01
          1   -1    0    0  501    0  0.00000000000E+00  0.00000000000E+00  0.21092182308E+04  0.21092182308E+04  0.00000000000E+00 0. -1.
         -1   -1    0    0    0  501 -0.00000000000E+00 -0.00000000000E+00 -0.43019817915E+03  0.43019817915E+03  0.00000000000E+00 0.  1.
         23    2    1    2    0    0  0.61784046200E+03  0.37000038306E+03  0.43299203554E+03  0.84540520083E+03  0.92740125072E+02 0.  0.
        254    2    1    2    0    0 -0.61784046200E+03 -0.37000038306E+03  0.12460280161E+04  0.16940112091E+04  0.89356647190E+03 0.  0.
        -24    2    4    4    0    0  0.19819861126E+03 -0.16749782390E+03  0.48920152796E+03  0.55958749871E+03  0.80509771027E+02 0.  0.
         24    2    4    4    0    0 -0.81603907326E+03 -0.20250255916E+03  0.75682648814E+03  0.11344237104E+04  0.84875002218E+02 0.  0.
         11    1    3    3    0    0  0.36869037784E+03  0.25586083692E+03  0.30731555638E+03  0.54391195407E+03  0.00000000000E+00 0.  1.
        -11    1    3    3    0    0  0.24915008416E+03  0.11413954614E+03  0.12567647916E+03  0.30149324676E+03  0.00000000000E+00 0. -1.
          4    1    6    6  502    0 -0.68188113617E+02 -0.90993400128E-01  0.40805698559E+02  0.79465288984E+02  0.00000000000E+00 0. -1.
          3    1    5    5  503    0  0.63837187076E+02 -0.92472289216E+02  0.15290129659E+03  0.18975014420E+03  0.00000000000E+00 0. -1.
         -4    1    5    5    0  503  0.13436142418E+03 -0.75025534682E+02  0.33630023138E+03  0.36983735451E+03  0.00000000000E+00 0.  1.
         -3    1    6    6    0  502 -0.74785095965E+03 -0.20241156576E+03  0.71602078959E+03  0.10549584214E+04  0.00000000000E+00 0.  1.
<mgrwt>
<rscale>  0 0.19051319E+04</rscale>
<asrwt>0</asrwt>
<pdfrwt beam="1">  1        1 0.32449511E+00 0.19051319E+04</pdfrwt>
<pdfrwt beam="2">  1       -1 0.66184336E-01 0.19051319E+04</pdfrwt>
<totfact> 0.54354534E+00</totfact>
</mgrwt>
</event>
<event>
12    1  0.1442183E-007  0.1849601E+04  0.7818608E-02  0.8680358E-01
          1   -1    0    0  501    0  0.00000000000E+00  0.00000000000E+00  0.54564435432E+03  0.54564435432E+03  0.00000000000E+00 0. -1.
         -1   -1    0    0    0  501 -0.00000000000E+00 -0.00000000000E+00 -0.15674231769E+04  0.15674231769E+04  0.00000000000E+00 0.  1.
         23    2    1    2    0    0 -0.40163734239E+03  0.22180393487E+03 -0.98526954874E+03  0.10907025586E+04  0.91468285926E+02 0.  0.
        254    2    1    2    0    0  0.40163734239E+03 -0.22180393487E+03 -0.36509273871E+02  0.10223649727E+04  0.91290069006E+03 0.  0.
        -24    2    4    4    0    0  0.33738124371E+03 -0.19209125675E+03 -0.44728730460E+03  0.59792488639E+03  0.81994404602E+02 0.  0.
         24    2    4    4    0    0  0.64256098685E+02 -0.29712678116E+02  0.41077803072E+03  0.42444008627E+03  0.79994417607E+02 0.  0.
         11    1    3    3    0    0 -0.24903578896E+03  0.86044319313E+02 -0.56676443887E+03  0.62501550240E+03  0.00000000000E+00 0.  1.
        -11    1    3    3    0    0 -0.15260155343E+03  0.13575961556E+03 -0.41850510987E+03  0.46568705620E+03  0.00000000000E+00 0. -1.
          2    1    6    6  502    0  0.55741408888E+02 -0.53120515760E+02  0.24539241857E+03  0.25718929400E+03  0.00000000000E+00 0. -1.
          3    1    5    5  503    0  0.28156874278E+02  0.36609744347E+01 -0.17186720823E+02  0.33190294900E+02  0.00000000000E+00 0. -1.
         -2    1    5    5    0  503  0.30922436943E+03 -0.19575223119E+03 -0.43010058377E+03  0.56473459149E+03  0.00000000000E+00 0.  1.
         -1    1    6    6    0  502  0.85146897972E+01  0.23407837644E+02  0.16538561216E+03  0.16725079227E+03  0.00000000000E+00 0.  1.
<mgrwt>
<rscale>  0 0.18496006E+04</rscale>
<asrwt>0</asrwt>
<pdfrwt beam="1">  1        1 0.83945287E-01 0.18496006E+04</pdfrwt>
<pdfrwt beam="2">  1       -1 0.24114202E+00 0.18496006E+04</pdfrwt>
<totfact> 0.29371898E+00</totfact>
</mgrwt>
</event>
<event>
12    1  0.1442183E-007  0.1281558E+04  0.7818608E-02  0.9044319E-01
         -2   -1    0    0    0  501 -0.00000000000E+00  0.00000000000E+00  0.26578947763E+03  0.26578947763E+03  0.00000000000E+00 0. -1.
          2   -1    0    0  501    0  0.00000000000E+00 -0.00000000000E+00 -0.15448225380E+04  0.15448225380E+04  0.00000000000E+00 0.  1.
         23    2    1    2    0    0  0.26153968557E+02  0.43152995893E+02 -0.77082504320E+03  0.77784103224E+03  0.91209720385E+02 0.  0.
        254    2    1    2    0    0 -0.26153968557E+02 -0.43152995893E+02 -0.50820801717E+03  0.10327709834E+04  0.89766046158E+03 0.  0.
        -24    2    4    4    0    0  0.33052021427E+02  0.14411928539E+02 -0.75536155119E+03  0.76039866630E+03  0.79592203676E+02 0.  0.
         24    2    4    4    0    0 -0.59205989985E+02 -0.57564924432E+02  0.24715353403E+03  0.27237231708E+03  0.79263736699E+02 0.  0.
         13    1    3    3    0    0 -0.49854293642E+01 -0.50127626482E+00  0.14091452543E+00  0.50125483282E+01  0.00000000000E+00 0. -1.
        -13    1    3    3    0    0  0.31139397921E+02  0.43654272158E+02 -0.77096595772E+03  0.77282848391E+03  0.00000000000E+00 0.  1.
          4    1    6    6  502    0 -0.57979006850E+02 -0.64602080576E+02  0.25003151697E+03  0.26467102888E+03  0.00000000000E+00 0. -1.
          3    1    5    5  503    0  0.57290487383E+02  0.17711069925E+02 -0.43643230818E+03  0.44053267933E+03  0.00000000000E+00 0. -1.
         -4    1    5    5    0  503 -0.24238465956E+02 -0.32991413856E+01 -0.31892924302E+03  0.31986598697E+03  0.00000000000E+00 0.  1.
         -1    1    6    6    0  502 -0.12269831350E+01  0.70371561435E+01 -0.28779829403E+01  0.77012882044E+01  0.00000000000E+00 0.  1.
<mgrwt>
<rscale>  0 0.12815578E+04</rscale>
<asrwt>0</asrwt>
<pdfrwt beam="1">  1        2 0.23766500E+00 0.12815578E+04</pdfrwt>
<pdfrwt beam="2">  1       -2 0.40890690E-01 0.12815578E+04</pdfrwt>
<totfact> 0.66544308E+01</totfact>
</mgrwt>
</event>
<event>
12    1  0.1442183E-007  0.1716733E+04  0.7818608E-02  0.8751878E-01
         -1   -1    0    0    0  501 -0.00000000000E+00  0.00000000000E+00  0.14682482943E+04  0.14682482943E+04  0.00000000000E+00 0.  1.
          1   -1    0    0  501    0  0.00000000000E+00 -0.00000000000E+00 -0.50181788882E+03  0.50181788882E+03  0.00000000000E+00 0. -1.
         23    2    1    2    0    0  0.94911376583E+02  0.40175152768E+03  0.92530247606E+03  0.10172759917E+04  0.90847738920E+02 0.  0.
        254    2    1    2    0    0 -0.94911376583E+02 -0.40175152768E+03  0.41127929389E+02  0.95279019141E+03  0.85773258238E+03 0.  0.
        -24    2    4    4    0    0  0.73962392372E+02 -0.56624999603E+03  0.24967721999E+03  0.62811536060E+03  0.77978833988E+02 0.  0.
         24    2    4    4    0    0 -0.16887376896E+03  0.16449846835E+03 -0.20854929060E+03  0.32467483081E+03  0.79641968959E+02 0.  0.
         13    1    3    3    0    0  0.43440959409E+02  0.19597021708E+03  0.55954711431E+03  0.59446145045E+03  0.00000000000E+00 0.  1.
        -13    1    3    3    0    0  0.51470417174E+02  0.20578131060E+03  0.36575536175E+03  0.42281454124E+03  0.00000000000E+00 0. -1.
          2    1    6    6  502    0 -0.25174890757E+02  0.45545594327E+02 -0.89035899313E+02  0.10312888855E+03  0.00000000000E+00 0. -1.
          1    1    5    5  503    0  0.41610477374E+02 -0.94245495600E+02  0.37983072868E+02  0.10980145305E+03  0.00000000000E+00 0. -1.
         -2    1    5    5    0  503  0.32351914998E+02 -0.47200450043E+03  0.21169414712E+03  0.51831390755E+03  0.00000000000E+00 0.  1.
         -1    1    6    6    0  502 -0.14369887820E+03  0.11895287403E+03 -0.11951339129E+03  0.22154594226E+03  0.00000000000E+00 0.  1.
<mgrwt>
<rscale>  0 0.17167332E+04</rscale>
<asrwt>0</asrwt>
<pdfrwt beam="1">  1        1 0.77202753E-01 0.17167332E+04</pdfrwt>
<pdfrwt beam="2">  1       -1 0.22588435E+00 0.17167332E+04</pdfrwt>
<totfact> 0.42124632E+00</totfact>
</mgrwt>
</event>
<event>
12    1  0.1442183E-007  0.1266701E+04  0.7818608E-02  0.9056396E-01
          2   -1    0    0  501    0  0.00000000000E+00  0.00000000000E+00  0.14219430648E+04  0.14219430648E+04  0.00000000000E+00 0. -1.
         -2   -1    0    0    0  501 -0.00000000000E+00 -0.00000000000E+00 -0.28210209405E+03  0.28210209405E+03  0.00000000000E+00 0.  1.
         23    2    1    2    0    0  0.10857730526E+03 -0.24205459676E+02 -0.93128437116E+02  0.17172543256E+03  0.91879175514E+02 0.  0.
        254    2    1    2    0    0 -0.10857730526E+03  0.24205459676E+02  0.12329694079E+04  0.15323197263E+04  0.90300345922E+03 0.  0.
        -24    2    4    4    0    0 -0.11244113412E+03  0.30346553547E+03  0.11944983445E+04  0.12401893568E+04  0.80678409722E+02 0.  0.
         24    2    4    4    0    0  0.38638288531E+01 -0.27926007579E+03  0.38471063333E+02  0.29213036948E+03  0.76544176511E+02 0.  0.
         13    1    3    3    0    0 -0.17537269430E+01 -0.30686550758E+01 -0.51963012344E+02  0.52083076465E+02  0.00000000000E+00 0. -1.
        -13    1    3    3    0    0  0.11033103220E+03 -0.21136804600E+02 -0.41165424772E+02  0.11964235610E+03  0.00000000000E+00 0.  1.
          4    1    6    6  502    0  0.25044764990E+02 -0.68020192320E+02 -0.13096665148E+02  0.73658057636E+02  0.00000000000E+00 0. -1.
          3    1    5    5  503    0 -0.10094975163E+03  0.18939198865E+03  0.67966911596E+03  0.71274840225E+03  0.00000000000E+00 0. -1.
         -4    1    5    5    0  503 -0.11491382486E+02  0.11407354681E+03  0.51482922856E+03  0.52744095455E+03  0.00000000000E+00 0.  1.
         -3    1    6    6    0  502 -0.21180936137E+02 -0.21123988347E+03  0.51567728481E+02  0.21847231185E+03  0.00000000000E+00 0.  1.
<mgrwt>
<rscale>  0 0.12667014E+04</rscale>
<asrwt>0</asrwt>
<pdfrwt beam="1">  1        2 0.21876047E+00 0.12667014E+04</pdfrwt>
<pdfrwt beam="2">  1       -2 0.43400323E-01 0.12667014E+04</pdfrwt>
<totfact> 0.69494184E+01</totfact>
</mgrwt>
</event>
<event>
12    1  0.1442183E-007  0.1293115E+04  0.7818608E-02  0.9035043E-01
          3   -1    0    0  501    0  0.00000000000E+00  0.00000000000E+00  0.48363261047E+03  0.48363261047E+03  0.00000000000E+00 0. -1.
         -3   -1    0    0    0  501 -0.00000000000E+00 -0.00000000000E+00 -0.86436813405E+03  0.86436813405E+03  0.00000000000E+00 0.  1.
         23    2    1    2    0    0  0.21385440256E+03  0.66420195263E+00  0.15207545314E+03  0.27762774483E+03  0.90642565023E+02 0.  0.
        254    2    1    2    0    0 -0.21385440256E+03 -0.66420195263E+00 -0.53281097672E+03  0.10703729997E+04  0.90336962252E+03 0.  0.
        -24    2    4    4    0    0 -0.42413868304E+03 -0.31819232996E+03 -0.26730884187E+03  0.59924678882E+03  0.80639417618E+02 0.  0.
         24    2    4    4    0    0  0.21028428049E+03  0.31752812801E+03 -0.26550213485E+03  0.47112621087E+03  0.80155675171E+02 0.  0.
         11    1    3    3    0    0  0.12881495926E+03 -0.10732818078E+02  0.14072383755E+03  0.19108031183E+03  0.00000000000E+00 0. -1.
        -11    1    3    3    0    0  0.85039443303E+02  0.11397020030E+02  0.11351615583E+02  0.86547433002E+02  0.00000000000E+00 0.  1.
          2    1    6    6  502    0  0.90569912298E+02  0.15654565214E+03 -0.79532016412E+02  0.19757224464E+03  0.00000000000E+00 0. -1.
          1    1    5    5  503    0 -0.25719978265E+03 -0.15427777190E+03 -0.17836426683E+03  0.34895153070E+03  0.00000000000E+00 0. -1.
         -2    1    5    5    0  503 -0.16693890039E+03 -0.16391455806E+03 -0.88944575043E+02  0.25029525812E+03  0.00000000000E+00 0.  1.
         -1    1    6    6    0  502  0.11971436819E+03  0.16098247586E+03 -0.18597011844E+03  0.27355396622E+03  0.00000000000E+00 0.  1.
<mgrwt>
<rscale>  0 0.12931150E+04</rscale>
<asrwt>0</asrwt>
<pdfrwt beam="1">  1        3 0.74405017E-01 0.12931150E+04</pdfrwt>
<pdfrwt beam="2">  1       -3 0.13297971E+00 0.12931150E+04</pdfrwt>
<totfact> 0.19252509E+00</totfact>
</mgrwt>
</event>
<event>
12    1  0.1442183E-007  0.2291798E+04  0.7818608E-02  0.8481162E-01
          2   -1    0    0  501    0  0.00000000000E+00  0.00000000000E+00  0.22196178127E+04  0.22196178127E+04  0.00000000000E+00 0. -1.
         -2   -1    0    0    0  501 -0.00000000000E+00 -0.00000000000E+00 -0.59158156315E+03  0.59158156315E+03  0.00000000000E+00 0.  1.
         23    2    1    2    0    0 -0.69865993014E+03 -0.63297902200E+03  0.75691848779E+03  0.12123834440E+04  0.90332042083E+02 0.  0.
        254    2    1    2    0    0  0.69865993014E+03  0.63297902200E+03  0.87111776181E+03  0.15988159319E+04  0.95319362614E+03 0.  0.
        -24    2    4    4    0    0  0.45954538284E+03 -0.16985103356E+03  0.27060339149E+03  0.56501162966E+03  0.77334427496E+02 0.  0.
         24    2    4    4    0    0  0.23911454730E+03  0.80283005556E+03  0.60051437032E+03  0.10338043022E+04  0.80137142096E+02 0.  0.
         11    1    3    3    0    0 -0.36643544468E+03 -0.36658721951E+03  0.46256504538E+03  0.69471400291E+03  0.00000000000E+00 0. -1.
        -11    1    3    3    0    0 -0.33222448546E+03 -0.26639180249E+03  0.29435344241E+03  0.51766944108E+03  0.00000000000E+00 0.  1.
          4    1    6    6  502    0  0.24137963452E+02  0.57307336678E+02  0.71313682664E+02  0.94617194271E+02  0.00000000000E+00 0. -1.
          3    1    5    5  503    0  0.87168405820E+02 -0.51239664083E+02  0.27601598716E+02  0.10481260611E+03  0.00000000000E+00 0. -1.
         -4    1    5    5    0  503  0.37237697702E+03 -0.11861136948E+03  0.24300179278E+03  0.46019902355E+03  0.00000000000E+00 0.  1.
         -3    1    6    6    0  502  0.21497658385E+03  0.74552271888E+03  0.52920068765E+03  0.93918710798E+03  0.00000000000E+00 0.  1.
<mgrwt>
<rscale>  0 0.22917984E+04</rscale>
<asrwt>0</asrwt>
<pdfrwt beam="1">  1        2 0.34147966E+00 0.22917984E+04</pdfrwt>
<pdfrwt beam="2">  1       -2 0.91012549E-01 0.22917984E+04</pdfrwt>
<totfact> 0.47025573E+00</totfact>
</mgrwt>
</event>
<event>
12    1  0.1442183E-007  0.2860213E+04  0.7818608E-02  0.8284814E-01
         -1   -1    0    0    0  501 -0.00000000000E+00  0.00000000000E+00  0.21924736619E+04  0.21924736619E+04  0.00000000000E+00 0.  1.
          1   -1    0    0  501    0  0.00000000000E+00 -0.00000000000E+00 -0.93283004975E+03  0.93283004975E+03  0.00000000000E+00 0. -1.
         23    2    1    2    0    0 -0.34182311025E+03  0.13614364682E+02  0.19210967080E+04  0.19535943134E+04  0.94285683009E+02 0.  0.
        254    2    1    2    0    0  0.34182311025E+03 -0.13614364682E+02 -0.66145309588E+03  0.11717093983E+04  0.90462938616E+03 0.  0.
        -24    2    4    4    0    0  0.78747969341E+01  0.71658309300E+02 -0.78859371830E+03  0.79596110127E+03  0.80480410485E+02 0.  0.
         24    2    4    4    0    0  0.33394831332E+03 -0.85272673982E+02  0.12714062242E+03  0.37574829700E+03  0.78924900587E+02 0.  0.
         11    1    3    3    0    0 -0.15922674554E+03  0.23935098461E+02  0.66288508367E+03  0.68216030344E+03  0.00000000000E+00 0.  1.
        -11    1    3    3    0    0 -0.18259636471E+03 -0.10320733779E+02  0.12582116244E+04  0.12714340099E+04  0.00000000000E+00 0. -1.
          4    1    6    6  502    0  0.12219683332E+03 -0.27865032750E+02  0.87360729057E+02  0.15277572813E+03  0.00000000000E+00 0. -1.
          1    1    5    5  503    0 -0.28631845209E+02  0.50240079793E+02 -0.59451679015E+03  0.59732241039E+03  0.00000000000E+00 0. -1.
         -2    1    5    5    0  503  0.36506642143E+02  0.21418229507E+02 -0.19407692815E+03  0.19863869088E+03  0.00000000000E+00 0.  1.
         -3    1    6    6    0  502  0.21175148000E+03 -0.57407641232E+02  0.39779893363E+02  0.22297256887E+03  0.00000000000E+00 0.  1.
<mgrwt>
<rscale>  0 0.28602135E+04</rscale>
<asrwt>0</asrwt>
<pdfrwt beam="1">  1        1 0.14351232E+00 0.28602135E+04</pdfrwt>
<pdfrwt beam="2">  1       -1 0.33730364E+00 0.28602135E+04</pdfrwt>
<totfact> 0.27773866E-01</totfact>
</mgrwt>
</event>
<event>
12    1  0.1442183E-007  0.2381901E+04  0.7818608E-02  0.8446311E-01
          2   -1    0    0  501    0  0.00000000000E+00  0.00000000000E+00  0.23446227138E+04  0.23446227138E+04  0.00000000000E+00 0. -1.
         -2   -1    0    0    0  501 -0.00000000000E+00 -0.00000000000E+00 -0.60494308574E+03  0.60494308574E+03  0.00000000000E+00 0.  1.
         23    2    1    2    0    0  0.98132288461E+03  0.27354406487E+03  0.79355519982E+03  0.12945110146E+04  0.90597751610E+02 0.  0.
        254    2    1    2    0    0 -0.98132288461E+03 -0.27354406487E+03  0.94612442825E+03  0.16550547849E+04  0.89790531127E+03 0.  0.
        -24    2    4    4    0    0 -0.16145870045E+03 -0.13990944431E+02  0.74708796097E+03  0.76864532059E+03  0.80065903926E+02 0.  0.
         24    2    4    4    0    0 -0.81986418416E+03 -0.25955312044E+03  0.19903646728E+03  0.88640946431E+03  0.81000742604E+02 0.  0.
         11    1    3    3    0    0  0.77892266823E+03  0.21880013484E+03  0.58198931701E+03  0.99664717288E+03  0.00000000000E+00 0. -1.
        -11    1    3    3    0    0  0.20240021638E+03  0.54743930030E+02  0.21156588281E+03  0.29786384177E+03  0.00000000000E+00 0.  1.
          4    1    6    6  502    0 -0.28743496098E+03 -0.55682870959E+02  0.48769686675E+02  0.29681293983E+03  0.00000000000E+00 0. -1.
          1    1    5    5  503    0 -0.73796712398E+02 -0.46189887045E+02  0.33784816156E+03  0.34888513968E+03  0.00000000000E+00 0. -1.
         -2    1    5    5    0  503 -0.87661988049E+02  0.32198942614E+02  0.40923979941E+03  0.41976018091E+03  0.00000000000E+00 0.  1.
         -3    1    6    6    0  502 -0.53242922318E+03 -0.20387024948E+03  0.15026678061E+03  0.58959652448E+03  0.00000000000E+00 0.  1.
<mgrwt>
<rscale>  0 0.23819012E+04</rscale>
<asrwt>0</asrwt>
<pdfrwt beam="1">  1        2 0.36071118E+00 0.23819012E+04</pdfrwt>
<pdfrwt beam="2">  1       -2 0.93068168E-01 0.23819012E+04</pdfrwt>
<totfact> 0.37648621E+00</totfact>
</mgrwt>
</event>
<event>
12    1  0.1442183E-007  0.1272196E+04  0.7818608E-02  0.9051909E-01
          1   -1    0    0  501    0  0.00000000000E+00  0.00000000000E+00  0.33959857045E+04  0.33959857045E+04  0.00000000000E+00 0. -1.
         -1   -1    0    0    0  501 -0.00000000000E+00 -0.00000000000E+00 -0.11914679824E+03  0.11914679824E+03  0.00000000000E+00 0.  1.
         23    2    1    2    0    0  0.10586098672E+03  0.15894666679E+03  0.16578467981E+03  0.26889091201E+03  0.91362854104E+02 0.  0.
        254    2    1    2    0    0 -0.10586098672E+03 -0.15894666679E+03  0.31110542265E+04  0.32462415908E+04  0.90716893360E+03 0.  0.
        -24    2    4    4    0    0 -0.47110210233E+03 -0.23283291581E+03  0.20905650999E+04  0.21570400308E+04  0.78809263257E+02 0.  0.
         24    2    4    4    0    0  0.36524111561E+03  0.73886249020E+02  0.10204891266E+04  0.10892015600E+04  0.78113574099E+02 0.  0.
         13    1    3    3    0    0  0.21228099185E+02  0.71200268017E+02  0.11480826842E+03  0.13675177826E+03  0.00000000000E+00 0. -1.
        -13    1    3    3    0    0  0.84632887535E+02  0.87746398772E+02  0.50976411395E+02  0.13213913375E+03  0.00000000000E+00 0.  1.
          4    1    6    6  502    0  0.12254873543E+03  0.31046786127E+02  0.45728858702E+03  0.47444172171E+03  0.00000000000E+00 0. -1.
          3    1    5    5  503    0 -0.21071593142E+03 -0.93816040048E+02  0.76543581862E+03  0.79943395321E+03  0.00000000000E+00 0. -1.
         -4    1    5    5    0  503 -0.26038617092E+03 -0.13901687576E+03  0.13251292813E+04  0.13576060776E+04  0.00000000000E+00 0.  1.
         -3    1    6    6    0  502  0.24269238019E+03  0.42839462893E+02  0.56320053959E+03  0.61475983830E+03  0.00000000000E+00 0.  1.
<mgrwt>
<rscale>  0 0.12721962E+04</rscale>
<asrwt>0</asrwt>
<pdfrwt beam="1">  1        1 0.52245926E+00 0.12721962E+04</pdfrwt>
<pdfrwt beam="2">  1       -1 0.18330279E-01 0.12721962E+04</pdfrwt>
<totfact> 0.71401431E+00</totfact>
</mgrwt>
</event>
<event>
12    1  0.1442183E-007  0.1920005E+04  0.7818608E-02  0.8644962E-01
         -1   -1    0    0    0  501 -0.00000000000E+00  0.00000000000E+00  0.54544537974E+03  0.54544537974E+03  0.00000000000E+00 0.  1.
          1   -1    0    0  501    0  0.00000000000E+00 -0.00000000000E+00 -0.16896366938E+04  0.16896366938E+04  0.00000000000E+00 0. -1.
         23    2    1    2    0    0 -0.27103065787E+03  0.15759551985E+03 -0.12321533416E+04  0.12746866948E+04  0.91270737061E+02 0.  0.
        254    2    1    2    0    0  0.27103065787E+03 -0.15759551985E+03  0.87962027550E+02  0.96039537868E+03  0.90350871591E+03 0.  0.
        -24    2    4    4    0    0  0.42900249306E+02  0.31806819195E+03  0.23753068405E+03  0.40645418841E+03  0.76002468984E+02 0.  0.
         24    2    4    4    0    0  0.22813040856E+03 -0.47566371180E+03 -0.14956865650E+03  0.55394119026E+03  0.78616850797E+02 0.  0.
         11    1    3    3    0    0 -0.26418011651E+03  0.14485580625E+03 -0.10617337340E+04  0.11036543211E+04  0.00000000000E+00 0. -1.
        -11    1    3    3    0    0 -0.68505413589E+01  0.12739713600E+02 -0.17041960753E+03  0.17103237369E+03  0.00000000000E+00 0.  1.
          2    1    6    6  502    0  0.21386022329E+02 -0.11312291276E+03 -0.19284387932E+02  0.11673064277E+03  0.00000000000E+00 0. -1.
          1    1    5    5  503    0  0.49424332880E+02  0.19687078306E+03  0.18338140266E+03  0.27355001141E+03  0.00000000000E+00 0. -1.
         -2    1    5    5    0  503 -0.65240835736E+01  0.12119740890E+03  0.54149281389E+02  0.13290417700E+03  0.00000000000E+00 0.  1.
         -1    1    6    6    0  502  0.20674438623E+03 -0.36254079904E+03 -0.13028426857E+03  0.43721054750E+03  0.00000000000E+00 0.  1.
<mgrwt>
<rscale>  0 0.19200047E+04</rscale>
<asrwt>0</asrwt>
<pdfrwt beam="1">  1        1 0.25994410E+00 0.19200047E+04</pdfrwt>
<pdfrwt beam="2">  1       -1 0.83914676E-01 0.19200047E+04</pdfrwt>
<totfact> 0.63691132E+00</totfact>
</mgrwt>
</event>
<event>
12    1  0.1442183E-007  0.1322373E+04  0.7818608E-02  0.9012009E-01
         -1   -1    0    0    0  501 -0.00000000000E+00  0.00000000000E+00  0.28227947089E+03  0.28227947089E+03  0.00000000000E+00 0.  1.
          1   -1    0    0  501    0  0.00000000000E+00 -0.00000000000E+00 -0.15487044362E+04  0.15487044362E+04  0.00000000000E+00 0. -1.
         23    2    1    2    0    0 -0.28150269705E+03  0.60158772607E+02 -0.57210432727E+03  0.64611922526E+03  0.85462539166E+02 0.  0.
        254    2    1    2    0    0  0.28150269705E+03 -0.60158772607E+02 -0.69432063807E+03  0.11848646819E+04  0.91594777116E+03 0.  0.
        -24    2    4    4    0    0  0.19531408173E+03  0.36018922021E+03 -0.69823066215E+02  0.42289695196E+03  0.77991708051E+02 0.  0.
         24    2    4    4    0    0  0.86188615318E+02 -0.42034799281E+03 -0.62449757185E+03  0.76196772990E+03  0.80477895604E+02 0.  0.
         11    1    3    3    0    0 -0.21091498113E+03  0.16739043300E+02 -0.34906049354E+03  0.40817710982E+03  0.00000000000E+00 0. -1.
        -11    1    3    3    0    0 -0.70587715921E+02  0.43419729307E+02 -0.22304383373E+03  0.23794211544E+03  0.00000000000E+00 0.  1.
          4    1    6    6  502    0  0.68586558552E+02 -0.40751855449E+03 -0.60541626639E+03  0.73301046641E+03  0.00000000000E+00 0. -1.
          1    1    5    5  503    0  0.97523063768E+02  0.11433202187E+03 -0.44119679625E+01  0.15033969753E+03  0.00000000000E+00 0. -1.
         -2    1    5    5    0  503  0.97791017965E+02  0.24585719834E+03 -0.65411098252E+02  0.27255725443E+03  0.00000000000E+00 0.  1.
         -3    1    6    6    0  502  0.17602056766E+02 -0.12829438329E+02 -0.19081305465E+02  0.28957263484E+02  0.00000000000E+00 0.  1.
<mgrwt>
<rscale>  0 0.13223728E+04</rscale>
<asrwt>0</asrwt>
<pdfrwt beam="1">  1        1 0.23826222E+00 0.13223728E+04</pdfrwt>
<pdfrwt beam="2">  1       -1 0.43427611E-01 0.13223728E+04</pdfrwt>
<totfact> 0.31069108E+01</totfact>
</mgrwt>
</event>
<event>
12    1  0.1442183E-007  0.1694698E+04  0.7818608E-02  0.8764394E-01
          2   -1    0    0  501    0  0.00000000000E+00  0.00000000000E+00  0.10791476670E+04  0.10791476670E+04  0.00000000000E+00 0. -1.
         -2   -1    0    0    0  501 -0.00000000000E+00 -0.00000000000E+00 -0.66534029708E+03  0.66534029708E+03  0.00000000000E+00 0.  1.
         23    2    1    2    0    0 -0.42881960666E+03 -0.16603330541E+03  0.54659683511E+03  0.72046544994E+03  0.94069393809E+02 0.  0.
        254    2    1    2    0    0  0.42881960666E+03  0.16603330541E+03 -0.13278946522E+03  0.10240225141E+04  0.90528214042E+03 0.  0.
        -24    2    4    4    0    0  0.74405637917E+02 -0.22578780710E+02 -0.47655282423E+03  0.48938592241E+03  0.79686802413E+02 0.  0.
         24    2    4    4    0    0  0.35441396874E+03  0.18861208612E+03  0.34376335901E+03  0.53463659170E+03  0.80493837767E+02 0.  0.
         11    1    3    3    0    0 -0.14321366115E+03 -0.26740451675E+02  0.12133846409E+03  0.18960017764E+03  0.00000000000E+00 0.  1.
        -11    1    3    3    0    0 -0.28560594552E+03 -0.13929285373E+03  0.42525837102E+03  0.53086527230E+03  0.00000000000E+00 0. -1.
          2    1    6    6  502    0  0.23962772982E+03  0.93481849863E+02  0.24893014690E+03  0.35794765426E+03  0.00000000000E+00 0. -1.
          3    1    5    5  503    0  0.79806005593E+01  0.27105233263E+02 -0.13169895548E+03  0.13469594846E+03  0.00000000000E+00 0. -1.
         -4    1    5    5    0  503  0.66425037357E+02 -0.49684013973E+02 -0.34485386874E+03  0.35468997395E+03  0.00000000000E+00 0.  1.
         -1    1    6    6    0  502  0.11478623893E+03  0.95130236256E+02  0.94833212109E+02  0.17668893745E+03  0.00000000000E+00 0.  1.
<mgrwt>
<rscale>  0 0.16946981E+04</rscale>
<asrwt>0</asrwt>
<pdfrwt beam="1">  1        2 0.16602272E+00 0.16946981E+04</pdfrwt>
<pdfrwt beam="2">  1       -2 0.10236005E+00 0.16946981E+04</pdfrwt>
<totfact> 0.16697221E+01</totfact>
</mgrwt>
</event>
<event>
12    1  0.1442183E-007  0.1588382E+04  0.7818608E-02  0.8827717E-01
         -2   -1    0    0    0  501 -0.00000000000E+00  0.00000000000E+00  0.43419120315E+03  0.43419120315E+03  0.00000000000E+00 0.  1.
          2   -1    0    0  501    0  0.00000000000E+00 -0.00000000000E+00 -0.14526763806E+04  0.14526763806E+04  0.00000000000E+00 0. -1.
         23    2    1    2    0    0 -0.14124173499E+03 -0.16567241287E+03 -0.92332960690E+03  0.95299428809E+03  0.90906402754E+02 0.  0.
        254    2    1    2    0    0  0.14124173499E+03  0.16567241287E+03 -0.95155570587E+02  0.93387329569E+03  0.90314349563E+03 0.  0.
        -24    2    4    4    0    0 -0.10121915899E+03 -0.77103729010E+02 -0.42530217085E+03  0.45110037322E+03  0.80120577987E+02 0.  0.
         24    2    4    4    0    0  0.24246089398E+03  0.24277614188E+03  0.33014660027E+03  0.48277292247E+03  0.79657873619E+02 0.  0.
         13    1    3    3    0    0 -0.41842597248E+02 -0.11891968426E+03 -0.48836097872E+03  0.50437004251E+03  0.00000000000E+00 0. -1.
        -13    1    3    3    0    0 -0.99399137743E+02 -0.46752728608E+02 -0.43496862818E+03  0.44862424557E+03  0.00000000000E+00 0.  1.
          4    1    6    6  502    0  0.15107861601E+03  0.14775017481E+03  0.14828950697E+03  0.25815623225E+03  0.00000000000E+00 0. -1.
          1    1    5    5  503    0 -0.90443336493E+02 -0.56890337284E+02 -0.22052984103E+03  0.24505084855E+03  0.00000000000E+00 0. -1.
         -2    1    5    5    0  503 -0.10775822493E+02 -0.20213391726E+02 -0.20477232982E+03  0.20604952467E+03  0.00000000000E+00 0.  1.
         -3    1    6    6    0  502  0.91382277965E+02  0.95025967066E+02  0.18185709329E+03  0.22461669021E+03  0.00000000000E+00 0.  1.
<mgrwt>
<rscale>  0 0.15883820E+04</rscale>
<asrwt>0</asrwt>
<pdfrwt beam="1">  1        2 0.22348867E+00 0.15883820E+04</pdfrwt>
<pdfrwt beam="2">  1       -2 0.66798647E-01 0.15883820E+04</pdfrwt>
<totfact> 0.26672024E+01</totfact>
</mgrwt>
</event>
<event>
12    1  0.1442183E-007  0.3063903E+04  0.7818608E-02  0.8225715E-01
         -2   -1    0    0    0  501 -0.00000000000E+00  0.00000000000E+00  0.86900323795E+03  0.86900323795E+03  0.00000000000E+00 0.  1.
          2   -1    0    0  501    0  0.00000000000E+00 -0.00000000000E+00 -0.27006527536E+04  0.27006527536E+04  0.00000000000E+00 0. -1.
         23    2    1    2    0    0  0.23689922120E+02  0.13888187579E+04 -0.99176115582E+03  0.17091194977E+04  0.90113886418E+02 0.  0.
        254    2    1    2    0    0 -0.23689922120E+02 -0.13888187579E+04 -0.83988835983E+03  0.18605364938E+04  0.90928809133E+03 0.  0.
        -24    2    4    4    0    0  0.10125121954E+03 -0.64451272439E+02  0.14474081410E+03  0.20369015564E+03  0.78319858670E+02 0.  0.
         24    2    4    4    0    0 -0.12494114166E+03 -0.13243674855E+04 -0.98462917393E+03  0.16568463382E+04  0.78010593162E+02 0.  0.
         13    1    3    3    0    0 -0.24923881057E+02  0.25212257927E+03 -0.15789788058E+03  0.29852761265E+03  0.00000000000E+00 0.  1.
        -13    1    3    3    0    0  0.48613803177E+02  0.11366961787E+04 -0.83386327524E+03  0.14105918851E+04  0.00000000000E+00 0. -1.
          2    1    6    6  502    0 -0.11139950590E+03 -0.11142900622E+04 -0.86231182816E+03  0.14133767656E+04  0.00000000000E+00 0. -1.
          1    1    5    5  503    0  0.40231496537E+02 -0.68854811882E+02  0.63217678326E+02  0.10176459741E+03  0.00000000000E+00 0. -1.
         -2    1    5    5    0  503  0.61019722999E+02  0.44035394421E+01  0.81523135773E+02  0.10192555823E+03  0.00000000000E+00 0.  1.
         -1    1    6    6    0  502 -0.13541635760E+02 -0.21007742334E+03 -0.12231734577E+03  0.24346957258E+03  0.00000000000E+00 0.  1.
<mgrwt>
<rscale>  0 0.30639034E+04</rscale>
<asrwt>0</asrwt>
<pdfrwt beam="1">  1        2 0.41548504E+00 0.30639034E+04</pdfrwt>
<pdfrwt beam="2">  1       -2 0.13369280E+00 0.30639034E+04</pdfrwt>
<totfact> 0.91339313E-01</totfact>
</mgrwt>
</event>
<event>
12    1  0.1442183E-007  0.2738185E+04  0.7818608E-02  0.8322721E-01
         -1   -1    0    0    0  501 -0.00000000000E+00  0.00000000000E+00  0.59682162927E+03  0.59682162927E+03  0.00000000000E+00 0.  1.
          1   -1    0    0  501    0  0.00000000000E+00 -0.00000000000E+00 -0.31406600627E+04  0.31406600627E+04  0.00000000000E+00 0. -1.
         23    2    1    2    0    0 -0.10192542677E+04 -0.65719031740E+03 -0.96618616066E+03  0.15533271061E+04  0.92363553096E+02 0.  0.
        254    2    1    2    0    0  0.10192542677E+04  0.65719031740E+03 -0.15776522728E+04  0.21841545859E+04  0.90042555804E+03 0.  0.
        -24    2    4    4    0    0  0.75786923618E+03  0.85789056045E+03 -0.13685728230E+04  0.17858779601E+04  0.77630686439E+02 0.  0.
         24    2    4    4    0    0  0.26138503155E+03 -0.20070024305E+03 -0.20907944976E+03  0.39827662580E+03  0.79418713613E+02 0.  0.
         11    1    3    3    0    0 -0.15291903136E+03 -0.13117690615E+03 -0.13444326411E+03  0.24221189509E+03  0.00000000000E+00 0. -1.
        -11    1    3    3    0    0 -0.86633523638E+03 -0.52601341125E+03 -0.83174289655E+03  0.13111152110E+04  0.00000000000E+00 0.  1.
          2    1    6    6  502    0  0.90222942347E+02 -0.11440865505E+03 -0.10955222798E+03  0.18229429593E+03  0.00000000000E+00 0. -1.
          1    1    5    5  503    0  0.29038178134E+02  0.19435794483E+02 -0.27810156031E+02  0.44658377434E+02  0.00000000000E+00 0. -1.
         -2    1    5    5    0  503  0.72883105805E+03  0.83845476596E+03 -0.13407626670E+04  0.17412195826E+04  0.00000000000E+00 0.  1.
         -1    1    6    6    0  502  0.17116208920E+03 -0.86291588000E+02 -0.99527221783E+02  0.21598232987E+03  0.00000000000E+00 0.  1.
<mgrwt>
<rscale>  0 0.27381847E+04</rscale>
<asrwt>0</asrwt>
<pdfrwt beam="1">  1        1 0.48317846E+00 0.27381847E+04</pdfrwt>
<pdfrwt beam="2">  1       -1 0.91818714E-01 0.27381847E+04</pdfrwt>
<totfact> 0.47323771E-01</totfact>
</mgrwt>
</event>
<event>
12    1  0.1442183E-007  0.1361106E+04  0.7818608E-02  0.8982463E-01
         -2   -1    0    0    0  501 -0.00000000000E+00  0.00000000000E+00  0.14053220491E+03  0.14053220491E+03  0.00000000000E+00 0.  1.
          2   -1    0    0  501    0  0.00000000000E+00 -0.00000000000E+00 -0.32957023607E+04  0.32957023607E+04  0.00000000000E+00 0. -1.
         23    2    1    2    0    0 -0.28426820680E+03  0.15519915639E+03 -0.12931997203E+04  0.13360420315E+04  0.88020461656E+02 0.  0.
        254    2    1    2    0    0  0.28426820680E+03 -0.15519915639E+03 -0.18619704355E+04  0.21001925342E+04  0.91595828855E+03 0.  0.
        -24    2    4    4    0    0 -0.36843464470E+02  0.35335012376E+03 -0.65962479776E+03  0.75331566206E+03  0.78523003263E+02 0.  0.
         24    2    4    4    0    0  0.32111167127E+03 -0.50854928015E+03 -0.12023456377E+04  0.13468768721E+04  0.81897498579E+02 0.  0.
         13    1    3    3    0    0 -0.34905564718E+02  0.57513351562E+02 -0.29102037716E+03  0.29869557074E+03  0.00000000000E+00 0.  1.
        -13    1    3    3    0    0 -0.24936264208E+03  0.97685804826E+02 -0.10021793431E+04  0.10373464607E+04  0.00000000000E+00 0. -1.
          2    1    6    6  502    0  0.12104934502E+03 -0.23974015099E+03 -0.60578240071E+03  0.66264666372E+03  0.00000000000E+00 0. -1.
          1    1    5    5  503    0 -0.54126642981E+02  0.20763415725E+03 -0.43443691229E+03  0.48453799386E+03  0.00000000000E+00 0. -1.
         -2    1    5    5    0  503  0.17283178511E+02  0.14571596652E+03 -0.22518788547E+03  0.26877766820E+03  0.00000000000E+00 0.  1.
         -1    1    6    6    0  502  0.20006232624E+03 -0.26880912916E+03 -0.59656323700E+03  0.68423020837E+03  0.00000000000E+00 0.  1.
<mgrwt>
<rscale>  0 0.13611059E+04</rscale>
<asrwt>0</asrwt>
<pdfrwt beam="1">  1        2 0.50703108E+00 0.13611059E+04</pdfrwt>
<pdfrwt beam="2">  1       -2 0.21620342E-01 0.13611059E+04</pdfrwt>
<totfact> 0.20682939E+01</totfact>
</mgrwt>
</event>
<event>
12    1  0.1442183E-007  0.2084195E+04  0.7818608E-02  0.8568238E-01
         -2   -1    0    0    0  501 -0.00000000000E+00  0.00000000000E+00  0.10576685819E+04  0.10576685819E+04  0.00000000000E+00 0.  1.
          2   -1    0    0  501    0  0.00000000000E+00 -0.00000000000E+00 -0.10267557250E+04  0.10267557250E+04  0.00000000000E+00 0. -1.
         23    2    1    2    0    0 -0.10608808673E+03  0.65848364927E+03 -0.50478810509E+03  0.84083455634E+03  0.85652329756E+02 0.  0.
        254    2    1    2    0    0  0.10608808673E+03 -0.65848364927E+03  0.53570096191E+03  0.12435897506E+04  0.90259877500E+03 0.  0.
        -24    2    4    4    0    0 -0.30209053387E+03 -0.80814040953E+02 -0.43415220038E+02  0.32580206762E+03  0.80451886650E+02 0.  0.
         24    2    4    4    0    0  0.40817862059E+03 -0.57766960832E+03  0.57911618194E+03  0.91778768295E+03  0.81527394787E+02 0.  0.
         11    1    3    3    0    0 -0.90305593108E+02  0.52935615466E+03 -0.36173043103E+03  0.64747350784E+03  0.00000000000E+00 0.  1.
        -11    1    3    3    0    0 -0.15782493619E+02  0.12912749461E+03 -0.14305767406E+03  0.19336104850E+03  0.00000000000E+00 0. -1.
          2    1    6    6  502    0  0.26436908969E+02 -0.16994095705E+02  0.11978126935E+02  0.33633093369E+02  0.00000000000E+00 0. -1.
          1    1    5    5  503    0 -0.24105608419E+02 -0.22744086199E+02 -0.24448833566E+02  0.41183968689E+02  0.00000000000E+00 0. -1.
         -2    1    5    5    0  503 -0.27798492545E+03 -0.58069954754E+02 -0.18966386472E+02  0.28461809893E+03  0.00000000000E+00 0.  1.
         -1    1    6    6    0  502  0.38174171163E+03 -0.56067551262E+03  0.56713805501E+03  0.88415458958E+03  0.00000000000E+00 0.  1.
<mgrwt>
<rscale>  0 0.20841951E+04</rscale>
<asrwt>0</asrwt>
<pdfrwt beam="1">  1        2 0.15796242E+00 0.20841951E+04</pdfrwt>
<pdfrwt beam="2">  1       -2 0.16271824E+00 0.20841951E+04</pdfrwt>
<totfact> 0.53742419E+00</totfact>
</mgrwt>
</event>
<event>
12    1  0.1442183E-007  0.1372078E+04  0.7818608E-02  0.8974282E-01
          1   -1    0    0  501    0  0.00000000000E+00  0.00000000000E+00  0.55173434768E+03  0.55173434768E+03  0.00000000000E+00 0. -1.
         -1   -1    0    0    0  501 -0.00000000000E+00 -0.00000000000E+00 -0.85303594616E+03  0.85303594616E+03  0.00000000000E+00 0.  1.
         23    2    1    2    0    0 -0.34933052364E+03 -0.96553141885E+02  0.41025103929E+02  0.37557959647E+03  0.89569247934E+02 0.  0.
        254    2    1    2    0    0  0.34933052364E+03  0.96553141885E+02 -0.34232670241E+03  0.10291906974E+04  0.90038413825E+03 0.  0.
        -24    2    4    4    0    0  0.58179659921E+03 -0.55741524547E+02 -0.42666715820E+03  0.72794114080E+03  0.79114095930E+02 0.  0.
         24    2    4    4    0    0 -0.23246607556E+03  0.15229466643E+03  0.84340455796E+02  0.30124955656E+03  0.80024003489E+02 0.  0.
         13    1    3    3    0    0 -0.27637778543E+03 -0.11278564353E+03  0.36110982631E+02  0.30068136745E+03  0.00000000000E+00 0. -1.
        -13    1    3    3    0    0 -0.72952738213E+02  0.16232501640E+02  0.49141212979E+01  0.74898229020E+02  0.00000000000E+00 0.  1.
          4    1    6    6  502    0 -0.20176213736E+03  0.11543528399E+03  0.96618663856E+02  0.25173087031E+03  0.00000000000E+00 0. -1.
          1    1    5    5  503    0  0.57881186088E+03 -0.49033949142E+02 -0.41406491894E+03  0.71335633140E+03  0.00000000000E+00 0. -1.
         -2    1    5    5    0  503  0.29847383324E+01 -0.67075754044E+01 -0.12602239263E+02  0.14584809397E+02  0.00000000000E+00 0.  1.
         -3    1    6    6    0  502 -0.30703938208E+02  0.36859382440E+02 -0.12278208060E+02  0.49518686256E+02  0.00000000000E+00 0.  1.
<mgrwt>
<rscale>  0 0.13720776E+04</rscale>
<asrwt>0</asrwt>
<pdfrwt beam="1">  1        1 0.84882208E-01 0.13720776E+04</pdfrwt>
<pdfrwt beam="2">  1       -1 0.13123630E+00 0.13720776E+04</pdfrwt>
<totfact> 0.18689340E+01</totfact>
</mgrwt>
</event>
<event>
12    1  0.1442183E-007  0.1943522E+04  0.7818608E-02  0.8633491E-01
         -2   -1    0    0    0  501 -0.00000000000E+00  0.00000000000E+00  0.27476623067E+03  0.27476623067E+03  0.00000000000E+00 0.  1.
          2   -1    0    0  501    0  0.00000000000E+00 -0.00000000000E+00 -0.34368118271E+04  0.34368118271E+04  0.00000000000E+00 0. -1.
         23    2    1    2    0    0  0.74182881517E+02  0.43577040465E+03 -0.24260745523E+04  0.24678928425E+04  0.96220597330E+02 0.  0.
        254    2    1    2    0    0 -0.74182881517E+02 -0.43577040465E+03 -0.73597104411E+03  0.12436852152E+04  0.89983364649E+03 0.  0.
        -24    2    4    4    0    0  0.14342313316E+03 -0.19188994419E+03  0.15125282971E+03  0.29476135763E+03  0.81331996466E+02 0.  0.
         24    2    4    4    0    0 -0.21760601467E+03 -0.24388046046E+03 -0.88722387382E+03  0.94892385761E+03  0.80375547573E+02 0.  0.
         13    1    3    3    0    0  0.41198581782E+02  0.96649908603E+02 -0.76971528777E+03  0.77685272233E+03  0.00000000000E+00 0.  1.
        -13    1    3    3    0    0  0.32984299735E+02  0.33912049605E+03 -0.16563592645E+04  0.16910401202E+04  0.00000000000E+00 0. -1.
          4    1    6    6  502    0 -0.22084245328E+03 -0.23020376798E+03 -0.87030936231E+03  0.92693233307E+03  0.00000000000E+00 0. -1.
          1    1    5    5  503    0  0.68018186659E+02 -0.13067651497E+03  0.52880664437E+02  0.15652217081E+03  0.00000000000E+00 0. -1.
         -2    1    5    5    0  503  0.75404946496E+02 -0.61213429218E+02  0.98372165276E+02  0.13823918682E+03  0.00000000000E+00 0.  1.
         -3    1    6    6    0  502  0.32364386043E+01 -0.13676692480E+02 -0.16914511508E+02  0.21991524539E+02  0.00000000000E+00 0.  1.
<mgrwt>
<rscale>  0 0.19435224E+04</rscale>
<asrwt>0</asrwt>
<pdfrwt beam="1">  1        2 0.52874031E+00 0.19435224E+04</pdfrwt>
<pdfrwt beam="2">  1       -2 0.42271726E-01 0.19435224E+04</pdfrwt>
<totfact> 0.44788075E+00</totfact>
</mgrwt>
</event>
<event>
12    1  0.1442183E-007  0.1389171E+04  0.7818608E-02  0.8961695E-01
          1   -1    0    0  501    0  0.00000000000E+00  0.00000000000E+00  0.31481503521E+03  0.31481503521E+03  0.00000000000E+00 0. -1.
         -1   -1    0    0    0  501 -0.00000000000E+00 -0.00000000000E+00 -0.15324839900E+04  0.15324839900E+04  0.00000000000E+00 0.  1.
         23    2    1    2    0    0 -0.19608081461E+03  0.21238922852E+03 -0.72164965479E+03  0.78422824384E+03  0.10333849202E+03 0.  0.
        254    2    1    2    0    0  0.19608081461E+03 -0.21238922852E+03 -0.49601930005E+03  0.10630707814E+04  0.89472200712E+03 0.  0.
        -24    2    4    4    0    0 -0.34104552013E+03 -0.29429354603E+01 -0.12321543499E+03  0.37125558185E+03  0.79548450420E+02 0.  0.
         24    2    4    4    0    0  0.53712633474E+03 -0.20944629306E+03 -0.37280386505E+03  0.69181519956E+03  0.85165130179E+02 0.  0.
         11    1    3    3    0    0 -0.10827115733E+03  0.76978703865E+02 -0.21735460845E+03  0.25473788523E+03  0.00000000000E+00 0. -1.
        -11    1    3    3    0    0 -0.87809657283E+02  0.13541052465E+03 -0.50429504633E+03  0.52949035860E+03  0.00000000000E+00 0.  1.
          4    1    6    6  502    0  0.13692364906E+03 -0.19500535583E+02 -0.68213571550E+02  0.15421234679E+03  0.00000000000E+00 0. -1.
          1    1    5    5  503    0 -0.20769412290E+03  0.36856857712E+02 -0.69691673540E+02  0.22215356402E+03  0.00000000000E+00 0. -1.
         -2    1    5    5    0  503 -0.13335139723E+03 -0.39799793172E+02 -0.53523761454E+02  0.14910201783E+03  0.00000000000E+00 0.  1.
         -3    1    6    6    0  502  0.40020268568E+03 -0.18994575747E+03 -0.30459029350E+03  0.53760285277E+03  0.00000000000E+00 0.  1.
<mgrwt>
<rscale>  0 0.13891710E+04</rscale>
<asrwt>0</asrwt>
<pdfrwt beam="1">  1        1 0.48433083E-01 0.13891710E+04</pdfrwt>
<pdfrwt beam="2">  1       -1 0.23576676E+00 0.13891710E+04</pdfrwt>
<totfact> 0.69487656E+00</totfact>
</mgrwt>
</event>
<event>
12    1  0.1442183E-007  0.2933112E+04  0.7818608E-02  0.8263093E-01
          2   -1    0    0  501    0  0.00000000000E+00  0.00000000000E+00  0.21500826869E+04  0.21500826869E+04  0.00000000000E+00 0.  1.
         -2   -1    0    0    0  501 -0.00000000000E+00 -0.00000000000E+00 -0.10003270604E+04  0.10003270604E+04  0.00000000000E+00 0. -1.
         23    2    1    2    0    0  0.11448976984E+04 -0.53744408351E+03  0.95758313644E+03  0.15891504007E+04  0.93790458199E+02 0.  0.
        254    2    1    2    0    0 -0.11448976984E+04  0.53744408351E+03  0.19217249016E+03  0.15612593466E+04  0.89496569698E+03 0.  0.
        -24    2    4    4    0    0 -0.98977791223E+03  0.17182986042E+03 -0.16490041634E+03  0.10211747872E+04  0.80124791355E+02 0.  0.
         24    2    4    4    0    0 -0.15511978617E+03  0.36561422310E+03  0.35707290650E+03  0.54008455945E+03  0.80339047836E+02 0.  0.
         13    1    3    3    0    0  0.15335813226E+03 -0.40929910504E+02  0.10397663382E+03  0.18975013751E+03  0.00000000000E+00 0.  1.
        -13    1    3    3    0    0  0.99153956614E+03 -0.49651417301E+03  0.85360650262E+03  0.13994002632E+04  0.00000000000E+00 0. -1.
          2    1    6    6  502    0 -0.81080868377E+01 -0.10008064976E+01  0.17020224882E+02  0.18879373423E+02  0.00000000000E+00 0. -1.
          3    1    5    5  503    0 -0.95116671906E+02  0.32882437402E+02 -0.34807560122E+02  0.10648944645E+03  0.00000000000E+00 0. -1.
         -4    1    5    5    0  503 -0.89466124033E+03  0.13894742301E+03 -0.13009285622E+03  0.91468534073E+03  0.00000000000E+00 0.  1.
         -1    1    6    6    0  502 -0.14701169933E+03  0.36661502959E+03  0.34005268162E+03  0.52120518603E+03  0.00000000000E+00 0.  1.
<mgrwt>
<rscale>  0 0.29331116E+04</rscale>
<asrwt>0</asrwt>
<pdfrwt beam="1">  1        2 0.33078195E+00 0.29331116E+04</pdfrwt>
<pdfrwt beam="2">  1       -2 0.15389647E+00 0.29331116E+04</pdfrwt>
<totfact> 0.13267259E+00</totfact>
</mgrwt>
</event>
<event>
12    1  0.1442183E-007  0.1855910E+04  0.7818608E-02  0.8677120E-01
         -2   -1    0    0    0  501 -0.00000000000E+00  0.00000000000E+00  0.57897118142E+03  0.57897118142E+03  0.00000000000E+00 0.  1.
          2   -1    0    0  501    0  0.00000000000E+00 -0.00000000000E+00 -0.14872939269E+04  0.14872939269E+04  0.00000000000E+00 0. -1.
         23    2    1    2    0    0  0.35565700223E+03 -0.52225938251E+03 -0.70394514667E+03  0.95040900207E+03  0.92150615004E+02 0.  0.
        254    2    1    2    0    0 -0.35565700223E+03  0.52225938251E+03 -0.20437759883E+03  0.11158561063E+04  0.89672620188E+03 0.  0.
        -24    2    4    4    0    0 -0.11220747009E+03  0.73134140695E+03 -0.39736715878E+02  0.74589068950E+03  0.85575371633E+02 0.  0.
         24    2    4    4    0    0 -0.24344953214E+03 -0.20908202445E+03 -0.16464088296E+03  0.36996541677E+03  0.82370028624E+02 0.  0.
         11    1    3    3    0    0  0.98776767129E+02 -0.10162488210E+03 -0.20371583438E+03  0.24816246203E+03  0.00000000000E+00 0.  1.
        -11    1    3    3    0    0  0.25688023510E+03 -0.42063450041E+03 -0.50022931229E+03  0.70224654004E+03  0.00000000000E+00 0. -1.
          4    1    6    6  502    0 -0.89090090825E+02 -0.85781369828E+02 -0.10865733530E+03  0.16462655985E+03  0.00000000000E+00 0. -1.
          3    1    5    5  503    0 -0.12722053959E+02  0.11609560342E+03  0.24561717194E+02  0.11934537168E+03  0.00000000000E+00 0. -1.
         -4    1    5    5    0  503 -0.99485416134E+02  0.61524580353E+03 -0.64298433072E+02  0.62654531782E+03  0.00000000000E+00 0.  1.
         -3    1    6    6    0  502 -0.15435944131E+03 -0.12330065462E+03 -0.55983547660E+02  0.20533885692E+03  0.00000000000E+00 0.  1.
<mgrwt>
<rscale>  0 0.18559098E+04</rscale>
<asrwt>0</asrwt>
<pdfrwt beam="1">  1        2 0.22881445E+00 0.18559098E+04</pdfrwt>
<pdfrwt beam="2">  1       -2 0.89072490E-01 0.18559098E+04</pdfrwt>
<totfact> 0.13129295E+01</totfact>
</mgrwt>
</event>
<event>
12    1  0.1442183E-007  0.2408507E+04  0.7818608E-02  0.8436326E-01
         -1   -1    0    0    0  501 -0.00000000000E+00  0.00000000000E+00  0.71169346284E+03  0.71169346284E+03  0.00000000000E+00 0.  1.
          1   -1    0    0  501    0  0.00000000000E+00 -0.00000000000E+00 -0.20377116339E+04  0.20377116339E+04  0.00000000000E+00 0. -1.
         23    2    1    2    0    0 -0.38378005661E+03  0.49618760359E+03  0.36847691678E+03  0.73340018842E+03  0.92797243285E+02 0.  0.
        254    2    1    2    0    0  0.38378005661E+03 -0.49618760359E+03 -0.16944950879E+04  0.20160049083E+04  0.89413249458E+03 0.  0.
        -24    2    4    4    0    0  0.52500959505E+03 -0.64632759758E+03 -0.11034507193E+04  0.13847897000E+04  0.81636910432E+02 0.  0.
         24    2    4    4    0    0 -0.14122953844E+03  0.15013999399E+03 -0.59104436856E+03  0.63121520830E+03  0.81310474400E+02 0.  0.
         13    1    3    3    0    0 -0.33653615360E+03  0.47536321337E+03  0.34102650129E+03  0.67492654555E+03  0.00000000000E+00 0.  1.
        -13    1    3    3    0    0 -0.47243903007E+02  0.20824390221E+02  0.27450415487E+02  0.58473642865E+02  0.00000000000E+00 0. -1.
          4    1    6    6  502    0 -0.53352795652E+02  0.39322337198E+02 -0.30497378732E+03  0.31209257915E+03  0.00000000000E+00 0. -1.
          3    1    5    5  503    0  0.24179764314E+03 -0.23874018238E+03 -0.42365529599E+03  0.54309003373E+03  0.00000000000E+00 0. -1.
         -4    1    5    5    0  503  0.28321195191E+03 -0.40758741521E+03 -0.67979542330E+03  0.84169966632E+03  0.00000000000E+00 0.  1.
         -3    1    6    6    0  502 -0.87876742793E+02  0.11081765679E+03 -0.28607058124E+03  0.31912262914E+03  0.00000000000E+00 0.  1.
<mgrwt>
<rscale>  0 0.24085066E+04</rscale>
<asrwt>0</asrwt>
<pdfrwt beam="1">  1        1 0.31349409E+00 0.24085066E+04</pdfrwt>
<pdfrwt beam="2">  1       -1 0.10949130E+00 0.24085066E+04</pdfrwt>
<totfact> 0.19406950E+00</totfact>
</mgrwt>
</event>
<event>
12    1  0.1442183E-007  0.2229116E+04  0.7818608E-02  0.8506406E-01
          1   -1    0    0  501    0  0.00000000000E+00  0.00000000000E+00  0.10320708156E+04  0.10320708156E+04  0.00000000000E+00 0. -1.
         -1   -1    0    0    0  501 -0.00000000000E+00 -0.00000000000E+00 -0.12036374771E+04  0.12036374771E+04  0.00000000000E+00 0.  1.
         23    2    1    2    0    0 -0.22203010027E+03 -0.69630248929E+03  0.50383347288E+03  0.89248824428E+03  0.92480137049E+02 0.  0.
        254    2    1    2    0    0  0.22203010027E+03  0.69630248929E+03 -0.67540013440E+03  0.13432200484E+04  0.90218636367E+03 0.  0.
        -24    2    4    4    0    0  0.34667632146E+03  0.39393577183E+03  0.60485679169E+02  0.53407349896E+03  0.78778935739E+02 0.  0.
         24    2    4    4    0    0 -0.12464622119E+03  0.30236671746E+03 -0.73588581357E+03  0.80914654942E+03  0.78917016751E+02 0.  0.
         13    1    3    3    0    0 -0.17748682350E+03 -0.41923862032E+03  0.33164972921E+03  0.56325317235E+03  0.00000000000E+00 0. -1.
        -13    1    3    3    0    0 -0.44543276773E+02 -0.27706386898E+03  0.17218374368E+03  0.32923507192E+03  0.00000000000E+00 0.  1.
          4    1    6    6  502    0  0.48000060048E+01  0.89973962553E+01 -0.62318384152E+02  0.63147242223E+02  0.00000000000E+00 0. -1.
          1    1    5    5  503    0  0.52226585573E+02  0.28529492502E+02 -0.71767279878E+01  0.59942085446E+02  0.00000000000E+00 0. -1.
         -2    1    5    5    0  503  0.29444973589E+03  0.36540627933E+03  0.67662407157E+02  0.47413141352E+03  0.00000000000E+00 0.  1.
         -3    1    6    6    0  502 -0.12944622720E+03  0.29336932121E+03 -0.67356742942E+03  0.74599930720E+03  0.00000000000E+00 0.  1.
<mgrwt>
<rscale>  0 0.22291156E+04</rscale>
<asrwt>0</asrwt>
<pdfrwt beam="1">  1        1 0.15878013E+00 0.22291156E+04</pdfrwt>
<pdfrwt beam="2">  1       -1 0.18517500E+00 0.22291156E+04</pdfrwt>
<totfact> 0.24831619E+00</totfact>
</mgrwt>
</event>
<event>
12    1  0.1442183E-007  0.2135842E+04  0.7818608E-02  0.8545617E-01
         -2   -1    0    0    0  501 -0.00000000000E+00  0.00000000000E+00  0.11176309123E+04  0.11176309123E+04  0.00000000000E+00 0.  1.
          2   -1    0    0  501    0  0.00000000000E+00 -0.00000000000E+00 -0.10204220191E+04  0.10204220191E+04  0.00000000000E+00 0. -1.
         23    2    1    2    0    0  0.12685857403E+03 -0.70608617662E+03 -0.46242816146E+03  0.85867509582E+03  0.93980471613E+02 0.  0.
        254    2    1    2    0    0 -0.12685857403E+03  0.70608617662E+03  0.55963705472E+03  0.12793778356E+04  0.89942383030E+03 0.  0.
        -24    2    4    4    0    0 -0.27831917805E+03  0.84594821935E+03  0.31091039566E+03  0.94670405085E+03  0.80581207959E+02 0.  0.
         24    2    4    4    0    0  0.15146060402E+03 -0.13986204273E+03  0.24872665906E+03  0.33267378472E+03  0.79405229964E+02 0.  0.
         13    1    3    3    0    0  0.69126348960E+02 -0.25663415088E+03 -0.12505348340E+03  0.29373102190E+03  0.00000000000E+00 0.  1.
        -13    1    3    3    0    0  0.57732225071E+02 -0.44945202574E+03 -0.33737467805E+03  0.56494407391E+03  0.00000000000E+00 0. -1.
          4    1    6    6  502    0  0.73817053840E+02 -0.10870972121E+03  0.18768333248E+03  0.22911087755E+03  0.00000000000E+00 0. -1.
          3    1    5    5  503    0 -0.26637326549E+03  0.83868565802E+03  0.30321539375E+03  0.93074589687E+03  0.00000000000E+00 0. -1.
         -4    1    5    5    0  503 -0.11945912564E+02  0.72625613282E+01  0.76950019068E+01  0.15958153978E+02  0.00000000000E+00 0.  1.
         -3    1    6    6    0  502  0.77643550179E+02 -0.31152321520E+02  0.61043326585E+02  0.10356290717E+03  0.00000000000E+00 0.  1.
<mgrwt>
<rscale>  0 0.21358419E+04</rscale>
<asrwt>0</asrwt>
<pdfrwt beam="1">  1        2 0.15698800E+00 0.21358419E+04</pdfrwt>
<pdfrwt beam="2">  1       -2 0.17194322E+00 0.21358419E+04</pdfrwt>
<totfact> 0.46361357E+00</totfact>
</mgrwt>
</event>
<event>
12    1  0.1442183E-007  0.1255588E+04  0.7818608E-02  0.9065545E-01
          2   -1    0    0  501    0  0.00000000000E+00  0.00000000000E+00  0.50361044775E+03  0.50361044775E+03  0.00000000000E+00 0.  1.
         -2   -1    0    0    0  501 -0.00000000000E+00 -0.00000000000E+00 -0.78259946537E+03  0.78259946537E+03  0.00000000000E+00 0. -1.
         23    2    1    2    0    0 -0.76714310072E+02  0.15614136750E+03 -0.27353363583E+03  0.33662905475E+03  0.90737305218E+02 0.  0.
        254    2    1    2    0    0  0.76714310072E+02 -0.15614136750E+03 -0.54553817971E+01  0.94958085837E+03  0.93349281378E+03 0.  0.
        -24    2    4    4    0    0 -0.19031038328E+03 -0.34654152989E+03 -0.29895039612E+03  0.50253101004E+03  0.82807021380E+02 0.  0.
         24    2    4    4    0    0  0.26702469336E+03  0.19040016239E+03  0.29349501432E+03  0.44704984833E+03  0.78484614820E+02 0.  0.
         13    1    3    3    0    0 -0.82998352291E+01 -0.69313327922E+00  0.50164058828E+01  0.97227581762E+01  0.00000000000E+00 0.  1.
        -13    1    3    3    0    0 -0.68414474843E+02  0.15683450078E+03 -0.27855004171E+03  0.32690629657E+03  0.00000000000E+00 0. -1.
          4    1    6    6  502    0  0.22313627611E+03  0.11774551601E+03  0.22245868595E+03  0.33636538349E+03  0.00000000000E+00 0. -1.
          3    1    5    5  503    0 -0.17794272678E+03 -0.25172347722E+03 -0.23152574755E+03  0.38552885077E+03  0.00000000000E+00 0. -1.
         -4    1    5    5    0  503 -0.12367656505E+02 -0.94818052674E+02 -0.67424648567E+02  0.11700215927E+03  0.00000000000E+00 0.  1.
         -3    1    6    6    0  502  0.43888417249E+02  0.72654646382E+02  0.71036328371E+02  0.11068446484E+03  0.00000000000E+00 0.  1.
<mgrwt>
<rscale>  0 0.12555879E+04</rscale>
<asrwt>0</asrwt>
<pdfrwt beam="1">  1        2 0.77478530E-01 0.12555879E+04</pdfrwt>
<pdfrwt beam="2">  1       -2 0.12039992E+00 0.12555879E+04</pdfrwt>
<totfact> 0.31606391E+01</totfact>
</mgrwt>
</event>
<event>
12    1  0.1442183E-007  0.1600222E+04  0.7818608E-02  0.8820412E-01
         -2   -1    0    0    0  501 -0.00000000000E+00  0.00000000000E+00  0.39665409448E+03  0.39665409448E+03  0.00000000000E+00 0.  1.
          2   -1    0    0  501    0  0.00000000000E+00 -0.00000000000E+00 -0.16139442185E+04  0.16139442185E+04  0.00000000000E+00 0. -1.
         23    2    1    2    0    0 -0.47618010127E+03  0.22349182353E+03 -0.55474791012E+03  0.76990506671E+03  0.91172824563E+02 0.  0.
        254    2    1    2    0    0  0.47618010127E+03 -0.22349182353E+03 -0.66254221394E+03  0.12406932463E+04  0.90755796627E+03 0.  0.
        -24    2    4    4    0    0  0.24556221100E+03 -0.26408738354E+03  0.14438149432E+03  0.39654467676E+03  0.79741577303E+02 0.  0.
         24    2    4    4    0    0  0.23061789026E+03  0.40595560002E+02 -0.80692370826E+03  0.84414856954E+03  0.81414530105E+02 0.  0.
         11    1    3    3    0    0 -0.38424958628E+03  0.21417316137E+03 -0.43511995957E+03  0.61874652874E+03  0.00000000000E+00 0. -1.
        -11    1    3    3    0    0 -0.91930514981E+02  0.93186621634E+01 -0.11962795055E+03  0.15115853797E+03  0.00000000000E+00 0.  1.
          4    1    6    6  502    0  0.96731040471E+02  0.27628862991E+02 -0.48373171275E+03  0.49408159061E+03  0.00000000000E+00 0. -1.
          3    1    5    5  503    0  0.23003184080E+03 -0.25215819742E+03  0.11296925322E+03  0.35952810249E+03  0.00000000000E+00 0. -1.
         -4    1    5    5    0  503  0.15530370203E+02 -0.11929186117E+02  0.31412241095E+02  0.37016574270E+02  0.00000000000E+00 0.  1.
         -3    1    6    6    0  502  0.13388684979E+03  0.12966697011E+02 -0.32319199551E+03  0.35006697893E+03  0.00000000000E+00 0.  1.
<mgrwt>
<rscale>  0 0.16002220E+04</rscale>
<asrwt>0</asrwt>
<pdfrwt beam="1">  1        2 0.24829911E+00 0.16002220E+04</pdfrwt>
<pdfrwt beam="2">  1       -2 0.61023707E-01 0.16002220E+04</pdfrwt>
<totfact> 0.26240854E+01</totfact>
</mgrwt>
</event>
<event>
12    1  0.1487991E-007  0.1696674E+04  0.7818608E-02  0.8763263E-01
          2   -1    0    0  501    0  0.00000000000E+00  0.00000000000E+00  0.57312415714E+03  0.57312415714E+03  0.00000000000E+00 0. -1.
         -2   -1    0    0    0  501 -0.00000000000E+00 -0.00000000000E+00 -0.12557066990E+04  0.12557066990E+04  0.00000000000E+00 0.  1.
         23    2    1    2    0    0  0.35321856902E+03  0.22556452800E+03 -0.71709119304E+03  0.83519789618E+03  0.87709935876E+02 0.  0.
        254    2    1    2    0    0 -0.35321856902E+03 -0.22556452800E+03  0.34508651170E+02  0.99363295997E+03  0.90026268297E+03 0.  0.
        -24    2    4    4    0    0 -0.58146752341E+03 -0.27732051954E+03  0.21880781275E+03  0.68495317879E+03  0.79201306034E+02 0.  0.
         24    2    4    4    0    0  0.22824895439E+03  0.51755991543E+02 -0.18429916158E+03  0.30867978118E+03  0.80874956027E+02 0.  0.
         11    1    3    3    0    0  0.22165812838E+03  0.14151256056E+03 -0.52896719362E+03  0.59073210731E+03  0.00000000000E+00 0.  1.
        -11    1    3    3    0    0  0.13156044064E+03  0.84051967435E+02 -0.18812399942E+03  0.24446578887E+03  0.00000000000E+00 0. -1.
          4    1    6    6  502    0  0.23028444030E+03  0.60696302974E+02 -0.17434338320E+03  0.29514501504E+03  0.00000000000E+00 0. -1.
          3    1    5    5  503    0 -0.58060332204E+03 -0.28080886056E+03  0.21530282473E+03  0.67993318794E+03  0.00000000000E+00 0. -1.
         -4    1    5    5    0  503 -0.86420136543E+00  0.34883410144E+01  0.35049880264E+01  0.50199908464E+01  0.00000000000E+00 0.  1.
         -3    1    6    6    0  502 -0.20354859094E+01 -0.89403114308E+01 -0.99557783840E+01  0.13534766145E+02  0.00000000000E+00 0.  1.
<mgrwt>
<rscale>  0 0.16966742E+04</rscale>
<asrwt>0</asrwt>
<pdfrwt beam="1">  1        2 0.88172948E-01 0.16966742E+04</pdfrwt>
<pdfrwt beam="2">  1       -2 0.19318564E+00 0.16966742E+04</pdfrwt>
<totfact> 0.73548748E+00</totfact>
</mgrwt>
</event>
<event>
12    1  0.1442183E-007  0.1913507E+04  0.7818608E-02  0.8648162E-01
          2   -1    0    0  501    0  0.00000000000E+00  0.00000000000E+00  0.44566441159E+03  0.44566441159E+03  0.00000000000E+00 0. -1.
         -2   -1    0    0    0  501 -0.00000000000E+00 -0.00000000000E+00 -0.20539599284E+04  0.20539599284E+04  0.00000000000E+00 0.  1.
         23    2    1    2    0    0  0.28493665308E+03 -0.31088752662E+03 -0.13921643834E+04  0.14576327023E+04  0.93442355370E+02 0.  0.
        254    2    1    2    0    0 -0.28493665308E+03  0.31088752662E+03 -0.21613113337E+03  0.10419916377E+04  0.92800536408E+03 0.  0.
        -24    2    4    4    0    0  0.26253479079E+02  0.33259136657E+03  0.28500468841E+03  0.44616351374E+03  0.80795707160E+02 0.  0.
         24    2    4    4    0    0 -0.31119013215E+03 -0.21703839949E+02 -0.50113582179E+03  0.59582812397E+03  0.81016581109E+02 0.  0.
         11    1    3    3    0    0  0.24026536683E+03 -0.30002379438E+03 -0.12005326418E+04  0.12605635041E+04  0.00000000000E+00 0.  1.
        -11    1    3    3    0    0  0.44671286243E+02 -0.10863732242E+02 -0.19163174160E+03  0.19706919821E+03  0.00000000000E+00 0. -1.
          4    1    6    6  502    0 -0.29899788432E+03 -0.34829554865E+02 -0.44786520800E+03  0.53962586785E+03  0.00000000000E+00 0. -1.
          1    1    5    5  503    0  0.13945772992E+02  0.29701730991E+03  0.21585955156E+03  0.36743586239E+03  0.00000000000E+00 0. -1.
         -2    1    5    5    0  503  0.12307706087E+02  0.35574056653E+02  0.69145136855E+02  0.78727651347E+02  0.00000000000E+00 0.  1.
         -3    1    6    6    0  502 -0.12192247839E+02  0.13125714916E+02 -0.53270613785E+02  0.56202256115E+02  0.00000000000E+00 0.  1.
<mgrwt>
<rscale>  0 0.19135066E+04</rscale>
<asrwt>0</asrwt>
<pdfrwt beam="1">  1        2 0.68563754E-01 0.19135066E+04</pdfrwt>
<pdfrwt beam="2">  1       -2 0.31599384E+00 0.19135066E+04</pdfrwt>
<totfact> 0.16706589E+00</totfact>
</mgrwt>
</event>
<event>
12    1  0.1442183E-007  0.3335459E+04  0.7818608E-02  0.8153931E-01
          2   -1    0    0  501    0  0.00000000000E+00  0.00000000000E+00  0.16516427529E+04  0.16516427529E+04  0.00000000000E+00 0. -1.
         -2   -1    0    0    0  501 -0.00000000000E+00 -0.00000000000E+00 -0.16839733670E+04  0.16839733670E+04  0.00000000000E+00 0.  1.
         23    2    1    2    0    0  0.11393389636E+04  0.64984215504E+03 -0.83357753326E+03  0.15567651495E+04  0.90984209214E+02 0.  0.
        254    2    1    2    0    0 -0.11393389636E+04 -0.64984215504E+03  0.80124691911E+03  0.17788509704E+04  0.89550323793E+03 0.  0.
        -24    2    4    4    0    0 -0.18177927034E+03 -0.11146852258E+03  0.62271599111E+03  0.66295307055E+03  0.79136802524E+02 0.  0.
         24    2    4    4    0    0 -0.95755969327E+03 -0.53837363246E+03  0.17853092799E+03  0.11158978999E+04  0.81167089343E+02 0.  0.
         13    1    3    3    0    0  0.56741201818E+03  0.29281402108E+03 -0.36196176228E+03  0.73397054891E+03  0.00000000000E+00 0.  1.
        -13    1    3    3    0    0  0.57192694543E+03  0.35702813396E+03 -0.47161577098E+03  0.82279460061E+03  0.00000000000E+00 0. -1.
          2    1    6    6  502    0 -0.14404090708E+03 -0.62062771632E+02  0.49130097782E+02  0.16435734557E+03  0.00000000000E+00 0. -1.
          1    1    5    5  503    0 -0.44116009491E+02 -0.44313274061E+02  0.97246110124E+02  0.11561442162E+03  0.00000000000E+00 0. -1.
         -2    1    5    5    0  503 -0.13766326084E+03 -0.67155248523E+02  0.52546988099E+03  0.54733864893E+03  0.00000000000E+00 0.  1.
         -1    1    6    6    0  502 -0.81351878619E+03 -0.47631086082E+03  0.12940083021E+03  0.95154055431E+03  0.00000000000E+00 0.  1.
<mgrwt>
<rscale>  0 0.33354594E+04</rscale>
<asrwt>0</asrwt>
<pdfrwt beam="1">  1        2 0.25409889E+00 0.33354594E+04</pdfrwt>
<pdfrwt beam="2">  1       -2 0.25907283E+00 0.33354594E+04</pdfrwt>
<totfact> 0.49123621E-01</totfact>
</mgrwt>
</event>
<event>
12    1  0.2125362E-007  0.1927872E+04  0.7818608E-02  0.8641106E-01
         -2   -1    0    0    0  501 -0.00000000000E+00  0.00000000000E+00  0.10180828356E+04  0.10180828356E+04  0.00000000000E+00 0.  1.
          2   -1    0    0  501    0  0.00000000000E+00 -0.00000000000E+00 -0.91266920466E+03  0.91266920466E+03  0.00000000000E+00 0. -1.
         23    2    1    2    0    0 -0.55187550930E+02 -0.43205507430E+03  0.65396648496E+03  0.79105131669E+03  0.91502837072E+02 0.  0.
        254    2    1    2    0    0  0.55187550930E+02  0.43205507430E+03 -0.54855285402E+03  0.11397007236E+04  0.89904963857E+03 0.  0.
        -24    2    4    4    0    0  0.38135036037E+03  0.25026673791E+03 -0.59586603966E+03  0.75492137037E+03  0.82391751801E+02 0.  0.
         24    2    4    4    0    0 -0.32616280943E+03  0.18178833638E+03  0.47313185634E+02  0.38477935319E+03  0.79921433924E+02 0.  0.
         11    1    3    3    0    0 -0.20055101575E+02 -0.37204703598E+03  0.58144694931E+03  0.69058074035E+03  0.00000000000E+00 0.  1.
        -11    1    3    3    0    0 -0.35132449355E+02 -0.60008038319E+02  0.72519535650E+02  0.10047057635E+03  0.00000000000E+00 0. -1.
          2    1    6    6  502    0 -0.30794577499E+03  0.16510705632E+03  0.23080450855E+02  0.35017659487E+03  0.00000000000E+00 0. -1.
          3    1    5    5  503    0  0.37396633203E+03  0.22798392183E+03 -0.54725404623E+03  0.70093828346E+03  0.00000000000E+00 0. -1.
         -2    1    5    5    0  503  0.73840283344E+01  0.22282816084E+02 -0.48611993429E+02  0.53983086909E+02  0.00000000000E+00 0.  1.
         -1    1    6    6    0  502 -0.18217034446E+02  0.16681280059E+02  0.24232734779E+02  0.34602758319E+02  0.00000000000E+00 0.  1.
<mgrwt>
<rscale>  0 0.19278722E+04</rscale>
<asrwt>0</asrwt>
<pdfrwt beam="1">  1        2 0.14041065E+00 0.19278722E+04</pdfrwt>
<pdfrwt beam="2">  1       -2 0.15662813E+00 0.19278722E+04</pdfrwt>
<totfact> 0.71683640E+00</totfact>
</mgrwt>
</event>
<event>
12    1  0.1442183E-007  0.1265833E+04  0.7818608E-02  0.9057107E-01
          2   -1    0    0  501    0  0.00000000000E+00  0.00000000000E+00  0.35542512369E+03  0.35542512369E+03  0.00000000000E+00 0. -1.
         -2   -1    0    0    0  501 -0.00000000000E+00 -0.00000000000E+00 -0.11270548474E+04  0.11270548474E+04  0.00000000000E+00 0.  1.
         23    2    1    2    0    0  0.16681297198E+02 -0.13772809822E+03 -0.51341118764E+03  0.53837095031E+03  0.83695506564E+02 0.  0.
        254    2    1    2    0    0 -0.16681297198E+02  0.13772809822E+03 -0.25821853606E+03  0.94410902077E+03  0.89745068724E+03 0.  0.
        -24    2    4    4    0    0  0.25834723114E+03  0.29047054085E+03 -0.42361276143E+03  0.57975584400E+03  0.74516038998E+02 0.  0.
         24    2    4    4    0    0 -0.27502852834E+03 -0.15274244263E+03  0.16539422537E+03  0.36435317677E+03  0.80168837190E+02 0.  0.
         11    1    3    3    0    0  0.24193326144E+02 -0.12332584876E+03 -0.31279674539E+03  0.33709996430E+03  0.00000000000E+00 0.  1.
        -11    1    3    3    0    0 -0.75120289459E+01 -0.14402249463E+02 -0.20061444225E+03  0.20127098600E+03  0.00000000000E+00 0. -1.
          2    1    6    6  502    0 -0.22197897756E+02 -0.28832510031E+02  0.45671633857E+02  0.58394849419E+02  0.00000000000E+00 0. -1.
          3    1    5    5  503    0  0.11108269594E+03  0.16990199967E+03 -0.25103275682E+03  0.32283664573E+03  0.00000000000E+00 0. -1.
         -4    1    5    5    0  503  0.14726453519E+03  0.12056854119E+03 -0.17258000461E+03  0.25691919827E+03  0.00000000000E+00 0.  1.
         -1    1    6    6    0  502 -0.25283063058E+03 -0.12390993260E+03  0.11972259151E+03  0.30595832735E+03  0.00000000000E+00 0.  1.
<mgrwt>
<rscale>  0 0.12658335E+04</rscale>
<asrwt>0</asrwt>
<pdfrwt beam="1">  1        2 0.54680789E-01 0.12658335E+04</pdfrwt>
<pdfrwt beam="2">  1       -2 0.17339305E+00 0.12658335E+04</pdfrwt>
<totfact> 0.17974012E+01</totfact>
</mgrwt>
</event>
<event>
12    1  0.1442183E-007  0.1818919E+04  0.7818608E-02  0.8696303E-01
         -2   -1    0    0    0  501 -0.00000000000E+00  0.00000000000E+00  0.41696951676E+03  0.41696951676E+03  0.00000000000E+00 0.  1.
          2   -1    0    0  501    0  0.00000000000E+00 -0.00000000000E+00 -0.19836384614E+04  0.19836384614E+04  0.00000000000E+00 0. -1.
         23    2    1    2    0    0  0.33537887536E+02 -0.60456558563E+03 -0.17393607583E+03  0.63668394812E+03  0.92132264064E+02 0.  0.
        254    2    1    2    0    0 -0.33537887536E+02  0.60456558563E+03 -0.13927328688E+04  0.17639240300E+04  0.89727298114E+03 0.  0.
        -24    2    4    4    0    0 -0.32572576066E+03  0.15490097851E+03 -0.10721382356E+04  0.11341891813E+04  0.82541615898E+02 0.  0.
         24    2    4    4    0    0  0.29218787313E+03  0.44966460712E+03 -0.32059463317E+03  0.62973484875E+03  0.78822895273E+02 0.  0.
         13    1    3    3    0    0 -0.63831910315E+01 -0.22624517710E+03 -0.10725971575E+03  0.25046411302E+03  0.00000000000E+00 0.  1.
        -13    1    3    3    0    0  0.39921078568E+02 -0.37832040854E+03 -0.66676360080E+02  0.38621983510E+03  0.00000000000E+00 0. -1.
          2    1    6    6  502    0  0.10187494234E+03  0.14892202071E+03 -0.65912572494E+02  0.19209565154E+03  0.00000000000E+00 0. -1.
          1    1    5    5  503    0 -0.36110920156E+02  0.45815263794E+02 -0.12909275128E+03  0.14166148165E+03  0.00000000000E+00 0. -1.
         -2    1    5    5    0  503 -0.28961484051E+03  0.10908571472E+03 -0.94304548432E+03  0.99252769961E+03  0.00000000000E+00 0.  1.
         -1    1    6    6    0  502  0.19031293079E+03  0.30074258641E+03 -0.25468206068E+03  0.43763919721E+03  0.00000000000E+00 0.  1.
<mgrwt>
<rscale>  0 0.18189192E+04</rscale>
<asrwt>0</asrwt>
<pdfrwt beam="1">  1        2 0.30517515E+00 0.18189192E+04</pdfrwt>
<pdfrwt beam="2">  1       -2 0.64149156E-01 0.18189192E+04</pdfrwt>
<totfact> 0.14443660E+01</totfact>
</mgrwt>
</event>
<event>
12    1  0.1442183E-007  0.1896074E+04  0.7818608E-02  0.8656813E-01
         -2   -1    0    0    0  501 -0.00000000000E+00  0.00000000000E+00  0.64107941789E+03  0.64107941789E+03  0.00000000000E+00 0. -1.
          2   -1    0    0  501    0  0.00000000000E+00 -0.00000000000E+00 -0.14019699072E+04  0.14019699072E+04  0.00000000000E+00 0.  1.
         23    2    1    2    0    0  0.46306618542E+03 -0.40215855367E+03 -0.65327176313E+03  0.90042073283E+03  0.88496922221E+02 0.  0.
        254    2    1    2    0    0 -0.46306618542E+03  0.40215855367E+03 -0.10761872618E+03  0.11426285923E+04  0.95804828442E+03 0.  0.
        -24    2    4    4    0    0 -0.15712818222E+03 -0.77526747015E+01 -0.47569377812E+03  0.50757972309E+03  0.81260292474E+02 0.  0.
         24    2    4    4    0    0 -0.30593800319E+03  0.40991122837E+03  0.36807505194E+03  0.63504886918E+03  0.78629164068E+02 0.  0.
         13    1    3    3    0    0  0.84527765573E+01  0.24821228723E+01 -0.19909270527E+01  0.90318412303E+01  0.00000000000E+00 0. -1.
        -13    1    3    3    0    0  0.45461340886E+03 -0.40464067654E+03 -0.65128083608E+03  0.89138889160E+03  0.00000000000E+00 0.  1.
          2    1    6    6  502    0 -0.31032184291E+03  0.39717377868E+03  0.35861504271E+03  0.61858823584E+03  0.00000000000E+00 0. -1.
          1    1    5    5  503    0 -0.12402429525E+03  0.29149588953E+02 -0.33514352409E+03  0.35854275350E+03  0.00000000000E+00 0. -1.
         -2    1    5    5    0  503 -0.33103886975E+02 -0.36902263654E+02 -0.14055025403E+03  0.14903696959E+03  0.00000000000E+00 0.  1.
         -1    1    6    6    0  502  0.43838397211E+01  0.12737449685E+02  0.94600092300E+01  0.16460633336E+02  0.00000000000E+00 0.  1.
<mgrwt>
<rscale>  0 0.18960739E+04</rscale>
<asrwt>0</asrwt>
<pdfrwt beam="1">  1        2 0.21568768E+00 0.18960739E+04</pdfrwt>
<pdfrwt beam="2">  1       -2 0.98627603E-01 0.18960739E+04</pdfrwt>
<totfact> 0.11541637E+01</totfact>
</mgrwt>
</event>
<event>
12    1  0.1442183E-007  0.1855821E+04  0.7818608E-02  0.8677165E-01
         -2   -1    0    0    0  501 -0.00000000000E+00  0.00000000000E+00  0.74890492036E+03  0.74890492036E+03  0.00000000000E+00 0.  1.
          2   -1    0    0  501    0  0.00000000000E+00 -0.00000000000E+00 -0.11497023013E+04  0.11497023013E+04  0.00000000000E+00 0. -1.
         23    2    1    2    0    0  0.75698820209E+02 -0.66616047655E+03  0.85657112454E+02  0.68185160282E+03  0.89913155056E+02 0.  0.
        254    2    1    2    0    0 -0.75698820209E+02  0.66616047655E+03 -0.48645449338E+03  0.12167556188E+04  0.89126660991E+03 0.  0.
        -24    2    4    4    0    0 -0.48988309680E+02  0.82558691143E+03 -0.57971108372E+03  0.10132065262E+04  0.80801741115E+02 0.  0.
         24    2    4    4    0    0 -0.26710510530E+02 -0.15942643487E+03  0.93256590347E+02  0.20354909262E+03  0.81272393553E+02 0.  0.
         11    1    3    3    0    0 -0.54854931457E+01 -0.42359254414E+01  0.78053279486E+01  0.10438239496E+02  0.00000000000E+00 0. -1.
        -11    1    3    3    0    0  0.81184313355E+02 -0.66192455111E+03  0.77851784506E+02  0.67141336332E+03  0.00000000000E+00 0.  1.
          4    1    6    6  502    0 -0.37679402782E+02 -0.16373248969E+03  0.92375510496E+02  0.19173236689E+03  0.00000000000E+00 0. -1.
          1    1    5    5  503    0 -0.34329072652E+02  0.46953553248E+03 -0.37773985228E+03  0.60359713178E+03  0.00000000000E+00 0. -1.
         -2    1    5    5    0  503 -0.14659237028E+02  0.35605137894E+03 -0.20197123144E+03  0.40960939443E+03  0.00000000000E+00 0.  1.
         -3    1    6    6    0  502  0.10968892252E+02  0.43060548138E+01  0.88107985086E+00  0.11816725731E+02  0.00000000000E+00 0.  1.
<mgrwt>
<rscale>  0 0.18558208E+04</rscale>
<asrwt>0</asrwt>
<pdfrwt beam="1">  1        2 0.17687728E+00 0.18558208E+04</pdfrwt>
<pdfrwt beam="2">  1       -2 0.11521614E+00 0.18558208E+04</pdfrwt>
<totfact> 0.11206377E+01</totfact>
</mgrwt>
</event>
<event>
12    1  0.1442183E-007  0.1601080E+04  0.7818608E-02  0.8819885E-01
         -2   -1    0    0    0  501 -0.00000000000E+00  0.00000000000E+00  0.44208840447E+03  0.44208840447E+03  0.00000000000E+00 0.  1.
          2   -1    0    0  501    0  0.00000000000E+00 -0.00000000000E+00 -0.14496298376E+04  0.14496298376E+04  0.00000000000E+00 0. -1.
         23    2    1    2    0    0 -0.81448690049E+02  0.22184088495E+03  0.23288586906E+03  0.34445207763E+03  0.92542630331E+02 0.  0.
        254    2    1    2    0    0  0.81448690049E+02 -0.22184088495E+03 -0.12404273022E+04  0.15472661645E+04  0.89416185577E+03 0.  0.
        -24    2    4    4    0    0  0.10308839115E+03 -0.21327383259E+02 -0.13121535444E+04  0.13188034868E+04  0.80085199208E+02 0.  0.
         24    2    4    4    0    0 -0.21639701100E+02 -0.20051350169E+03  0.71726242145E+02  0.22846267768E+03  0.79853617686E+02 0.  0.
         11    1    3    3    0    0 -0.42562791320E+02  0.24119190979E+02  0.69692207554E+02  0.85148871820E+02  0.00000000000E+00 0.  1.
        -11    1    3    3    0    0 -0.38885898729E+02  0.19772169397E+03  0.16319366150E+03  0.25930320581E+03  0.00000000000E+00 0. -1.
          2    1    6    6  502    0 -0.17278026800E+02 -0.62273717080E+01  0.20429679479E+02  0.27471479249E+02  0.00000000000E+00 0. -1.
          1    1    5    5  503    0  0.49703226082E+00  0.19371851629E+02 -0.12032150160E+03  0.12187197965E+03  0.00000000000E+00 0. -1.
         -2    1    5    5    0  503  0.10259135889E+03 -0.40699234888E+02 -0.11918320428E+04  0.11969315072E+04  0.00000000000E+00 0.  1.
         -1    1    6    6    0  502 -0.43616743005E+01 -0.19428612998E+03  0.51296562666E+02  0.20099119843E+03  0.00000000000E+00 0.  1.
<mgrwt>
<rscale>  0 0.16010803E+04</rscale>
<asrwt>0</asrwt>
<pdfrwt beam="1">  1        2 0.22301998E+00 0.16010803E+04</pdfrwt>
<pdfrwt beam="2">  1       -2 0.68013600E-01 0.16010803E+04</pdfrwt>
<totfact> 0.25727216E+01</totfact>
</mgrwt>
</event>
<event>
12    1  0.1442183E-007  0.1497501E+04  0.7818608E-02  0.8886116E-01
         -2   -1    0    0    0  501 -0.00000000000E+00  0.00000000000E+00  0.62478162115E+03  0.62478162115E+03  0.00000000000E+00 0.  1.
          2   -1    0    0  501    0  0.00000000000E+00 -0.00000000000E+00 -0.89731738381E+03  0.89731738381E+03  0.00000000000E+00 0. -1.
         23    2    1    2    0    0  0.41559367876E+03  0.21260160938E+03 -0.13260728569E+03  0.49413470190E+03  0.93095978796E+02 0.  0.
        254    2    1    2    0    0 -0.41559367876E+03 -0.21260160938E+03 -0.13992847698E+03  0.10279643031E+04  0.90510390540E+03 0.  0.
        -24    2    4    4    0    0 -0.55476407619E+02  0.27695659101E+03 -0.27346487987E+03  0.40083204946E+03  0.78107017912E+02 0.  0.
         24    2    4    4    0    0 -0.36011727114E+03 -0.48955820039E+03  0.13353640290E+03  0.62713225360E+03  0.78174241743E+02 0.  0.
         13    1    3    3    0    0  0.23661340331E+02  0.12909552293E+02 -0.33924045572E+02  0.43328471409E+02  0.00000000000E+00 0. -1.
        -13    1    3    3    0    0  0.39193233843E+03  0.19969205709E+03 -0.98683240116E+02  0.45080623049E+03  0.00000000000E+00 0.  1.
          4    1    6    6  502    0 -0.17168895874E+03 -0.26359925438E+03  0.10451448538E+03  0.33148897887E+03  0.00000000000E+00 0. -1.
          1    1    5    5  503    0 -0.94921178244E+01  0.91774602805E+02 -0.14118017992E+03  0.16865503617E+03  0.00000000000E+00 0. -1.
         -2    1    5    5    0  503 -0.45984289795E+02  0.18518198820E+03 -0.13228469995E+03  0.23217701330E+03  0.00000000000E+00 0.  1.
         -3    1    6    6    0  502 -0.18842831240E+03 -0.22595894601E+03  0.29021917517E+02  0.29564327473E+03  0.00000000000E+00 0.  1.
<mgrwt>
<rscale>  0 0.14975011E+04</rscale>
<asrwt>0</asrwt>
<pdfrwt beam="1">  1        2 0.13804883E+00 0.14975011E+04</pdfrwt>
<pdfrwt beam="2">  1       -2 0.96120249E-01 0.14975011E+04</pdfrwt>
<totfact> 0.25807716E+01</totfact>
</mgrwt>
</event>
<event>
12    1  0.1442183E-007  0.1882299E+04  0.7818608E-02  0.8663718E-01
          2   -1    0    0  501    0  0.00000000000E+00  0.00000000000E+00  0.24537413303E+04  0.24537413303E+04  0.00000000000E+00 0. -1.
         -2   -1    0    0    0  501 -0.00000000000E+00 -0.00000000000E+00 -0.36098449774E+03  0.36098449774E+03  0.00000000000E+00 0.  1.
         23    2    1    2    0    0 -0.35063665287E+03  0.17579199013E+03 -0.72125067329E+02  0.40920369378E+03  0.91633790364E+02 0.  0.
        254    2    1    2    0    0  0.35063665287E+03 -0.17579199013E+03  0.21648818999E+04  0.24055221343E+04  0.97261205621E+03 0.  0.
        -24    2    4    4    0    0  0.37726067668E+03 -0.33944197736E+03  0.45687789620E+03  0.68762566471E+03  0.80902216132E+02 0.  0.
         24    2    4    4    0    0 -0.26624023811E+02  0.16364998723E+03  0.17080040037E+04  0.17178964696E+04  0.80002790696E+02 0.  0.
         13    1    3    3    0    0 -0.14214260250E+03  0.26325851020E+02 -0.80264501591E+01  0.14478257415E+03  0.00000000000E+00 0. -1.
        -13    1    3    3    0    0 -0.20849405037E+03  0.14946613911E+03 -0.64098617170E+02  0.26442111963E+03  0.00000000000E+00 0.  1.
          2    1    6    6  502    0 -0.16549081739E+02  0.12952729500E+03  0.93501715261E+03  0.94409123920E+03  0.00000000000E+00 0. -1.
          1    1    5    5  503    0  0.15744542167E+03 -0.16838436654E+03  0.25417710689E+03  0.34314480525E+03  0.00000000000E+00 0. -1.
         -2    1    5    5    0  503  0.21981525501E+03 -0.17105761082E+03  0.20270078931E+03  0.34448085947E+03  0.00000000000E+00 0.  1.
         -1    1    6    6    0  502 -0.10074942072E+02  0.34122692237E+02  0.77298685112E+03  0.77380523039E+03  0.00000000000E+00 0.  1.
<mgrwt>
<rscale>  0 0.18822992E+04</rscale>
<asrwt>0</asrwt>
<pdfrwt beam="1">  1        2 0.37749865E+00 0.18822992E+04</pdfrwt>
<pdfrwt beam="2">  1       -2 0.55536078E-01 0.18822992E+04</pdfrwt>
<totfact> 0.10587483E+01</totfact>
</mgrwt>
</event>
<event>
12    1  0.1442183E-007  0.2952587E+04  0.7818608E-02  0.8257401E-01
          2   -1    0    0  501    0  0.00000000000E+00  0.00000000000E+00  0.19702714864E+04  0.19702714864E+04  0.00000000000E+00 0. -1.
         -2   -1    0    0    0  501 -0.00000000000E+00 -0.00000000000E+00 -0.11061634739E+04  0.11061634739E+04  0.00000000000E+00 0.  1.
         23    2    1    2    0    0  0.35881538703E+03 -0.12281012153E+04 -0.12616382410E+02  0.12827428725E+04  0.91044092552E+02 0.  0.
        254    2    1    2    0    0 -0.35881538703E+03  0.12281012153E+04  0.87672439489E+03  0.17936920878E+04  0.90094648244E+03 0.  0.
        -24    2    4    4    0    0 -0.39132744773E+03  0.77045006854E+02  0.17476886419E+03  0.44266520740E+03  0.79594129928E+02 0.  0.
         24    2    4    4    0    0  0.32512060699E+02  0.11510562084E+04  0.70195553070E+03  0.13510268804E+04  0.80898920820E+02 0.  0.
         11    1    3    3    0    0  0.34123127021E+02 -0.49318857593E+02 -0.22928868562E+01  0.60016621382E+02  0.00000000000E+00 0. -1.
        -11    1    3    3    0    0  0.32469226001E+03 -0.11787823577E+04 -0.10323495554E+02  0.12227262511E+04  0.00000000000E+00 0.  1.
          2    1    6    6  502    0 -0.11042786184E+02  0.59269132869E+03  0.32652481313E+03  0.67677426652E+03  0.00000000000E+00 0. -1.
          1    1    5    5  503    0 -0.28890097794E+03  0.59233773465E+02  0.16578287986E+03  0.33831402310E+03  0.00000000000E+00 0. -1.
         -2    1    5    5    0  503 -0.10242646979E+03  0.17811233390E+02  0.89859843301E+01  0.10435118429E+03  0.00000000000E+00 0.  1.
         -1    1    6    6    0  502  0.43554846883E+02  0.55836487975E+03  0.37543071757E+03  0.67425261388E+03  0.00000000000E+00 0.  1.
<mgrwt>
<rscale>  0 0.29525869E+04</rscale>
<asrwt>0</asrwt>
<pdfrwt beam="1">  1        2 0.30311869E+00 0.29525869E+04</pdfrwt>
<pdfrwt beam="2">  1       -2 0.17017900E+00 0.29525869E+04</pdfrwt>
<totfact> 0.12676038E+00</totfact>
</mgrwt>
</event>
<event>
12    1  0.1442183E-007  0.1988764E+04  0.7818608E-02  0.8611892E-01
         -2   -1    0    0    0  501 -0.00000000000E+00  0.00000000000E+00  0.50242443194E+03  0.50242443194E+03  0.00000000000E+00 0.  1.
          2   -1    0    0  501    0  0.00000000000E+00 -0.00000000000E+00 -0.19680475524E+04  0.19680475524E+04  0.00000000000E+00 0. -1.
         23    2    1    2    0    0  0.32594210258E+03  0.55362586980E+03 -0.11440577070E+04  0.13153069183E+04  0.91784499298E+02 0.  0.
        254    2    1    2    0    0 -0.32594210258E+03 -0.55362586980E+03 -0.32156541341E+03  0.11551650661E+04  0.90457844148E+03 0.  0.
        -24    2    4    4    0    0  0.20723444066E+03  0.27015604980E+02  0.11376494337E+03  0.25121873591E+03  0.80575645351E+02 0.  0.
         24    2    4    4    0    0 -0.53317654323E+03 -0.58064147478E+03 -0.43533035678E+03  0.90394633015E+03  0.78642862096E+02 0.  0.
         13    1    3    3    0    0  0.14763349833E+03  0.26004992409E+03 -0.62554060145E+03  0.69334165958E+03  0.00000000000E+00 0. -1.
        -13    1    3    3    0    0  0.17830860424E+03  0.29357594571E+03 -0.51851710559E+03  0.62196525870E+03  0.00000000000E+00 0.  1.
          2    1    6    6  502    0 -0.26706485388E+03 -0.32330015396E+03 -0.19400640638E+03  0.46204449076E+03  0.00000000000E+00 0. -1.
          1    1    5    5  503    0  0.13754154099E+03  0.54860662574E+02  0.85720405941E+02  0.17110042604E+03  0.00000000000E+00 0. -1.
         -2    1    5    5    0  503  0.69692899672E+02 -0.27845057594E+02  0.28044537428E+02  0.80118309872E+02  0.00000000000E+00 0.  1.
         -1    1    6    6    0  502 -0.26611168935E+03 -0.25734132083E+03 -0.24132395040E+03  0.44190183938E+03  0.00000000000E+00 0.  1.
<mgrwt>
<rscale>  0 0.19887636E+04</rscale>
<asrwt>0</asrwt>
<pdfrwt beam="1">  1        2 0.30277654E+00 0.19887636E+04</pdfrwt>
<pdfrwt beam="2">  1       -2 0.77296068E-01 0.19887636E+04</pdfrwt>
<totfact> 0.96632263E+00</totfact>
</mgrwt>
</event>
<event>
12    1  0.1442183E-007  0.1547619E+04  0.7818608E-02  0.8853390E-01
         -2   -1    0    0    0  501 -0.00000000000E+00  0.00000000000E+00  0.25063350171E+03  0.25063350171E+03  0.00000000000E+00 0.  1.
          2   -1    0    0  501    0  0.00000000000E+00 -0.00000000000E+00 -0.23890706695E+04  0.23890706695E+04  0.00000000000E+00 0. -1.
         23    2    1    2    0    0 -0.49374863935E+03  0.10629212335E+03 -0.83936242340E+03  0.98389399728E+03  0.91828022485E+02 0.  0.
        254    2    1    2    0    0  0.49374863935E+03 -0.10629212335E+03 -0.12990747444E+04  0.16558101739E+04  0.89388276983E+03 0.  0.
        -24    2    4    4    0    0 -0.18732844605E+03 -0.24182714094E+03 -0.30463805509E+03  0.44002894369E+03  0.85139966442E+02 0.  0.
         24    2    4    4    0    0  0.68107708540E+03  0.13553501759E+03 -0.99443668929E+03  0.12157812302E+04  0.83569931795E+02 0.  0.
         13    1    3    3    0    0 -0.24118247107E+03  0.83370207486E+02 -0.35560452850E+03  0.43769185112E+03  0.00000000000E+00 0.  1.
        -13    1    3    3    0    0 -0.25256616828E+03  0.22921915865E+02 -0.48375789490E+03  0.54620214616E+03  0.00000000000E+00 0. -1.
          2    1    6    6  502    0  0.54386883215E+03  0.14071921894E+03 -0.81426074966E+03  0.98925010669E+03  0.00000000000E+00 0. -1.
          1    1    5    5  503    0 -0.18969378748E+03 -0.24485909827E+03 -0.28798018091E+03  0.42293296822E+03  0.00000000000E+00 0. -1.
         -2    1    5    5    0  503  0.23653414297E+01  0.30319573223E+01 -0.16657874178E+02  0.17095975474E+02  0.00000000000E+00 0.  1.
         -1    1    6    6    0  502  0.13720825325E+03 -0.51842013447E+01 -0.18017593963E+03  0.22653112353E+03  0.00000000000E+00 0.  1.
<mgrwt>
<rscale>  0 0.15476190E+04</rscale>
<asrwt>0</asrwt>
<pdfrwt beam="1">  1        2 0.36754932E+00 0.15476190E+04</pdfrwt>
<pdfrwt beam="2">  1       -2 0.38559002E-01 0.15476190E+04</pdfrwt>
<totfact> 0.24716586E+01</totfact>
</mgrwt>
</event>
<event>
12    1  0.1442183E-007  0.1720262E+04  0.7818608E-02  0.8749892E-01
         -2   -1    0    0    0  501 -0.00000000000E+00  0.00000000000E+00  0.96775638369E+03  0.96775638369E+03  0.00000000000E+00 0.  1.
          2   -1    0    0  501    0  0.00000000000E+00 -0.00000000000E+00 -0.76447480505E+03  0.76447480505E+03  0.00000000000E+00 0. -1.
         23    2    1    2    0    0  0.30973475777E+03  0.44231137999E+03  0.34351346258E+03  0.64735392563E+03  0.97419859468E+02 0.  0.
        254    2    1    2    0    0 -0.30973475777E+03 -0.44231137999E+03 -0.14023188394E+03  0.10848772631E+04  0.93044006668E+03 0.  0.
        -24    2    4    4    0    0  0.18112164173E+03 -0.43916646438E+03 -0.29436632287E+03  0.56459744674E+03  0.80290175505E+02 0.  0.
         24    2    4    4    0    0 -0.49085639950E+03 -0.31449156065E+01  0.15413443893E+03  0.52027981636E+03  0.77354809957E+02 0.  0.
         13    1    3    3    0    0  0.60283944451E+02  0.97151145431E+02  0.12245028828E+03  0.16753080945E+03  0.00000000000E+00 0.  1.
        -13    1    3    3    0    0  0.24945081332E+03  0.34516023456E+03  0.22106317430E+03  0.47982311618E+03  0.00000000000E+00 0. -1.
          2    1    6    6  502    0 -0.30836871379E+03 -0.32330292960E+02  0.11930233366E+03  0.33221914199E+03  0.00000000000E+00 0. -1.
          3    1    5    5  503    0  0.92124061647E+02 -0.12966182004E+03 -0.11161468727E+03  0.19431126762E+03  0.00000000000E+00 0. -1.
         -4    1    5    5    0  503  0.88997580085E+02 -0.30950464435E+03 -0.18275163560E+03  0.37028617912E+03  0.00000000000E+00 0.  1.
         -1    1    6    6    0  502 -0.18248768572E+03  0.29185377354E+02  0.34832105265E+02  0.18806067437E+03  0.00000000000E+00 0.  1.
<mgrwt>
<rscale>  0 0.17202620E+04</rscale>
<asrwt>0</asrwt>
<pdfrwt beam="1">  1        2 0.11761151E+00 0.17202620E+04</pdfrwt>
<pdfrwt beam="2">  1       -2 0.14888560E+00 0.17202620E+04</pdfrwt>
<totfact> 0.10614694E+01</totfact>
</mgrwt>
</event>
<event>
12    1  0.1442183E-007  0.1953295E+04  0.7818608E-02  0.8628774E-01
          1   -1    0    0  501    0  0.00000000000E+00  0.00000000000E+00  0.94800742271E+03  0.94800742271E+03  0.00000000000E+00 0. -1.
         -1   -1    0    0    0  501 -0.00000000000E+00 -0.00000000000E+00 -0.10061527616E+04  0.10061527616E+04  0.00000000000E+00 0.  1.
         23    2    1    2    0    0 -0.19089461590E+03 -0.26138279347E+03 -0.71208188372E+03  0.78760630284E+03  0.92202820226E+02 0.  0.
        254    2    1    2    0    0  0.19089461590E+03  0.26138279347E+03  0.65393654481E+03  0.11665538815E+04  0.91019406428E+03 0.  0.
        -24    2    4    4    0    0  0.34391842183E+03 -0.21436759531E+03  0.47704160841E+03  0.63085695326E+03  0.78603133066E+02 0.  0.
         24    2    4    4    0    0 -0.15302380592E+03  0.47575038878E+03  0.17689493641E+03  0.53569692822E+03  0.76971831034E+02 0.  0.
         13    1    3    3    0    0 -0.10486890257E+03 -0.92647290226E+02 -0.22460912331E+03  0.26463232113E+03  0.00000000000E+00 0. -1.
        -13    1    3    3    0    0 -0.86025713330E+02 -0.16873550324E+03 -0.48747276041E+03  0.52297398171E+03  0.00000000000E+00 0.  1.
          4    1    6    6  502    0 -0.11298135161E+03  0.25597267852E+03  0.12445756526E+03  0.30622946219E+03  0.00000000000E+00 0. -1.
          3    1    5    5  503    0  0.21140919086E+03 -0.14113807342E+03  0.23999310709E+03  0.34958617421E+03  0.00000000000E+00 0. -1.
         -4    1    5    5    0  503  0.13250923097E+03 -0.73229521891E+02  0.23704850132E+03  0.28127077905E+03  0.00000000000E+00 0.  1.
         -3    1    6    6    0  502 -0.40042454320E+02  0.21977771026E+03  0.52437371143E+02  0.22946746604E+03  0.00000000000E+00 0.  1.
<mgrwt>
<rscale>  0 0.19532949E+04</rscale>
<asrwt>0</asrwt>
<pdfrwt beam="1">  1        1 0.14584730E+00 0.19532949E+04</pdfrwt>
<pdfrwt beam="2">  1       -1 0.15479273E+00 0.19532949E+04</pdfrwt>
<totfact> 0.49630601E+00</totfact>
</mgrwt>
</event>
<event>
12    1  0.1442183E-007  0.2098757E+04  0.7818608E-02  0.8561791E-01
         -1   -1    0    0    0  501 -0.00000000000E+00  0.00000000000E+00  0.45050185524E+03  0.45050185524E+03  0.00000000000E+00 0.  1.
          1   -1    0    0  501    0  0.00000000000E+00 -0.00000000000E+00 -0.24443743564E+04  0.24443743564E+04  0.00000000000E+00 0. -1.
         23    2    1    2    0    0 -0.78609886592E+03 -0.27115182669E+03 -0.57142019591E+03  0.10129220297E+04  0.89527972687E+02 0.  0.
        254    2    1    2    0    0  0.78609886592E+03  0.27115182669E+03 -0.14224523053E+04  0.18819541820E+04  0.90934385247E+03 0.  0.
        -24    2    4    4    0    0  0.63726335863E+03 -0.81170395702E+02 -0.13320137868E+04  0.14810846786E+04  0.81595806419E+02 0.  0.
         24    2    4    4    0    0  0.14883550728E+03  0.35232222239E+03 -0.90438518468E+02  0.40086950331E+03  0.78957434381E+02 0.  0.
         11    1    3    3    0    0 -0.14014562357E+03 -0.29639821699E+02 -0.64874581060E+02  0.15725147409E+03  0.00000000000E+00 0. -1.
        -11    1    3    3    0    0 -0.64595324235E+03 -0.24151200499E+03 -0.50654561485E+03  0.85567055563E+03  0.00000000000E+00 0.  1.
          4    1    6    6  502    0  0.15518686182E+03  0.32061378045E+03 -0.71206087456E+02  0.36324436016E+03  0.00000000000E+00 0. -1.
          1    1    5    5  503    0  0.35188606968E+03 -0.85043612998E+02 -0.76075496085E+03  0.84249886208E+03  0.00000000000E+00 0. -1.
         -2    1    5    5    0  503  0.28537728896E+03  0.38732172961E+01 -0.57125882597E+03  0.63858581656E+03  0.00000000000E+00 0.  1.
         -3    1    6    6    0  502 -0.63513545346E+01  0.31708441937E+02 -0.19232431012E+02  0.37625143151E+02  0.00000000000E+00 0.  1.
<mgrwt>
<rscale>  0 0.20987569E+04</rscale>
<asrwt>0</asrwt>
<pdfrwt beam="1">  1        1 0.37605760E+00 0.20987569E+04</pdfrwt>
<pdfrwt beam="2">  1       -1 0.69307977E-01 0.20987569E+04</pdfrwt>
<totfact> 0.28679469E+00</totfact>
</mgrwt>
</event>
<event>
12    1  0.1442183E-007  0.1733465E+04  0.7818608E-02  0.8742505E-01
         -2   -1    0    0    0  501 -0.00000000000E+00  0.00000000000E+00  0.21875670765E+03  0.21875670765E+03  0.00000000000E+00 0.  1.
          2   -1    0    0  501    0  0.00000000000E+00 -0.00000000000E+00 -0.34340668908E+04  0.34340668908E+04  0.00000000000E+00 0. -1.
         23    2    1    2    0    0  0.39991831272E+03 -0.29558024559E+03 -0.19819200151E+04  0.20454464098E+04  0.92421484419E+02 0.  0.
        254    2    1    2    0    0 -0.39991831272E+03  0.29558024559E+03 -0.12333901680E+04  0.16073771886E+04  0.90283319691E+03 0.  0.
        -24    2    4    4    0    0 -0.67321206112E+03  0.24948228505E+03 -0.10217564612E+04  0.12513209674E+04  0.79762194194E+02 0.  0.
         24    2    4    4    0    0  0.27329374840E+03  0.46097960540E+02 -0.21163370683E+03  0.35605622122E+03  0.71921567849E+02 0.  0.
         13    1    3    3    0    0  0.81687812460E+02 -0.25230219438E+02 -0.26357699641E+03  0.27709618495E+03  0.00000000000E+00 0.  1.
        -13    1    3    3    0    0  0.31823050026E+03 -0.27035002615E+03 -0.17183430187E+04  0.17683502249E+04  0.00000000000E+00 0. -1.
          4    1    6    6  502    0  0.21114745437E+03  0.33126546841E+02 -0.12163177093E+03  0.24591645592E+03  0.00000000000E+00 0. -1.
          1    1    5    5  503    0 -0.65768479415E+03  0.25009755630E+03 -0.97745996326E+03  0.12043778709E+04  0.00000000000E+00 0. -1.
         -2    1    5    5    0  503 -0.15527266972E+02 -0.61527124691E+00 -0.44296497961E+02  0.46943096510E+02  0.00000000000E+00 0.  1.
         -3    1    6    6    0  502  0.62146294035E+02  0.12971413699E+02 -0.90001935897E+02  0.11013976530E+03  0.00000000000E+00 0.  1.
<mgrwt>
<rscale>  0 0.17334649E+04</rscale>
<asrwt>0</asrwt>
<pdfrwt beam="1">  1        2 0.52831796E+00 0.17334649E+04</pdfrwt>
<pdfrwt beam="2">  1       -2 0.33654879E-01 0.17334649E+04</pdfrwt>
<totfact> 0.71399886E+00</totfact>
</mgrwt>
</event>
<event>
12    1  0.1442183E-007  0.1443311E+04  0.7818608E-02  0.8923051E-01
          1   -1    0    0  501    0  0.00000000000E+00  0.00000000000E+00  0.95566872903E+03  0.95566872903E+03  0.00000000000E+00 0. -1.
         -1   -1    0    0    0  501 -0.00000000000E+00 -0.00000000000E+00 -0.54494469453E+03  0.54494469453E+03  0.00000000000E+00 0.  1.
         23    2    1    2    0    0 -0.11020046982E+03 -0.17802162177E+03  0.47392520765E+03  0.52546909678E+03  0.87617508843E+02 0.  0.
        254    2    1    2    0    0  0.11020046982E+03  0.17802162177E+03 -0.63201173154E+02  0.97514432678E+03  0.95030322971E+03 0.  0.
        -24    2    4    4    0    0  0.34631113679E+03  0.35965638266E+03 -0.29869057962E+03  0.58711900366E+03  0.78794321233E+02 0.  0.
         24    2    4    4    0    0 -0.23611066696E+03 -0.18163476089E+03  0.23548940646E+03  0.38802532312E+03  0.79805747979E+02 0.  0.
         11    1    3    3    0    0 -0.19460246663E+01  0.84466597499E+01  0.69162662548E+01  0.11089085257E+02  0.00000000000E+00 0.  1.
        -11    1    3    3    0    0 -0.10825444516E+03 -0.18646828152E+03  0.46700894140E+03  0.51438001152E+03  0.00000000000E+00 0. -1.
          2    1    6    6  502    0 -0.15742909253E+03 -0.98420485988E+02  0.10090907489E+03  0.21131292585E+03  0.00000000000E+00 0. -1.
          1    1    5    5  503    0  0.25286096150E+03  0.30790348092E+03 -0.22850256456E+03  0.45930016485E+03  0.00000000000E+00 0. -1.
         -2    1    5    5    0  503  0.93450175284E+02  0.51752901737E+02 -0.70188015051E+02  0.12781883881E+03  0.00000000000E+00 0.  1.
         -1    1    6    6    0  502 -0.78681574434E+02 -0.83214274898E+02  0.13458033157E+03  0.17671239727E+03  0.00000000000E+00 0.  1.
<mgrwt>
<rscale>  0 0.14433109E+04</rscale>
<asrwt>0</asrwt>
<pdfrwt beam="1">  1        1 0.14702596E+00 0.14433109E+04</pdfrwt>
<pdfrwt beam="2">  1       -1 0.83837646E-01 0.14433109E+04</pdfrwt>
<totfact> 0.22489598E+01</totfact>
</mgrwt>
</event>
<event>
12    1  0.1442183E-007  0.1548695E+04  0.7818608E-02  0.8852702E-01
         -2   -1    0    0    0  501 -0.00000000000E+00  0.00000000000E+00  0.14153764264E+03  0.14153764264E+03  0.00000000000E+00 0. -1.
          2   -1    0    0  501    0  0.00000000000E+00 -0.00000000000E+00 -0.42364275694E+04  0.42364275694E+04  0.00000000000E+00 0.  1.
         23    2    1    2    0    0 -0.16431897477E+03 -0.16366045421E+03 -0.96970164821E+02  0.26726728080E+03  0.90791611842E+02 0.  0.
        254    2    1    2    0    0  0.16431897477E+03  0.16366045421E+03 -0.39979197619E+04  0.41106979312E+04  0.92773357659E+03 0.  0.
        -24    2    4    4    0    0 -0.31847057955E+03 -0.27813292311E+02 -0.73392296602E+03  0.80466179703E+03  0.81489866102E+02 0.  0.
         24    2    4    4    0    0  0.48278955432E+03  0.19147374652E+03 -0.32639967959E+04  0.33060361342E+04  0.80323642207E+02 0.  0.
         11    1    3    3    0    0 -0.13956566944E+03 -0.93357769923E+02 -0.94534960162E+02  0.19269433823E+03  0.00000000000E+00 0.  1.
        -11    1    3    3    0    0 -0.24753305326E+02 -0.70302684289E+02 -0.24352046591E+01  0.74572942577E+02  0.00000000000E+00 0. -1.
          2    1    6    6  502    0  0.15580898240E+03  0.10296471263E+03 -0.11399805216E+04  0.11551769391E+04  0.00000000000E+00 0. -1.
          3    1    5    5  503    0 -0.45000907858E+02 -0.32647422516E+02 -0.14613782203E+03  0.15635600063E+03  0.00000000000E+00 0. -1.
         -4    1    5    5    0  503 -0.27346967169E+03  0.48341302055E+01 -0.58778514399E+03  0.64830579640E+03  0.00000000000E+00 0.  1.
         -1    1    6    6    0  502  0.32698057191E+03  0.88509033888E+02 -0.21240162743E+04  0.21508591951E+04  0.00000000000E+00 0.  1.
<mgrwt>
<rscale>  0 0.15486949E+04</rscale>
<asrwt>0</asrwt>
<pdfrwt beam="1">  1        2 0.65175796E+00 0.15486949E+04</pdfrwt>
<pdfrwt beam="2">  1       -2 0.21775026E-01 0.15486949E+04</pdfrwt>
<totfact> 0.39296865E+00</totfact>
</mgrwt>
</event>
<event>
12    1  0.1442183E-007  0.2873105E+04  0.7818608E-02  0.8280925E-01
         -2   -1    0    0    0  501 -0.00000000000E+00  0.00000000000E+00  0.12111629722E+04  0.12111629722E+04  0.00000000000E+00 0.  1.
          2   -1    0    0  501    0  0.00000000000E+00 -0.00000000000E+00 -0.17038855241E+04  0.17038855241E+04  0.00000000000E+00 0. -1.
         23    2    1    2    0    0  0.95717308414E+03 -0.12106360119E+03  0.65195812899E+03  0.11695715263E+04  0.10959673622E+03 0.  0.
        254    2    1    2    0    0 -0.95717308414E+03  0.12106360119E+03 -0.11446806809E+04  0.17454769701E+04  0.89752954455E+03 0.  0.
        -24    2    4    4    0    0 -0.72345915293E+03  0.35175462000E+03 -0.34805112851E+03  0.88003615360E+03  0.78737442998E+02 0.  0.
         24    2    4    4    0    0 -0.23371393121E+03 -0.23069101881E+03 -0.79662955238E+03  0.86544081648E+03  0.80799847198E+02 0.  0.
         11    1    3    3    0    0  0.91186630942E+03 -0.13868691906E+03  0.61705165891E+03  0.11097238294E+04  0.00000000000E+00 0.  1.
        -11    1    3    3    0    0  0.45306774725E+02  0.17623317871E+02  0.34906470086E+02  0.59847696886E+02  0.00000000000E+00 0. -1.
          4    1    6    6  502    0 -0.19385060733E+03 -0.17145852895E+03 -0.69165852875E+03  0.73849008490E+03  0.00000000000E+00 0. -1.
          3    1    5    5  503    0 -0.55143531380E+03  0.29798825868E+03 -0.29044925086E+03  0.69082463400E+03  0.00000000000E+00 0. -1.
         -4    1    5    5    0  503 -0.17202383913E+03  0.53766361319E+02 -0.57601877646E+02  0.18921151960E+03  0.00000000000E+00 0.  1.
         -3    1    6    6    0  502 -0.39863323882E+02 -0.59232489862E+02 -0.10497102363E+03  0.12695073158E+03  0.00000000000E+00 0.  1.
<mgrwt>
<rscale>  0 0.28731050E+04</rscale>
<asrwt>0</asrwt>
<pdfrwt beam="1">  1        2 0.26213623E+00 0.28731050E+04</pdfrwt>
<pdfrwt beam="2">  1       -2 0.18633277E+00 0.28731050E+04</pdfrwt>
<totfact> 0.13852147E+00</totfact>
</mgrwt>
</event>
<event>
12    1  0.1628761E-007  0.2182971E+04  0.7818608E-02  0.8525550E-01
          2   -1    0    0  501    0  0.00000000000E+00  0.00000000000E+00  0.90989203345E+03  0.90989203345E+03  0.00000000000E+00 0. -1.
         -2   -1    0    0    0  501 -0.00000000000E+00 -0.00000000000E+00 -0.13093207741E+04  0.13093207741E+04  0.00000000000E+00 0.  1.
         23    2    1    2    0    0 -0.26257782978E+03  0.83580076258E+03  0.71766221324E+02  0.88386279665E+03  0.92482546242E+02 0.  0.
        254    2    1    2    0    0  0.26257782978E+03 -0.83580076258E+03 -0.47119496201E+03  0.13353500109E+04  0.89085628921E+03 0.  0.
        -24    2    4    4    0    0  0.34796594943E+03 -0.68522764091E+03 -0.69648100955E+03  0.10397817783E+04  0.73777557746E+02 0.  0.
         24    2    4    4    0    0 -0.85388119647E+02 -0.15057312168E+03  0.22528604754E+03  0.29556823261E+03  0.81506938136E+02 0.  0.
         11    1    3    3    0    0 -0.23212553235E+03  0.72231795312E+03  0.93277404563E+02  0.76441229868E+03  0.00000000000E+00 0. -1.
        -11    1    3    3    0    0 -0.30452297434E+02  0.11348280946E+03 -0.21511183239E+02  0.11945049797E+03  0.00000000000E+00 0.  1.
          4    1    6    6  502    0 -0.57079791381E+02 -0.75932614235E+02  0.60941253163E+02  0.11286142311E+03  0.00000000000E+00 0. -1.
          3    1    5    5  503    0  0.76637356752E+02 -0.93752986371E+02 -0.11843028527E+03  0.16937721031E+03  0.00000000000E+00 0. -1.
         -4    1    5    5    0  503  0.27132859267E+03 -0.59147465453E+03 -0.57805072428E+03  0.87040456800E+03  0.00000000000E+00 0.  1.
         -3    1    6    6    0  502 -0.28308328266E+02 -0.74640507442E+02  0.16434479438E+03  0.18270680950E+03  0.00000000000E+00 0.  1.
<mgrwt>
<rscale>  0 0.21829709E+04</rscale>
<asrwt>0</asrwt>
<pdfrwt beam="1">  1        2 0.13998339E+00 0.21829709E+04</pdfrwt>
<pdfrwt beam="2">  1       -2 0.20143396E+00 0.21829709E+04</pdfrwt>
<totfact> 0.34385011E+00</totfact>
</mgrwt>
</event>
<event>
12    1  0.1442183E-007  0.1318895E+04  0.7818608E-02  0.9014714E-01
         -2   -1    0    0    0  501 -0.00000000000E+00  0.00000000000E+00  0.23220358924E+03  0.23220358924E+03  0.00000000000E+00 0.  1.
          2   -1    0    0  501    0  0.00000000000E+00 -0.00000000000E+00 -0.18728013862E+04  0.18728013862E+04  0.00000000000E+00 0. -1.
         23    2    1    2    0    0 -0.16534021887E+03 -0.95509403402E+02 -0.88782103737E+03  0.91268539581E+03  0.91153733967E+02 0.  0.
        254    2    1    2    0    0  0.16534021887E+03  0.95509403402E+02 -0.75277675957E+03  0.11923195796E+04  0.90470641429E+03 0.  0.
        -24    2    4    4    0    0 -0.20187220730E+03 -0.29372559408E+03 -0.18851457224E+03  0.41062084956E+03  0.77747189361E+02 0.  0.
         24    2    4    4    0    0  0.36721242616E+03  0.38923499748E+03 -0.56426218733E+03  0.78169873005E+03  0.79449602403E+02 0.  0.
         13    1    3    3    0    0 -0.13260374623E+03 -0.68843351609E+02 -0.81437931991E+03  0.82797151960E+03  0.00000000000E+00 0. -1.
        -13    1    3    3    0    0 -0.32736472635E+02 -0.26666051793E+02 -0.73441717460E+02  0.84713876209E+02  0.00000000000E+00 0.  1.
          2    1    6    6  502    0  0.31680899563E+03  0.30363062398E+03 -0.48930620731E+03  0.65725189999E+03  0.00000000000E+00 0. -1.
          1    1    5    5  503    0 -0.13840710581E+03 -0.17907266761E+03 -0.78613439637E+02  0.23959052593E+03  0.00000000000E+00 0. -1.
         -4    1    5    5    0  503 -0.63465101481E+02 -0.11465292647E+03 -0.10990113260E+03  0.17103032363E+03  0.00000000000E+00 0.  1.
         -3    1    6    6    0  502  0.50403430537E+02  0.85604373494E+02 -0.74955980027E+02  0.12444683006E+03  0.00000000000E+00 0.  1.
<mgrwt>
<rscale>  0 0.13188953E+04</rscale>
<asrwt>0</asrwt>
<pdfrwt beam="1">  1        2 0.28812329E+00 0.13188953E+04</pdfrwt>
<pdfrwt beam="2">  1       -2 0.35723629E-01 0.13188953E+04</pdfrwt>
<totfact> 0.56706131E+01</totfact>
</mgrwt>
</event>
<event>
12    1  0.1442183E-007  0.1547903E+04  0.7818608E-02  0.8853208E-01
          1   -1    0    0  501    0  0.00000000000E+00  0.00000000000E+00  0.26757320870E+03  0.26757320870E+03  0.00000000000E+00 0. -1.
         -1   -1    0    0    0  501 -0.00000000000E+00 -0.00000000000E+00 -0.22386439071E+04  0.22386439071E+04  0.00000000000E+00 0.  1.
         23    2    1    2    0    0  0.91453113675E+02  0.38138619717E+03 -0.15262746260E+03  0.43059016856E+03  0.91069465387E+02 0.  0.
        254    2    1    2    0    0 -0.91453113675E+02 -0.38138619717E+03 -0.18184432358E+04  0.20756269473E+04  0.92069121801E+03 0.  0.
        -24    2    4    4    0    0 -0.41159514986E+03 -0.24308947433E+02 -0.41562558740E+03  0.59090548805E+03  0.80144710383E+02 0.  0.
         24    2    4    4    0    0  0.32014203618E+03 -0.35707724974E+03 -0.14028176484E+04  0.14847214592E+04  0.80655880841E+02 0.  0.
         11    1    3    3    0    0 -0.17551189486E+02  0.76869078654E+02 -0.22903820819E+02  0.82106543671E+02  0.00000000000E+00 0.  1.
        -11    1    3    3    0    0  0.10900430316E+03  0.30451711852E+03 -0.12972364179E+03  0.34848362489E+03  0.00000000000E+00 0. -1.
          2    1    6    6  502    0  0.26339209187E+03 -0.25345847355E+03 -0.98984191362E+03  0.10551794188E+04  0.00000000000E+00 0. -1.
          1    1    5    5  503    0 -0.35974560177E+02  0.20667329108E+02 -0.47194407583E+02  0.62838042454E+02  0.00000000000E+00 0. -1.
         -2    1    5    5    0  503 -0.37562058968E+03 -0.44976276541E+02 -0.36843117981E+03  0.52806744560E+03  0.00000000000E+00 0.  1.
         -1    1    6    6    0  502  0.56749944309E+02 -0.10361877619E+03 -0.41297573479E+03  0.42954204041E+03  0.00000000000E+00 0.  1.
<mgrwt>
<rscale>  0 0.15479033E+04</rscale>
<asrwt>0</asrwt>
<pdfrwt beam="1">  1        1 0.41165109E-01 0.15479033E+04</pdfrwt>
<pdfrwt beam="2">  1       -1 0.34440675E+00 0.15479033E+04</pdfrwt>
<totfact> 0.16668007E+00</totfact>
</mgrwt>
</event>
<event>
12    1  0.1442183E-007  0.1016176E+04  0.7818608E-02  0.9290979E-01
          2   -1    0    0  501    0  0.00000000000E+00  0.00000000000E+00  0.43722194905E+04  0.43722194905E+04  0.00000000000E+00 0. -1.
         -2   -1    0    0    0  501 -0.00000000000E+00 -0.00000000000E+00 -0.59044076665E+02  0.59044076665E+02  0.00000000000E+00 0.  1.
         23    2    1    2    0    0  0.42019748828E+02  0.49190814816E+02  0.89734697377E+03  0.90437218067E+03  0.92043762808E+02 0.  0.
        254    2    1    2    0    0 -0.42019748828E+02 -0.49190814816E+02  0.34158284400E+04  0.35268913865E+04  0.87572457123E+03 0.  0.
        -24    2    4    4    0    0 -0.23512193219E+03 -0.11810657066E+03  0.31323891349E+03  0.41642492402E+03  0.77843531437E+02 0.  0.
         24    2    4    4    0    0  0.19310218336E+03  0.68915755846E+02  0.31025895265E+04  0.31104664625E+04  0.83078331739E+02 0.  0.
         11    1    3    3    0    0  0.41479225457E+01 -0.39971942189E+01  0.59621451865E+03  0.59624234592E+03  0.00000000000E+00 0. -1.
        -11    1    3    3    0    0  0.37871826282E+02  0.53188009035E+02  0.30113245513E+03  0.30812983475E+03  0.00000000000E+00 0.  1.
          2    1    6    6  502    0  0.19865218743E+03  0.54863915079E+02  0.28782825739E+04  0.28856512811E+04  0.00000000000E+00 0. -1.
          1    1    5    5  503    0 -0.19510635889E+03 -0.62969154615E+02  0.21720389600E+03  0.29867898846E+03  0.00000000000E+00 0. -1.
         -2    1    5    5    0  503 -0.40015573303E+02 -0.55137416048E+02  0.96035017486E+02  0.11774593555E+03  0.00000000000E+00 0.  1.
         -1    1    6    6    0  502 -0.55500040701E+01  0.14051840767E+02  0.22430695265E+03  0.22481518139E+03  0.00000000000E+00 0.  1.
<mgrwt>
<rscale>  0 0.10161765E+04</rscale>
<asrwt>0</asrwt>
<pdfrwt beam="1">  1        2 0.67264890E+00 0.10161765E+04</pdfrwt>
<pdfrwt beam="2">  1       -2 0.90837075E-02 0.10161765E+04</pdfrwt>
<totfact> 0.14028230E+01</totfact>
</mgrwt>
</event>
<event>
12    1  0.1442183E-007  0.1563679E+04  0.7818608E-02  0.8843177E-01
         -3   -1    0    0    0  501 -0.00000000000E+00  0.00000000000E+00  0.71838899914E+03  0.71838899914E+03  0.00000000000E+00 0.  1.
          3   -1    0    0  501    0  0.00000000000E+00 -0.00000000000E+00 -0.85089449816E+03  0.85089449816E+03  0.00000000000E+00 0. -1.
         23    2    1    2    0    0 -0.46478911854E+03  0.21119136486E+03 -0.10103462989E+03  0.52820169480E+03  0.90323400352E+02 0.  0.
        254    2    1    2    0    0  0.46478911854E+03 -0.21119136486E+03 -0.31470869130E+02  0.10410818025E+04  0.90676909221E+03 0.  0.
        -24    2    4    4    0    0  0.34397105239E+03 -0.13858815931E+03 -0.45231093919E+03  0.59000615451E+03  0.77455237793E+02 0.  0.
         24    2    4    4    0    0  0.12081806615E+03 -0.72603205554E+02  0.42084007006E+03  0.45107564799E+03  0.80589360786E+02 0.  0.
         11    1    3    3    0    0 -0.85547194364E+02  0.66263763679E+02  0.58820332443E+01  0.10836884772E+03  0.00000000000E+00 0.  1.
        -11    1    3    3    0    0 -0.37924192417E+03  0.14492760118E+03 -0.10691666313E+03  0.41983284708E+03  0.00000000000E+00 0. -1.
          4    1    6    6  502    0  0.10889648135E+03 -0.36718253338E+02  0.23707047342E+03  0.26345603646E+03  0.00000000000E+00 0. -1.
          3    1    5    5  503    0  0.34827445276E+03 -0.13689079521E+03 -0.44642828115E+03  0.58252244117E+03  0.00000000000E+00 0. -1.
         -4    1    5    5    0  503 -0.43034003714E+01 -0.16973640985E+01 -0.58826580464E+01  0.74837133384E+01  0.00000000000E+00 0.  1.
         -3    1    6    6    0  502  0.11921584796E+02 -0.35884952216E+02  0.18376959665E+03  0.18761961153E+03  0.00000000000E+00 0.  1.
<mgrwt>
<rscale>  0 0.15636793E+04</rscale>
<asrwt>0</asrwt>
<pdfrwt beam="1">  1        3 0.13090685E+00 0.15636793E+04</pdfrwt>
<pdfrwt beam="2">  1       -3 0.11052138E+00 0.15636793E+04</pdfrwt>
<totfact> 0.79368333E-01</totfact>
</mgrwt>
</event>
<event>
12    1  0.1442183E-007  0.1112191E+04  0.7818608E-02  0.9193390E-01
          2   -1    0    0  501    0  0.00000000000E+00  0.00000000000E+00  0.16728560715E+04  0.16728560715E+04  0.00000000000E+00 0. -1.
         -2   -1    0    0    0  501 -0.00000000000E+00 -0.00000000000E+00 -0.18485885629E+03  0.18485885629E+03  0.00000000000E+00 0.  1.
         23    2    1    2    0    0 -0.21427562933E+02  0.31410543983E+02 -0.20766686599E+02  0.10160892870E+03  0.91909501101E+02 0.  0.
        254    2    1    2    0    0  0.21427562933E+02 -0.31410543983E+02  0.15087639018E+04  0.17561059991E+04  0.89782738089E+03 0.  0.
        -24    2    4    4    0    0 -0.25311667119E+03 -0.37042783374E+03  0.75439638004E+03  0.88114328148E+03  0.77554851732E+02 0.  0.
         24    2    4    4    0    0  0.27454423412E+03  0.33901728976E+03  0.75436752174E+03  0.87496271758E+03  0.78626586210E+02 0.  0.
         13    1    3    3    0    0 -0.37921106454E+02 -0.19146950994E+02  0.45251691242E+01  0.42721109567E+02  0.00000000000E+00 0. -1.
        -13    1    3    3    0    0  0.16493543521E+02  0.50557494978E+02 -0.25291855723E+02  0.58887819133E+02  0.00000000000E+00 0.  1.
          4    1    6    6  502    0  0.16399500468E+01  0.12473731228E+02  0.57383300733E+01  0.13827936901E+02  0.00000000000E+00 0. -1.
          1    1    5    5  503    0 -0.99845513182E+02 -0.17041008406E+03  0.40226047567E+03  0.44813191533E+03  0.00000000000E+00 0. -1.
         -2    1    5    5    0  503 -0.15327115800E+03 -0.20001774967E+03  0.35213590438E+03  0.43301136615E+03  0.00000000000E+00 0.  1.
         -3    1    6    6    0  502  0.27290428407E+03  0.32654355853E+03  0.74862919167E+03  0.86113478068E+03  0.00000000000E+00 0.  1.
<mgrwt>
<rscale>  0 0.11121911E+04</rscale>
<asrwt>0</asrwt>
<pdfrwt beam="1">  1        2 0.25736246E+00 0.11121911E+04</pdfrwt>
<pdfrwt beam="2">  1       -2 0.28439825E-01 0.11121911E+04</pdfrwt>
<totfact> 0.11408125E+02</totfact>
</mgrwt>
</event>
<event>
12    1  0.1442183E-007  0.1518598E+04  0.7818608E-02  0.8872179E-01
         -1   -1    0    0    0  501 -0.00000000000E+00  0.00000000000E+00  0.56302173664E+03  0.56302173664E+03  0.00000000000E+00 0.  1.
          1   -1    0    0  501    0  0.00000000000E+00 -0.00000000000E+00 -0.10240006199E+04  0.10240006199E+04  0.00000000000E+00 0. -1.
         23    2    1    2    0    0  0.11959364744E+03  0.15354101181E+03 -0.61730268892E+03  0.65371221255E+03  0.91649136745E+02 0.  0.
        254    2    1    2    0    0 -0.11959364744E+03 -0.15354101181E+03  0.15632380572E+03  0.93331014395E+03  0.89930707200E+03 0.  0.
        -24    2    4    4    0    0 -0.22205952926E+03  0.30882992131E+03 -0.82547315779E+02  0.39628368707E+03  0.74433503669E+02 0.  0.
         24    2    4    4    0    0  0.10246588182E+03 -0.46237093312E+03  0.23887112149E+03  0.53702645687E+03  0.83975389048E+02 0.  0.
         11    1    3    3    0    0  0.26777943373E+02  0.55707768516E+02 -0.88250431584E+02  0.10774299234E+03  0.00000000000E+00 0.  1.
        -11    1    3    3    0    0  0.92815704072E+02  0.97833243298E+02 -0.52905225734E+03  0.54596922021E+03  0.00000000000E+00 0. -1.
          4    1    6    6  502    0  0.33746613499E+02 -0.28501898684E+03  0.11043677733E+03  0.30752388292E+03  0.00000000000E+00 0. -1.
          3    1    5    5  503    0 -0.18981264662E+03  0.26339885116E+03 -0.96777959874E+02  0.33878277573E+03  0.00000000000E+00 0. -1.
         -4    1    5    5    0  503 -0.32246882639E+02  0.45431070145E+02  0.14230644096E+02  0.57500911348E+02  0.00000000000E+00 0.  1.
         -1    1    6    6    0  502  0.68719268318E+02 -0.17735194628E+03  0.12843434417E+03  0.22950257395E+03  0.00000000000E+00 0.  1.
<mgrwt>
<rscale>  0 0.15185975E+04</rscale>
<asrwt>0</asrwt>
<pdfrwt beam="1">  1        1 0.15753856E+00 0.15185975E+04</pdfrwt>
<pdfrwt beam="2">  1       -1 0.86618730E-01 0.15185975E+04</pdfrwt>
<totfact> 0.18398604E+01</totfact>
</mgrwt>
</event>
<event>
12    1  0.2142360E-007  0.3121675E+04  0.7818608E-02  0.8209814E-01
         -2   -1    0    0    0  501 -0.00000000000E+00  0.00000000000E+00  0.18244466634E+04  0.18244466634E+04  0.00000000000E+00 0.  1.
          2   -1    0    0  501    0  0.00000000000E+00 -0.00000000000E+00 -0.13353163701E+04  0.13353163701E+04  0.00000000000E+00 0. -1.
         23    2    1    2    0    0 -0.41135297471E+03 -0.25202598811E+02 -0.11570966316E+04  0.12318670954E+04  0.93688233023E+02 0.  0.
        254    2    1    2    0    0  0.41135297471E+03  0.25202598811E+02  0.16462269249E+04  0.19278959382E+04  0.91480774997E+03 0.  0.
        -24    2    4    4    0    0  0.20926887349E+02  0.43768970976E+02 -0.10023277908E+03  0.13644525560E+03  0.78848210756E+02 0.  0.
         24    2    4    4    0    0  0.39042608736E+03 -0.18566372165E+02  0.17464597040E+04  0.17914506826E+04  0.79980064104E+02 0.  0.
         11    1    3    3    0    0 -0.35583714092E+03 -0.17232705927E+02 -0.88429078876E+03  0.95335577624E+03  0.00000000000E+00 0. -1.
        -11    1    3    3    0    0 -0.55515833786E+02 -0.79698928842E+01 -0.27280584283E+03  0.27851131911E+03  0.00000000000E+00 0.  1.
          4    1    6    6  502    0  0.36098456085E+03 -0.36948621387E+02  0.15465547126E+04  0.15885548567E+04  0.00000000000E+00 0. -1.
          3    1    5    5  503    0 -0.14014392478E+02  0.46438313956E+02 -0.85767151168E+02  0.98533874475E+02  0.00000000000E+00 0. -1.
         -4    1    5    5    0  503  0.34941279827E+02 -0.26693429803E+01 -0.14465627910E+02  0.37911381124E+02  0.00000000000E+00 0.  1.
         -3    1    6    6    0  502  0.29441526508E+02  0.18382249222E+02  0.19990499136E+03  0.20289582583E+03  0.00000000000E+00 0.  1.
<mgrwt>
<rscale>  0 0.31216749E+04</rscale>
<asrwt>0</asrwt>
<pdfrwt beam="1">  1        2 0.20543329E+00 0.31216749E+04</pdfrwt>
<pdfrwt beam="2">  1       -2 0.28068410E+00 0.31216749E+04</pdfrwt>
<totfact> 0.55734585E-01</totfact>
</mgrwt>
</event>
<event>
12    1  0.1442183E-007  0.1565710E+04  0.7818608E-02  0.8841895E-01
          2   -1    0    0  501    0  0.00000000000E+00  0.00000000000E+00  0.22145301237E+04  0.22145301237E+04  0.00000000000E+00 0. -1.
         -2   -1    0    0    0  501 -0.00000000000E+00 -0.00000000000E+00 -0.27674583257E+03  0.27674583257E+03  0.00000000000E+00 0.  1.
         23    2    1    2    0    0  0.11767889729E+03  0.31634639557E+03  0.12453248973E+04  0.12933591203E+04  0.89556403777E+02 0.  0.
        254    2    1    2    0    0 -0.11767889729E+03 -0.31634639557E+03  0.69245939384E+03  0.11979168359E+04  0.91737744078E+03 0.  0.
        -24    2    4    4    0    0 -0.79776977463E+02 -0.43698741602E+03  0.86187757916E+03  0.97290495653E+03  0.79929500681E+02 0.  0.
         24    2    4    4    0    0 -0.37901919825E+02  0.12064102045E+03 -0.16941818532E+03  0.22501187941E+03  0.77052014989E+02 0.  0.
         11    1    3    3    0    0  0.29713806223E+02  0.20559073155E+03  0.73128248595E+03  0.76021347885E+03  0.00000000000E+00 0. -1.
        -11    1    3    3    0    0  0.87965091064E+02  0.11075566403E+03  0.51404241136E+03  0.53314564149E+03  0.00000000000E+00 0.  1.
          4    1    6    6  502    0 -0.22496576938E+01  0.38602560445E+02 -0.11256846395E+03  0.11902469369E+03  0.00000000000E+00 0. -1.
          1    1    5    5  503    0 -0.55523652040E+02 -0.36610736352E+03  0.64869085548E+03  0.74693862100E+03  0.00000000000E+00 0. -1.
         -4    1    5    5    0  503 -0.24253325423E+02 -0.70880052499E+02  0.21318672368E+03  0.22596633553E+03  0.00000000000E+00 0.  1.
         -1    1    6    6    0  502 -0.35652262131E+02  0.82038460008E+02 -0.56849721374E+02  0.10598718571E+03  0.00000000000E+00 0.  1.
<mgrwt>
<rscale>  0 0.15657100E+04</rscale>
<asrwt>0</asrwt>
<pdfrwt beam="1">  1        2 0.34069693E+00 0.15657100E+04</pdfrwt>
<pdfrwt beam="2">  1       -2 0.42576284E-01 0.15657100E+04</pdfrwt>
<totfact> 0.25501254E+01</totfact>
</mgrwt>
</event>
<event>
12    1  0.1442183E-007  0.2753436E+04  0.7818608E-02  0.8317872E-01
          1   -1    0    0  501    0  0.00000000000E+00  0.00000000000E+00  0.17371489441E+04  0.17371489441E+04  0.00000000000E+00 0. -1.
         -1   -1    0    0    0  501 -0.00000000000E+00 -0.00000000000E+00 -0.10910705797E+04  0.10910705797E+04  0.00000000000E+00 0.  1.
         23    2    1    2    0    0 -0.10333249866E+04  0.81563927591E+01 -0.39882502388E+03  0.11114429930E+04  0.91744603693E+02 0.  0.
        254    2    1    2    0    0  0.10333249866E+04 -0.81563927591E+01  0.10449033883E+04  0.17167765308E+04  0.88750859789E+03 0.  0.
        -24    2    4    4    0    0  0.75719777851E+03  0.67760151267E+02  0.11674910306E+04  0.13955743030E+04  0.81562336242E+02 0.  0.
         24    2    4    4    0    0  0.27612720810E+03 -0.75916544026E+02 -0.12258764237E+03  0.32120222784E+03  0.78317203718E+02 0.  0.
         13    1    3    3    0    0 -0.14960157241E+03  0.32510703737E+02 -0.49954159940E+02  0.16103724544E+03  0.00000000000E+00 0. -1.
        -13    1    3    3    0    0 -0.88372341420E+03 -0.24354310978E+02 -0.34887086394E+03  0.95040574755E+03  0.00000000000E+00 0.  1.
          4    1    6    6  502    0  0.61861053539E+02  0.15755512216E+02 -0.26269601817E+02  0.69029834781E+02  0.00000000000E+00 0. -1.
          1    1    5    5  503    0  0.69618722224E+03  0.39386588615E+02  0.10651209744E+04  0.12730713420E+04  0.00000000000E+00 0. -1.
         -2    1    5    5    0  503  0.61010556265E+02  0.28373562652E+02  0.10237005622E+03  0.12250296096E+03  0.00000000000E+00 0.  1.
         -3    1    6    6    0  502  0.21426615456E+03 -0.91672056242E+02 -0.96318040551E+02  0.25217239306E+03  0.00000000000E+00 0.  1.
<mgrwt>
<rscale>  0 0.27534357E+04</rscale>
<asrwt>0</asrwt>
<pdfrwt beam="1">  1        1 0.26725368E+00 0.27534357E+04</pdfrwt>
<pdfrwt beam="2">  1       -1 0.16785701E+00 0.27534357E+04</pdfrwt>
<totfact> 0.99722651E-01</totfact>
</mgrwt>
</event>
<event>
12    1  0.1442183E-007  0.2301359E+04  0.7818608E-02  0.8477385E-01
         -1   -1    0    0    0  501 -0.00000000000E+00  0.00000000000E+00  0.58190507218E+03  0.58190507218E+03  0.00000000000E+00 0.  1.
          1   -1    0    0  501    0  0.00000000000E+00 -0.00000000000E+00 -0.22753941326E+04  0.22753941326E+04  0.00000000000E+00 0. -1.
         23    2    1    2    0    0 -0.37370599418E+03 -0.15649984734E+03 -0.18306399021E+04  0.18771906990E+04  0.91946162964E+02 0.  0.
        254    2    1    2    0    0  0.37370599418E+03  0.15649984734E+03  0.13715084175E+03  0.98010850573E+03  0.88184690129E+03 0.  0.
        -24    2    4    4    0    0  0.27309419584E+03  0.45597540331E+03  0.30031835871E+03  0.61581300125E+03  0.80873529094E+02 0.  0.
         24    2    4    4    0    0  0.10061179835E+03 -0.29947555596E+03 -0.16316751696E+03  0.36429550449E+03  0.79241614131E+02 0.  0.
         11    1    3    3    0    0 -0.64239706446E+02 -0.19413381798E+02 -0.17763559761E+03  0.18988950686E+03  0.00000000000E+00 0.  1.
        -11    1    3    3    0    0 -0.30946628774E+03 -0.13708646555E+03 -0.16530043045E+04  0.16873011921E+04  0.00000000000E+00 0. -1.
          4    1    6    6  502    0  0.25848482283E+02 -0.10256422975E+03 -0.15127676663E+02  0.10684761047E+03  0.00000000000E+00 0. -1.
          3    1    5    5  503    0  0.12730660908E+02  0.22099897772E+02 -0.32894949308E+01  0.25715675873E+02  0.00000000000E+00 0. -1.
         -4    1    5    5    0  503  0.26036353493E+03  0.43387550554E+03  0.30360785364E+03  0.59009732538E+03  0.00000000000E+00 0.  1.
         -1    1    6    6    0  502  0.74763316066E+02 -0.19691132621E+03 -0.14803984030E+03  0.25744789402E+03  0.00000000000E+00 0.  1.
<mgrwt>
<rscale>  0 0.23013591E+04</rscale>
<asrwt>0</asrwt>
<pdfrwt beam="1">  1        1 0.35006063E+00 0.23013591E+04</pdfrwt>
<pdfrwt beam="2">  1       -1 0.89523859E-01 0.23013591E+04</pdfrwt>
<totfact> 0.21367218E+00</totfact>
</mgrwt>
</event>
<event>
12    1  0.1442183E-007  0.1144498E+04  0.7818608E-02  0.9162874E-01
         -4   -1    0    0    0  501 -0.00000000000E+00  0.00000000000E+00  0.19916887538E+04  0.19916887538E+04  0.00000000000E+00 0.  1.
          4   -1    0    0  501    0  0.00000000000E+00 -0.00000000000E+00 -0.16441776006E+03  0.16441776006E+03  0.00000000000E+00 0. -1.
         23    2    1    2    0    0 -0.14446761059E+01 -0.78937679298E+02  0.46168015439E+01  0.12428752139E+03  0.95879240787E+02 0.  0.
        254    2    1    2    0    0  0.14446761059E+01  0.78937679298E+02  0.18226541922E+04  0.20318189925E+04  0.89441985083E+03 0.  0.
        -24    2    4    4    0    0  0.34985188542E+03  0.30655665681E+03  0.88439239746E+03  0.10024900917E+04  0.80393691833E+02 0.  0.
         24    2    4    4    0    0 -0.34840720932E+03 -0.22761897751E+03  0.93826179478E+03  0.10293289008E+04  0.77361541465E+02 0.  0.
         11    1    3    3    0    0  0.37190446949E+02 -0.75832465245E+02 -0.40965814780E+01  0.84560476046E+02  0.00000000000E+00 0.  1.
        -11    1    3    3    0    0 -0.38635123055E+02 -0.31052140532E+01  0.87133830220E+01  0.39727045340E+02  0.00000000000E+00 0. -1.
          2    1    6    6  502    0 -0.11522955455E+03 -0.65628134509E+02  0.21850637713E+03  0.25559722050E+03  0.00000000000E+00 0. -1.
          3    1    5    5  503    0  0.21989462300E+03  0.22824460682E+03  0.65200941682E+03  0.72495898186E+03  0.00000000000E+00 0. -1.
         -4    1    5    5    0  503  0.12995726242E+03  0.78312049991E+02  0.23238298064E+03  0.27753110983E+03  0.00000000000E+00 0.  1.
         -1    1    6    6    0  502 -0.23317765477E+03 -0.16199084301E+03  0.71975541765E+03  0.77373168032E+03  0.00000000000E+00 0.  1.
<mgrwt>
<rscale>  0 0.11444981E+04</rscale>
<asrwt>0</asrwt>
<pdfrwt beam="1">  1        4 0.25295041E-01 0.11444981E+04</pdfrwt>
<pdfrwt beam="2">  1       -4 0.30641364E+00 0.11444981E+04</pdfrwt>
<totfact> 0.84251862E-01</totfact>
</mgrwt>
</event>
<event>
12    1  0.1442183E-007  0.3163103E+04  0.7818608E-02  0.8198630E-01
          2   -1    0    0  501    0  0.00000000000E+00  0.00000000000E+00  0.15378380211E+04  0.15378380211E+04  0.00000000000E+00 0. -1.
         -2   -1    0    0    0  501 -0.00000000000E+00 -0.00000000000E+00 -0.16265080546E+04  0.16265080546E+04  0.00000000000E+00 0.  1.
         23    2    1    2    0    0 -0.56914807794E+01 -0.51127976304E+03 -0.13969322547E+04  0.14905636316E+04  0.94450126468E+02 0.  0.
        254    2    1    2    0    0  0.56914807794E+01  0.51127976304E+03  0.13082622213E+04  0.16737824441E+04  0.91025174623E+03 0.  0.
        -24    2    4    4    0    0 -0.32335766300E+03 -0.26591441278E+02  0.77356890946E+03  0.84296640977E+03  0.83163858352E+02 0.  0.
         24    2    4    4    0    0  0.32904914378E+03  0.53787120432E+03  0.53469331183E+03  0.83081603435E+03  0.82338167067E+02 0.  0.
         13    1    3    3    0    0  0.95917350895E+01 -0.39689336026E+03 -0.11776317036E+04  0.12427520952E+04  0.00000000000E+00 0.  1.
        -13    1    3    3    0    0 -0.15283215869E+02 -0.11438640278E+03 -0.21930055110E+03  0.24781153634E+03  0.00000000000E+00 0. -1.
          2    1    6    6  502    0  0.73022893912E+02  0.84784199613E+02  0.13026864892E+03  0.17172834487E+03  0.00000000000E+00 0. -1.
          1    1    5    5  503    0 -0.74328248948E+02  0.80123966309E+01  0.26945602560E+03  0.27963447002E+03  0.00000000000E+00 0. -1.
         -2    1    5    5    0  503 -0.24902941405E+03 -0.34603837909E+02  0.50411288387E+03  0.56333193975E+03  0.00000000000E+00 0.  1.
         -3    1    6    6    0  502  0.25602624987E+03  0.45308700471E+03  0.40442466291E+03  0.65908768948E+03  0.00000000000E+00 0.  1.
<mgrwt>
<rscale>  0 0.31631035E+04</rscale>
<asrwt>0</asrwt>
<pdfrwt beam="1">  1        2 0.23659047E+00 0.31631035E+04</pdfrwt>
<pdfrwt beam="2">  1       -2 0.25023201E+00 0.31631035E+04</pdfrwt>
<totfact> 0.65380327E-01</totfact>
</mgrwt>
</event>
<event>
12    1  0.1442183E-007  0.1722524E+04  0.7818608E-02  0.8748621E-01
         -2   -1    0    0    0  501 -0.00000000000E+00  0.00000000000E+00  0.27895443871E+03  0.27895443871E+03  0.00000000000E+00 0.  1.
          2   -1    0    0  501    0  0.00000000000E+00 -0.00000000000E+00 -0.26591154719E+04  0.26591154719E+04  0.00000000000E+00 0. -1.
         23    2    1    2    0    0  0.21706021074E+03 -0.34151474069E+03 -0.66497347338E+02  0.41986214348E+03  0.90082568417E+02 0.  0.
        254    2    1    2    0    0 -0.21706021074E+03  0.34151474069E+03 -0.23136636859E+04  0.25182077672E+04  0.90806566613E+03 0.  0.
        -24    2    4    4    0    0  0.11193091280E+03 -0.19295455814E+03 -0.13155400081E+04  0.13365564361E+04  0.77314961505E+02 0.  0.
         24    2    4    4    0    0 -0.32899112354E+03  0.53446929882E+03 -0.99812367776E+03  0.11816513310E+04  0.78462737881E+02 0.  0.
         13    1    3    3    0    0  0.12077306823E+03 -0.24197285884E+03 -0.76383514977E+02  0.28101857551E+03  0.00000000000E+00 0.  1.
        -13    1    3    3    0    0  0.96287142514E+02 -0.99541881848E+02  0.98861676389E+01  0.13884356797E+03  0.00000000000E+00 0. -1.
          4    1    6    6  502    0 -0.23972124996E+03  0.35010295481E+03 -0.72821459981E+03  0.84281365676E+03  0.00000000000E+00 0. -1.
          1    1    5    5  503    0  0.76200170644E+02 -0.17949556229E+03 -0.11674495174E+04  0.11836230390E+04  0.00000000000E+00 0. -1.
         -2    1    5    5    0  503  0.35730742152E+02 -0.13458995842E+02 -0.14809049076E+03  0.15293339713E+03  0.00000000000E+00 0.  1.
         -3    1    6    6    0  502 -0.89269873580E+02  0.18436634402E+03 -0.26990907795E+03  0.33883767425E+03  0.00000000000E+00 0.  1.
<mgrwt>
<rscale>  0 0.17225238E+04</rscale>
<asrwt>0</asrwt>
<pdfrwt beam="1">  1        2 0.40909470E+00 0.17225238E+04</pdfrwt>
<pdfrwt beam="2">  1       -2 0.42916067E-01 0.17225238E+04</pdfrwt>
<totfact> 0.13763570E+01</totfact>
</mgrwt>
</event>
<event>
12    1  0.1442183E-007  0.1955437E+04  0.7818608E-02  0.8627743E-01
          2   -1    0    0  501    0  0.00000000000E+00  0.00000000000E+00  0.26279569948E+04  0.26279569948E+04  0.00000000000E+00 0. -1.
         -2   -1    0    0    0  501 -0.00000000000E+00 -0.00000000000E+00 -0.36375553700E+03  0.36375553700E+03  0.00000000000E+00 0.  1.
         23    2    1    2    0    0  0.28442964998E+03 -0.30898768080E+03 -0.86452503332E+02  0.43792008450E+03  0.89030064601E+02 0.  0.
        254    2    1    2    0    0 -0.28442964998E+03  0.30898768080E+03  0.23506539612E+04  0.25537924473E+04  0.90548782775E+03 0.  0.
        -24    2    4    4    0    0 -0.57544238143E+03  0.22991493956E+03  0.19387388942E+04  0.20370164166E+04  0.82052227238E+02 0.  0.
         24    2    4    4    0    0  0.29101273145E+03  0.79072741247E+02  0.41191506702E+03  0.51677603074E+03  0.80265404957E+02 0.  0.
         13    1    3    3    0    0  0.11817984427E+03 -0.17659758633E+03 -0.74085043272E+02  0.22503727852E+03  0.00000000000E+00 0. -1.
        -13    1    3    3    0    0  0.16624980571E+03 -0.13239009448E+03 -0.12367460061E+02  0.21288280598E+03  0.00000000000E+00 0.  1.
          2    1    6    6  502    0  0.28913546510E+02 -0.64939208288E+01  0.14254576306E+02  0.32883994970E+02  0.00000000000E+00 0. -1.
          1    1    5    5  503    0 -0.18144876594E+02  0.47268145890E+01  0.12181929696E+03  0.12325388608E+03  0.00000000000E+00 0. -1.
         -2    1    5    5    0  503 -0.55729750484E+03  0.22518812497E+03  0.18169195972E+04  0.19137625305E+04  0.00000000000E+00 0.  1.
         -1    1    6    6    0  502  0.26209918494E+03  0.85566662076E+02  0.39766049071E+03  0.48389203577E+03  0.00000000000E+00 0.  1.
<mgrwt>
<rscale>  0 0.19554375E+04</rscale>
<asrwt>0</asrwt>
<pdfrwt beam="1">  1        2 0.40430107E+00 0.19554375E+04</pdfrwt>
<pdfrwt beam="2">  1       -2 0.55962392E-01 0.19554375E+04</pdfrwt>
<totfact> 0.82006465E+00</totfact>
</mgrwt>
</event>
<event>
12    1  0.1442183E-007  0.1624586E+04  0.7818608E-02  0.8805584E-01
         -3   -1    0    0    0  501 -0.00000000000E+00  0.00000000000E+00  0.70163156602E+03  0.70163156602E+03  0.00000000000E+00 0.  1.
          3   -1    0    0  501    0  0.00000000000E+00 -0.00000000000E+00 -0.94040837496E+03  0.94040837496E+03  0.00000000000E+00 0. -1.
         23    2    1    2    0    0 -0.26446775694E+02 -0.52231610772E+03  0.10454116711E+03  0.54110061287E+03  0.91364485965E+02 0.  0.
        254    2    1    2    0    0  0.26446775694E+02  0.52231610772E+03 -0.34331797605E+03  0.11009393281E+04  0.90591755870E+03 0.  0.
        -24    2    4    4    0    0 -0.35965354625E+03  0.35953256211E+02  0.30685204359E+02  0.37170236229E+03  0.81103356319E+02 0.  0.
         24    2    4    4    0    0  0.38610032194E+03  0.48636285151E+03 -0.37400318041E+03  0.72923696582E+03  0.79283613871E+02 0.  0.
         11    1    3    3    0    0 -0.24269774421E+02 -0.36226445657E+03  0.29372052067E+02  0.36426264685E+03  0.00000000000E+00 0. -1.
        -11    1    3    3    0    0 -0.21770012735E+01 -0.16005165115E+03  0.75169115039E+02  0.17683796602E+03  0.00000000000E+00 0.  1.
          4    1    6    6  502    0  0.31257099894E+03  0.41757403645E+03 -0.34141704085E+03  0.62340540668E+03  0.00000000000E+00 0. -1.
          1    1    5    5  503    0 -0.98618385032E+02  0.18235232393E+02  0.44462128263E+02  0.10970410392E+03  0.00000000000E+00 0. -1.
         -2    1    5    5    0  503 -0.26103516121E+03  0.17718023818E+02 -0.13776923904E+02  0.26199825837E+03  0.00000000000E+00 0.  1.
         -3    1    6    6    0  502  0.73529322999E+02  0.68788815063E+02 -0.32586139559E+02  0.10583155914E+03  0.00000000000E+00 0.  1.
<mgrwt>
<rscale>  0 0.16245863E+04</rscale>
<asrwt>0</asrwt>
<pdfrwt beam="1">  1        3 0.14467821E+00 0.16245863E+04</pdfrwt>
<pdfrwt beam="2">  1       -3 0.10794332E+00 0.16245863E+04</pdfrwt>
<totfact> 0.64899613E-01</totfact>
</mgrwt>
</event>
<event>
12    1  0.1442183E-007  0.3746505E+04  0.7818608E-02  0.8057733E-01
          2   -1    0    0  501    0  0.00000000000E+00  0.00000000000E+00  0.30724992848E+04  0.30724992848E+04  0.00000000000E+00 0. -1.
         -2   -1    0    0    0  501 -0.00000000000E+00 -0.00000000000E+00 -0.11420911975E+04  0.11420911975E+04  0.00000000000E+00 0.  1.
         23    2    1    2    0    0  0.37947708690E+03  0.31687091155E+03 -0.99523826182E+03  0.11151203707E+04  0.92651008094E+02 0.  0.
        254    2    1    2    0    0 -0.37947708690E+03 -0.31687091155E+03  0.29256463491E+04  0.30994701116E+04  0.89604596903E+03 0.  0.
        -24    2    4    4    0    0  0.27815930255E+03 -0.10344537133E+03  0.11974690020E+04  0.12364010464E+04  0.81743466708E+02 0.  0.
         24    2    4    4    0    0 -0.65763638945E+03 -0.21342554021E+03  0.17281773471E+04  0.18630690652E+04  0.79958218514E+02 0.  0.
         13    1    3    3    0    0  0.33609258152E+03  0.23893404356E+03 -0.78437568926E+03  0.88616754761E+03  0.00000000000E+00 0.  1.
        -13    1    3    3    0    0  0.43384505381E+02  0.77936867984E+02 -0.21086257256E+03  0.22895282310E+03  0.00000000000E+00 0. -1.
          2    1    6    6  502    0 -0.30417962097E+03 -0.57390624376E+02  0.78422284197E+03  0.84310402172E+03  0.00000000000E+00 0. -1.
          1    1    5    5  503    0  0.15337700258E+03 -0.88077805871E+02  0.80842655062E+03  0.82754800015E+03  0.00000000000E+00 0. -1.
         -2    1    5    5    0  503  0.12478229996E+03 -0.15367565463E+02  0.38904245142E+03  0.40885304629E+03  0.00000000000E+00 0.  1.
         -1    1    6    6    0  502 -0.35345676848E+03 -0.15603491584E+03  0.94395450509E+03  0.10199650434E+04  0.00000000000E+00 0.  1.
<mgrwt>
<rscale>  0 0.37465047E+04</rscale>
<asrwt>0</asrwt>
<pdfrwt beam="1">  1        2 0.47269219E+00 0.37465047E+04</pdfrwt>
<pdfrwt beam="2">  1       -2 0.17570634E+00 0.37465047E+04</pdfrwt>
<totfact> 0.24492191E-01</totfact>
</mgrwt>
</event>
<event>
12    1  0.1442183E-007  0.2071004E+04  0.7818608E-02  0.8574125E-01
         -2   -1    0    0    0  501 -0.00000000000E+00  0.00000000000E+00  0.34456909796E+03  0.34456909796E+03  0.00000000000E+00 0.  1.
          2   -1    0    0  501    0  0.00000000000E+00 -0.00000000000E+00 -0.31119003736E+04  0.31119003736E+04  0.00000000000E+00 0. -1.
         23    2    1    2    0    0 -0.50752535436E+02  0.63120636785E+03 -0.20262765534E+04  0.21247884519E+04  0.89061752246E+02 0.  0.
        254    2    1    2    0    0  0.50752535436E+02 -0.63120636785E+03 -0.74105472225E+03  0.13316810197E+04  0.90731192991E+03 0.  0.
        -24    2    4    4    0    0 -0.21619340144E+03  0.99202561227E+02  0.48742882365E+01  0.25119206050E+03  0.80578890487E+02 0.  0.
         24    2    4    4    0    0  0.26694593688E+03 -0.73040892907E+03 -0.74592901048E+03  0.10804889592E+04  0.79302997148E+02 0.  0.
         13    1    3    3    0    0 -0.57765928644E+02  0.61013766929E+03 -0.18947934676E+04  0.19914434872E+04  0.00000000000E+00 0. -1.
        -13    1    3    3    0    0  0.70133932075E+01  0.21068698555E+02 -0.13148308585E+03  0.13334496469E+03  0.00000000000E+00 0.  1.
          4    1    6    6  502    0  0.19832162167E+03 -0.57545130597E+03 -0.62413041482E+03  0.87178807394E+03  0.00000000000E+00 0. -1.
          1    1    5    5  503    0 -0.10904610428E+03  0.46006312959E+02  0.42555034891E+02  0.12577187557E+03  0.00000000000E+00 0. -1.
         -2    1    5    5    0  503 -0.10714729716E+03  0.53196248268E+02 -0.37680746654E+02  0.12542018493E+03  0.00000000000E+00 0.  1.
         -3    1    6    6    0  502  0.68624315211E+02 -0.15495762311E+03 -0.12179859566E+03  0.20870088525E+03  0.00000000000E+00 0.  1.
<mgrwt>
<rscale>  0 0.20710043E+04</rscale>
<asrwt>0</asrwt>
<pdfrwt beam="1">  1        2 0.47875389E+00 0.20710043E+04</pdfrwt>
<pdfrwt beam="2">  1       -2 0.53010632E-01 0.20710043E+04</pdfrwt>
<totfact> 0.45951192E+00</totfact>
</mgrwt>
</event>
<event>
12    1  0.1442183E-007  0.1603210E+04  0.7818608E-02  0.8818579E-01
         -1   -1    0    0    0  501 -0.00000000000E+00  0.00000000000E+00  0.43007923585E+03  0.43007923585E+03  0.00000000000E+00 0.  1.
          1   -1    0    0  501    0  0.00000000000E+00 -0.00000000000E+00 -0.14940741317E+04  0.14940741317E+04  0.00000000000E+00 0. -1.
         23    2    1    2    0    0 -0.33338426350E+03 -0.42918684553E+03 -0.36521073610E+03  0.66091058168E+03  0.89874911334E+02 0.  0.
        254    2    1    2    0    0  0.33338426350E+03  0.42918684553E+03 -0.69878415971E+03  0.12632427858E+04  0.90118622858E+03 0.  0.
        -24    2    4    4    0    0  0.74858697300E+02  0.38495595704E+03 -0.85770453169E+03  0.94646882479E+03  0.79694787733E+02 0.  0.
         24    2    4    4    0    0  0.25852556620E+03  0.44230888494E+02  0.15892037198E+03  0.31677396105E+03  0.79361312308E+02 0.  0.
         13    1    3    3    0    0 -0.44856502468E+02 -0.10215048558E+03 -0.10415937798E+03  0.15263028382E+03  0.00000000000E+00 0.  1.
        -13    1    3    3    0    0 -0.28852776103E+03 -0.32703635995E+03 -0.26105135813E+03  0.50828029786E+03  0.00000000000E+00 0. -1.
          4    1    6    6  502    0  0.63470941143E+02  0.46198501434E+02  0.53994068817E+02  0.95279700733E+02  0.00000000000E+00 0. -1.
          3    1    5    5  503    0  0.44028093517E+02  0.17841498414E+03 -0.49403111069E+03  0.52710256869E+03  0.00000000000E+00 0. -1.
         -4    1    5    5    0  503  0.30830603782E+02  0.20654097290E+03 -0.36367342100E+03  0.41936625610E+03  0.00000000000E+00 0.  1.
         -3    1    6    6    0  502  0.19505462506E+03 -0.19676129399E+01  0.10492630317E+03  0.22149426031E+03  0.00000000000E+00 0.  1.
<mgrwt>
<rscale>  0 0.16032096E+04</rscale>
<asrwt>0</asrwt>
<pdfrwt beam="1">  1        1 0.22985756E+00 0.16032096E+04</pdfrwt>
<pdfrwt beam="2">  1       -1 0.66166035E-01 0.16032096E+04</pdfrwt>
<totfact> 0.14663929E+01</totfact>
</mgrwt>
</event>
<event>
12    1  0.1442183E-007  0.3915188E+04  0.7818608E-02  0.8021878E-01
          2   -1    0    0  501    0  0.00000000000E+00  0.00000000000E+00  0.30904875100E+04  0.30904875100E+04  0.00000000000E+00 0. -1.
         -2   -1    0    0    0  501 -0.00000000000E+00 -0.00000000000E+00 -0.12399900592E+04  0.12399900592E+04  0.00000000000E+00 0.  1.
         23    2    1    2    0    0  0.12700435993E+04  0.13249134653E+04  0.11270184916E+04  0.21556394554E+04  0.90577848586E+02 0.  0.
        254    2    1    2    0    0 -0.12700435993E+04 -0.13249134653E+04  0.72347895922E+03  0.21748381138E+04  0.91547396584E+03 0.  0.
        -24    2    4    4    0    0  0.94632603179E+02 -0.15311963734E+03  0.24070605073E+03  0.31071989404E+03  0.78781322479E+02 0.  0.
         24    2    4    4    0    0 -0.13646762025E+04 -0.11717938279E+04  0.48277290849E+03  0.18641182197E+04  0.80156990898E+02 0.  0.
         11    1    3    3    0    0  0.62632390332E+01  0.85440971435E+01  0.16065533429E+02  0.19243989283E+02  0.00000000000E+00 0.  1.
        -11    1    3    3    0    0  0.12637803603E+04  0.13163693681E+04  0.11109529582E+04  0.21363954661E+04  0.00000000000E+00 0. -1.
          2    1    6    6  502    0 -0.72527733815E+03 -0.60010161852E+03  0.21516043150E+03  0.96563097562E+03  0.00000000000E+00 0. -1.
          1    1    5    5  503    0 -0.13600725732E+02 -0.27163239297E+02  0.35012212088E+02  0.46353816508E+02  0.00000000000E+00 0. -1.
         -2    1    5    5    0  503  0.10823332891E+03 -0.12595639804E+03  0.20569383864E+03  0.26436607753E+03  0.00000000000E+00 0.  1.
         -1    1    6    6    0  502 -0.63939886432E+03 -0.57169220943E+03  0.26761247699E+03  0.89848724412E+03  0.00000000000E+00 0.  1.
<mgrwt>
<rscale>  0 0.39151878E+04</rscale>
<asrwt>0</asrwt>
<pdfrwt beam="1">  1        2 0.47545961E+00 0.39151878E+04</pdfrwt>
<pdfrwt beam="2">  1       -2 0.19076770E+00 0.39151878E+04</pdfrwt>
<totfact> 0.18552130E-01</totfact>
</mgrwt>
</event>
<event>
12    1  0.1442183E-007  0.2399235E+04  0.7818608E-02  0.8439790E-01
          2   -1    0    0  501    0  0.00000000000E+00  0.00000000000E+00  0.21247443989E+04  0.21247443989E+04  0.00000000000E+00 0. -1.
         -2   -1    0    0    0  501 -0.00000000000E+00 -0.00000000000E+00 -0.67729635876E+03  0.67729635876E+03  0.00000000000E+00 0.  1.
         23    2    1    2    0    0 -0.15266238257E+03  0.14571079174E+03 -0.55623274043E+03  0.60198161529E+03  0.91921519472E+02 0.  0.
        254    2    1    2    0    0  0.15266238257E+03 -0.14571079174E+03  0.20036807806E+04  0.22000591424E+04  0.88373419172E+03 0.  0.
        -24    2    4    4    0    0 -0.18620176523E+03  0.27683867321E+03  0.56908565126E+03  0.66461350387E+03  0.80881905831E+02 0.  0.
         24    2    4    4    0    0  0.33886414780E+03 -0.42254946495E+03  0.14345951293E+04  0.15354456385E+04  0.78442098205E+02 0.  0.
         11    1    3    3    0    0 -0.15215913097E+02  0.18792787027E+02 -0.18192505355E+03  0.18352497913E+03  0.00000000000E+00 0. -1.
        -11    1    3    3    0    0 -0.13744646947E+03  0.12691800471E+03 -0.37430768688E+03  0.41845663616E+03  0.00000000000E+00 0.  1.
          4    1    6    6  502    0  0.52289090247E+02 -0.27826581793E+02  0.14067001728E+03  0.15263198018E+03  0.00000000000E+00 0. -1.
          1    1    5    5  503    0 -0.89748368082E+02  0.67215804758E+02  0.20175928937E+03  0.23082362278E+03  0.00000000000E+00 0. -1.
         -2    1    5    5    0  503 -0.96453397147E+02  0.20962286845E+03  0.36732636189E+03  0.43378988109E+03  0.00000000000E+00 0.  1.
         -3    1    6    6    0  502  0.28657505755E+03 -0.39472288316E+03  0.12939251120E+04  0.13828136583E+04  0.00000000000E+00 0.  1.
<mgrwt>
<rscale>  0 0.23992346E+04</rscale>
<asrwt>0</asrwt>
<pdfrwt beam="1">  1        2 0.32688375E+00 0.23992346E+04</pdfrwt>
<pdfrwt beam="2">  1       -2 0.10419944E+00 0.23992346E+04</pdfrwt>
<totfact> 0.38317447E+00</totfact>
</mgrwt>
</event>
<event>
12    1  0.1442183E-007  0.2956031E+04  0.7818608E-02  0.8256399E-01
         -2   -1    0    0    0  501 -0.00000000000E+00  0.00000000000E+00  0.76354066706E+03  0.76354066706E+03  0.00000000000E+00 0.  1.
          2   -1    0    0  501    0  0.00000000000E+00 -0.00000000000E+00 -0.28610527119E+04  0.28610527119E+04  0.00000000000E+00 0. -1.
         23    2    1    2    0    0  0.25502328281E+03  0.65600541089E+03  0.44691040286E+03  0.83794172762E+03  0.83889551272E+02 0.  0.
        254    2    1    2    0    0 -0.25502328281E+03 -0.65600541089E+03 -0.25444224477E+04  0.27866516513E+04  0.89216694602E+03 0.  0.
        -24    2    4    4    0    0  0.65748155502E+02  0.18324398152E+03 -0.29125340734E+03  0.35963012036E+03  0.81265610618E+02 0.  0.
         24    2    4    4    0    0 -0.32077143831E+03 -0.83924939241E+03 -0.22531690403E+04  0.24270215310E+04  0.80180602560E+02 0.  0.
         13    1    3    3    0    0  0.17167711857E+03  0.38942461378E+03  0.31237425120E+03  0.52792256598E+03  0.00000000000E+00 0.  1.
        -13    1    3    3    0    0  0.83346164240E+02  0.26658079711E+03  0.13453615166E+03  0.31001916164E+03  0.00000000000E+00 0. -1.
          4    1    6    6  502    0 -0.24806256434E+03 -0.72427550258E+03 -0.18859893524E+04  0.20354522536E+04  0.00000000000E+00 0. -1.
          3    1    5    5  503    0  0.55828263113E+02  0.18680759565E+03 -0.24993252673E+03  0.31698602598E+03  0.00000000000E+00 0. -1.
         -4    1    5    5    0  503  0.99198923887E+01 -0.35636141265E+01 -0.41320880610E+02  0.42644094375E+02  0.00000000000E+00 0.  1.
         -3    1    6    6    0  502 -0.72708873967E+02 -0.11497388984E+03 -0.36717968799E+03  0.39156927736E+03  0.00000000000E+00 0.  1.
<mgrwt>
<rscale>  0 0.29560312E+04</rscale>
<asrwt>0</asrwt>
<pdfrwt beam="1">  1        2 0.44016195E+00 0.29560312E+04</pdfrwt>
<pdfrwt beam="2">  1       -2 0.11746780E+00 0.29560312E+04</pdfrwt>
<totfact> 0.10203683E+00</totfact>
</mgrwt>
</event>
<event>
12    1  0.1442183E-007  0.3211295E+04  0.7818608E-02  0.8185841E-01
          2   -1    0    0  501    0  0.00000000000E+00  0.00000000000E+00  0.34638196757E+04  0.34638196757E+04  0.00000000000E+00 0. -1.
         -2   -1    0    0    0  501 -0.00000000000E+00 -0.00000000000E+00 -0.74429509285E+03  0.74429509285E+03  0.00000000000E+00 0.  1.
         23    2    1    2    0    0  0.87826811695E+02  0.30440573392E+03  0.31417431798E+04  0.31589932920E+04  0.91170230971E+02 0.  0.
        254    2    1    2    0    0 -0.87826811695E+02 -0.30440573392E+03 -0.42221859692E+03  0.10491214766E+04  0.90664818395E+03 0.  0.
        -24    2    4    4    0    0 -0.34467545630E+01 -0.58264799609E+03 -0.45776735320E+03  0.74513075789E+03  0.78602348834E+02 0.  0.
         24    2    4    4    0    0 -0.84380057132E+02  0.27824226217E+03  0.35548756276E+02  0.30399071874E+03  0.81288944561E+02 0.  0.
         13    1    3    3    0    0  0.10418909283E+03  0.21723302930E+03  0.23223358979E+04  0.23347996871E+04  0.00000000000E+00 0. -1.
        -13    1    3    3    0    0 -0.16362281134E+02  0.87172704613E+02  0.81940728192E+03  0.82419360489E+03  0.00000000000E+00 0.  1.
          2    1    6    6  502    0 -0.25296384243E+02  0.32713713947E+02 -0.19190019282E+02  0.45588934798E+02  0.00000000000E+00 0. -1.
          1    1    5    5  503    0 -0.18036102388E+02 -0.25098642994E+03 -0.15317455708E+03  0.29458773556E+03  0.00000000000E+00 0. -1.
         -2    1    5    5    0  503  0.14589347825E+02 -0.33166156614E+03 -0.30459279612E+03  0.45054302233E+03  0.00000000000E+00 0.  1.
         -1    1    6    6    0  502 -0.59083672889E+02  0.24552854822E+03  0.54738775557E+02  0.25840178394E+03  0.00000000000E+00 0.  1.
<mgrwt>
<rscale>  0 0.32112951E+04</rscale>
<asrwt>0</asrwt>
<pdfrwt beam="1">  1        2 0.53289533E+00 0.32112951E+04</pdfrwt>
<pdfrwt beam="2">  1       -2 0.11450694E+00 0.32112951E+04</pdfrwt>
<totfact> 0.43137722E-01</totfact>
</mgrwt>
</event>
<event>
12    1  0.1442183E-007  0.1264761E+04  0.7818608E-02  0.9057987E-01
         -1   -1    0    0    0  501 -0.00000000000E+00  0.00000000000E+00  0.33203064478E+03  0.33203064478E+03  0.00000000000E+00 0.  1.
          1   -1    0    0  501    0  0.00000000000E+00 -0.00000000000E+00 -0.12044214107E+04  0.12044214107E+04  0.00000000000E+00 0. -1.
         23    2    1    2    0    0  0.29255057314E+03  0.38017948141E+02 -0.22667994021E+03  0.38295759703E+03  0.90782837620E+02 0.  0.
        254    2    1    2    0    0 -0.29255057314E+03 -0.38017948141E+02 -0.64571082573E+03  0.11534944585E+04  0.90916213793E+03 0.  0.
        -24    2    4    4    0    0  0.81999678675E+01 -0.17123240377E+03 -0.77009458070E+03  0.79285641718E+03  0.78662948518E+02 0.  0.
         24    2    4    4    0    0 -0.30075054100E+03  0.13321445563E+03  0.12438375497E+03  0.36063804129E+03  0.79946852511E+02 0.  0.
         13    1    3    3    0    0  0.29345390309E+02 -0.17446572491E+02 -0.52082813233E+02  0.62274828449E+02  0.00000000000E+00 0. -1.
        -13    1    3    3    0    0  0.26320518283E+03  0.55464520632E+02 -0.17459712698E+03  0.32068276858E+03  0.00000000000E+00 0.  1.
          4    1    6    6  502    0 -0.18815484306E+03  0.12253139861E+03  0.70396168906E+02  0.23531215270E+03  0.00000000000E+00 0. -1.
          1    1    5    5  503    0 -0.47760242004E+01 -0.16674844319E+03 -0.61718719567E+03  0.63933394107E+03  0.00000000000E+00 0. -1.
         -2    1    5    5    0  503  0.12975992068E+02 -0.44839605758E+01 -0.15290738503E+03  0.15352247611E+03  0.00000000000E+00 0.  1.
         -3    1    6    6    0  502 -0.11259569795E+03  0.10683057016E+02  0.53987586061E+02  0.12532588859E+03  0.00000000000E+00 0.  1.
<mgrwt>
<rscale>  0 0.12647606E+04</rscale>
<asrwt>0</asrwt>
<pdfrwt beam="1">  1        1 0.18529560E+00 0.12647606E+04</pdfrwt>
<pdfrwt beam="2">  1       -1 0.51081638E-01 0.12647606E+04</pdfrwt>
<totfact> 0.40248108E+01</totfact>
</mgrwt>
</event>
<event>
12    1  0.1442183E-007  0.1966811E+04  0.7818608E-02  0.8622297E-01
         -2   -1    0    0    0  501 -0.00000000000E+00  0.00000000000E+00  0.13046615546E+04  0.13046615546E+04  0.00000000000E+00 0.  1.
          2   -1    0    0  501    0  0.00000000000E+00 -0.00000000000E+00 -0.74125469722E+03  0.74125469722E+03  0.00000000000E+00 0. -1.
         23    2    1    2    0    0  0.51774988664E+03 -0.56466981101E+03  0.10447255867E+03  0.77857662084E+03  0.91378872958E+02 0.  0.
        254    2    1    2    0    0 -0.51774988664E+03  0.56466981101E+03  0.45893429869E+03  0.12673396310E+04  0.89922861893E+03 0.  0.
        -24    2    4    4    0    0 -0.38729595915E+02  0.64758239093E+03  0.41174589680E+03  0.77216434746E+03  0.76420948128E+02 0.  0.
         24    2    4    4    0    0 -0.47902029072E+03 -0.82912579914E+02  0.47188401891E+02  0.49517528350E+03  0.81467056447E+02 0.  0.
         13    1    3    3    0    0  0.40476086470E+03 -0.48202632077E+03  0.62993363225E+02  0.63257323317E+03  0.00000000000E+00 0. -1.
        -13    1    3    3    0    0  0.11298902193E+03 -0.82643490243E+02  0.41479195449E+02  0.14600338767E+03  0.00000000000E+00 0.  1.
          2    1    6    6  502    0 -0.36614722482E+03 -0.41732849424E+02  0.63414552814E+02  0.37393425421E+03  0.00000000000E+00 0. -1.
          1    1    5    5  503    0  0.20899014727E+02  0.21327244650E+03  0.15014489234E+03  0.26165892675E+03  0.00000000000E+00 0. -1.
         -2    1    5    5    0  503 -0.59628610642E+02  0.43430994443E+03  0.26160100446E+03  0.51050542070E+03  0.00000000000E+00 0.  1.
         -1    1    6    6    0  502 -0.11287306590E+03 -0.41179730491E+02 -0.16226150922E+02  0.12124102929E+03  0.00000000000E+00 0.  1.
<mgrwt>
<rscale>  0 0.19668111E+04</rscale>
<asrwt>0</asrwt>
<pdfrwt beam="1">  1        2 0.11403918E+00 0.19668111E+04</pdfrwt>
<pdfrwt beam="2">  1       -2 0.20071716E+00 0.19668111E+04</pdfrwt>
<totfact> 0.46636328E+00</totfact>
</mgrwt>
</event>
<event>
12    1  0.1442183E-007  0.1518325E+04  0.7818608E-02  0.8872358E-01
         -1   -1    0    0    0  501 -0.00000000000E+00  0.00000000000E+00  0.53795652236E+03  0.53795652236E+03  0.00000000000E+00 0.  1.
          1   -1    0    0  501    0  0.00000000000E+00 -0.00000000000E+00 -0.10713271938E+04  0.10713271938E+04  0.00000000000E+00 0. -1.
         23    2    1    2    0    0 -0.29406953403E+03  0.36997889879E+03 -0.29114968296E+03  0.56313330487E+03  0.94814053692E+02 0.  0.
        254    2    1    2    0    0  0.29406953403E+03 -0.36997889879E+03 -0.24222098844E+03  0.10461504113E+04  0.90133145919E+03 0.  0.
        -24    2    4    4    0    0  0.37625148035E+03 -0.17354362773E+03 -0.53106056141E+03  0.67855061971E+03  0.81994246304E+02 0.  0.
         24    2    4    4    0    0 -0.82181946319E+02 -0.19643527105E+03  0.28883957297E+03  0.36759979155E+03  0.79753494100E+02 0.  0.
         13    1    3    3    0    0 -0.72812371978E+02  0.12045393790E+03 -0.42112321160E+02  0.14691575907E+03  0.00000000000E+00 0.  1.
        -13    1    3    3    0    0 -0.22125716205E+03  0.24952496089E+03 -0.24903736180E+03  0.41621754581E+03  0.00000000000E+00 0. -1.
          2    1    6    6  502    0 -0.27450866765E+02 -0.66770548976E+02  0.42182193483E+02  0.83613358644E+02  0.00000000000E+00 0. -1.
          3    1    5    5  503    0  0.33703870418E+03 -0.17846909617E+03 -0.49637976511E+03  0.62597058846E+03  0.00000000000E+00 0. -1.
         -4    1    5    5    0  503  0.39212776165E+02  0.49254684362E+01 -0.34680796297E+02  0.52580031244E+02  0.00000000000E+00 0.  1.
         -1    1    6    6    0  502 -0.54731079554E+02 -0.12966472208E+03  0.24665737948E+03  0.28398643290E+03  0.00000000000E+00 0.  1.
<mgrwt>
<rscale>  0 0.15183247E+04</rscale>
<asrwt>0</asrwt>
<pdfrwt beam="1">  1        1 0.16481957E+00 0.15183247E+04</pdfrwt>
<pdfrwt beam="2">  1       -1 0.82762543E-01 0.15183247E+04</pdfrwt>
<totfact> 0.18677429E+01</totfact>
</mgrwt>
</event>
<event>
12    1  0.1442183E-007  0.2168130E+04  0.7818608E-02  0.8531811E-01
          3   -1    0    0  501    0  0.00000000000E+00  0.00000000000E+00  0.59624186055E+03  0.59624186055E+03  0.00000000000E+00 0. -1.
         -3   -1    0    0    0  501 -0.00000000000E+00 -0.00000000000E+00 -0.19710066744E+04  0.19710066744E+04  0.00000000000E+00 0.  1.
         23    2    1    2    0    0  0.64799875853E+03  0.54238058111E+03 -0.22392586125E+03  0.87850690829E+03  0.86905182591E+02 0.  0.
        254    2    1    2    0    0 -0.64799875853E+03 -0.54238058111E+03 -0.11508389526E+04  0.16887416266E+04  0.90185303734E+03 0.  0.
        -24    2    4    4    0    0 -0.42682256337E+03 -0.34112791822E+03 -0.61097158088E+02  0.55567235590E+03  0.80580066990E+02 0.  0.
         24    2    4    4    0    0 -0.22117619516E+03 -0.20125266289E+03 -0.10897417945E+04  0.11330692707E+04  0.82989457270E+02 0.  0.
         13    1    3    3    0    0  0.45865544895E+03  0.39811048694E+03 -0.12153683797E+03  0.61937709325E+03  0.00000000000E+00 0. -1.
        -13    1    3    3    0    0  0.18934330959E+03  0.14427009417E+03 -0.10238902328E+03  0.25912981504E+03  0.00000000000E+00 0.  1.
          2    1    6    6  502    0 -0.20471532949E+03 -0.20817840854E+03 -0.10405427472E+04  0.10807293022E+04  0.00000000000E+00 0. -1.
          3    1    5    5  503    0 -0.26099144084E+03 -0.20913202892E+03  0.22726075397E+01  0.33445164442E+03  0.00000000000E+00 0. -1.
         -4    1    5    5    0  503 -0.16583112253E+03 -0.13199588930E+03 -0.63369765627E+02  0.22122071148E+03  0.00000000000E+00 0.  1.
         -1    1    6    6    0  502 -0.16460865669E+02  0.69257456528E+01 -0.49199047281E+02  0.52339968521E+02  0.00000000000E+00 0.  1.
<mgrwt>
<rscale>  0 0.21681298E+04</rscale>
<asrwt>0</asrwt>
<pdfrwt beam="1">  1        3 0.91729517E-01 0.21681298E+04</pdfrwt>
<pdfrwt beam="2">  1       -3 0.30323180E+00 0.21681298E+04</pdfrwt>
<totfact> 0.93207445E-02</totfact>
</mgrwt>
</event>
<event>
12    1  0.1442183E-007  0.1247238E+04  0.7818608E-02  0.9072485E-01
         -1   -1    0    0    0  501 -0.00000000000E+00  0.00000000000E+00  0.67299747599E+03  0.67299747599E+03  0.00000000000E+00 0.  1.
          1   -1    0    0  501    0  0.00000000000E+00 -0.00000000000E+00 -0.57786349114E+03  0.57786349114E+03  0.00000000000E+00 0. -1.
         23    2    1    2    0    0 -0.21071022071E+03 -0.13117591943E+03  0.15126446643E+03  0.30550796634E+03  0.94065188775E+02 0.  0.
        254    2    1    2    0    0  0.21071022071E+03  0.13117591943E+03 -0.56130481588E+02  0.94535300080E+03  0.91045908541E+03 0.  0.
        -24    2    4    4    0    0 -0.20992100705E+03 -0.90247035847E+02 -0.31585557543E+03  0.39798821105E+03  0.80115634692E+02 0.  0.
         24    2    4    4    0    0  0.42063122776E+03  0.22142295527E+03  0.25972509384E+03  0.54736478975E+03  0.78691383225E+02 0.  0.
         13    1    3    3    0    0 -0.16279106819E+03 -0.77737373572E+02  0.14853244255E+03  0.23367909111E+03  0.00000000000E+00 0.  1.
        -13    1    3    3    0    0 -0.47919152520E+02 -0.53438545854E+02  0.27320238806E+01  0.71828875222E+02  0.00000000000E+00 0. -1.
          2    1    6    6  502    0  0.72105357953E+01  0.52846408862E+01  0.22060505414E+02  0.23803049277E+02  0.00000000000E+00 0. -1.
          3    1    5    5  503    0 -0.43873217015E+02 -0.50903601652E+02 -0.12537003373E+03  0.14224514469E+03  0.00000000000E+00 0. -1.
         -4    1    5    5    0  503 -0.16604779003E+03 -0.39343434195E+02 -0.19048554170E+03  0.25574306635E+03  0.00000000000E+00 0.  1.
         -3    1    6    6    0  502  0.41342069197E+03  0.21613831439E+03  0.23766458843E+03  0.52356174047E+03  0.00000000000E+00 0.  1.
<mgrwt>
<rscale>  0 0.12472380E+04</rscale>
<asrwt>0</asrwt>
<pdfrwt beam="1">  1        1 0.88902076E-01 0.12472380E+04</pdfrwt>
<pdfrwt beam="2">  1       -1 0.10353807E+00 0.12472380E+04</pdfrwt>
<totfact> 0.31384445E+01</totfact>
</mgrwt>
</event>
<event>
12    1  0.1442183E-007  0.3286725E+04  0.7818608E-02  0.8166282E-01
         -1   -1    0    0    0  501 -0.00000000000E+00  0.00000000000E+00  0.77612293041E+03  0.77612293041E+03  0.00000000000E+00 0.  1.
          1   -1    0    0  501    0  0.00000000000E+00 -0.00000000000E+00 -0.34796547918E+04  0.34796547918E+04  0.00000000000E+00 0. -1.
         23    2    1    2    0    0  0.10839381555E+04 -0.71461501352E+03 -0.22698926748E+04  0.26166130926E+04  0.93031063391E+02 0.  0.
        254    2    1    2    0    0 -0.10839381555E+04  0.71461501352E+03 -0.43363918666E+03  0.16391646297E+04  0.90178777792E+03 0.  0.
        -24    2    4    4    0    0 -0.52848679777E+03  0.83152339452E+03 -0.14844081728E+03  0.99958793472E+03  0.80074415090E+02 0.  0.
         24    2    4    4    0    0 -0.55545135775E+03 -0.11690838100E+03 -0.28519836938E+03  0.63957669495E+03  0.74340153681E+02 0.  0.
         13    1    3    3    0    0  0.10420381220E+04 -0.68922359153E+03 -0.22148991471E+04  0.25429610376E+04  0.00000000000E+00 0. -1.
        -13    1    3    3    0    0  0.41900033536E+02 -0.25391421991E+02 -0.54993527646E+02  0.73652054988E+02  0.00000000000E+00 0.  1.
          4    1    6    6  502    0 -0.36767327613E+03 -0.42682926581E+02 -0.19604243826E+03  0.41885332492E+03  0.00000000000E+00 0. -1.
          3    1    5    5  503    0 -0.23741673703E+03  0.44806583238E+03 -0.78268748401E+02  0.51308449026E+03  0.00000000000E+00 0. -1.
         -4    1    5    5    0  503 -0.29107006074E+03  0.38345756214E+03 -0.70172068880E+02  0.48650344446E+03  0.00000000000E+00 0.  1.
         -3    1    6    6    0  502 -0.18777808162E+03 -0.74225454417E+02 -0.89155931116E+02  0.22072337002E+03  0.00000000000E+00 0.  1.
<mgrwt>
<rscale>  0 0.32867247E+04</rscale>
<asrwt>0</asrwt>
<pdfrwt beam="1">  1        1 0.53533149E+00 0.32867247E+04</pdfrwt>
<pdfrwt beam="2">  1       -1 0.11940353E+00 0.32867247E+04</pdfrwt>
<totfact> 0.13477517E-01</totfact>
</mgrwt>
</event>
<event>
12    1  0.1442183E-007  0.1474633E+04  0.7818608E-02  0.8901499E-01
         -1   -1    0    0    0  501 -0.00000000000E+00  0.00000000000E+00  0.27458524115E+03  0.27458524115E+03  0.00000000000E+00 0.  1.
          1   -1    0    0  501    0  0.00000000000E+00 -0.00000000000E+00 -0.19798437226E+04  0.19798437226E+04  0.00000000000E+00 0. -1.
         23    2    1    2    0    0  0.21307734918E+03 -0.33745088797E+03 -0.25905320147E+03  0.48375865910E+03  0.87400346295E+02 0.  0.
        254    2    1    2    0    0 -0.21307734918E+03  0.33745088797E+03 -0.14462052800E+04  0.17706703047E+04  0.94047251817E+03 0.  0.
        -24    2    4    4    0    0 -0.14812922397E+03  0.22330461643E+03 -0.15567384550E+04  0.15815099797E+04  0.77019346603E+02 0.  0.
         24    2    4    4    0    0 -0.64948125213E+02  0.11414627155E+03  0.11053317499E+03  0.18916032503E+03  0.79475880084E+02 0.  0.
         11    1    3    3    0    0  0.10622924966E+03 -0.22828538403E+03 -0.19339965770E+03  0.31749377576E+03  0.00000000000E+00 0. -1.
        -11    1    3    3    0    0  0.10684809952E+03 -0.10916550394E+03 -0.65653543762E+02  0.16626488334E+03  0.00000000000E+00 0.  1.
          2    1    6    6  502    0 -0.26777585001E+02  0.50789315256E+02  0.98795630762E+02  0.11426797566E+03  0.00000000000E+00 0. -1.
          1    1    5    5  503    0 -0.12539513820E+03  0.13012672588E+03 -0.91892662001E+03  0.93652711570E+03  0.00000000000E+00 0. -1.
         -2    1    5    5    0  503 -0.22734085771E+02  0.93177890543E+02 -0.63781183499E+03  0.64498286396E+03  0.00000000000E+00 0.  1.
         -1    1    6    6    0  502 -0.38170540212E+02  0.63356956289E+02  0.11737544231E+02  0.74892349375E+02  0.00000000000E+00 0.  1.
<mgrwt>
<rscale>  0 0.14746333E+04</rscale>
<asrwt>0</asrwt>
<pdfrwt beam="1">  1        1 0.30459135E+00 0.14746333E+04</pdfrwt>
<pdfrwt beam="2">  1       -1 0.42243882E-01 0.14746333E+04</pdfrwt>
<totfact> 0.16431341E+01</totfact>
</mgrwt>
</event>
<event>
12    1  0.1442183E-007  0.1342049E+04  0.7818608E-02  0.8996869E-01
          1   -1    0    0  501    0  0.00000000000E+00  0.00000000000E+00  0.36364903447E+03  0.36364903447E+03  0.00000000000E+00 0. -1.
         -1   -1    0    0    0  501 -0.00000000000E+00 -0.00000000000E+00 -0.12382105513E+04  0.12382105513E+04  0.00000000000E+00 0.  1.
         23    2    1    2    0    0 -0.28467203806E+02  0.12200416718E+03 -0.64780398727E+03  0.66671994494E+03  0.95760537614E+02 0.  0.
        254    2    1    2    0    0  0.28467203806E+02 -0.12200416718E+03 -0.22675752957E+03  0.93513964083E+03  0.89853868706E+03 0.  0.
        -24    2    4    4    0    0  0.53738131595E+02  0.13290024423E+03  0.30077398768E+03  0.34240850021E+03  0.78919754488E+02 0.  0.
         24    2    4    4    0    0 -0.25270927790E+02 -0.25490441142E+03 -0.52753151725E+03  0.59273114062E+03  0.86173224482E+02 0.  0.
         11    1    3    3    0    0 -0.62044001606E+02  0.56376327768E+02 -0.33075393513E+03  0.34121241782E+03  0.00000000000E+00 0.  1.
        -11    1    3    3    0    0  0.33576797800E+02  0.65627839416E+02 -0.31705005214E+03  0.32550752713E+03  0.00000000000E+00 0. -1.
          2    1    6    6  502    0 -0.15619666675E+02 -0.18632426108E+02 -0.15774828154E+02  0.28982520474E+02  0.00000000000E+00 0. -1.
          3    1    5    5  503    0  0.17999776483E+02  0.79970076348E+02  0.88029964113E+02  0.12028499344E+03  0.00000000000E+00 0. -1.
         -4    1    5    5    0  503  0.35738355112E+02  0.52930167884E+02  0.21274402357E+03  0.22212350678E+03  0.00000000000E+00 0.  1.
         -1    1    6    6    0  502 -0.96512611147E+01 -0.23627198531E+03 -0.51175668909E+03  0.56374862015E+03  0.00000000000E+00 0.  1.
<mgrwt>
<rscale>  0 0.13420493E+04</rscale>
<asrwt>0</asrwt>
<pdfrwt beam="1">  1        1 0.55946006E-01 0.13420493E+04</pdfrwt>
<pdfrwt beam="2">  1       -1 0.19049393E+00 0.13420493E+04</pdfrwt>
<totfact> 0.11689340E+01</totfact>
</mgrwt>
</event>
<event>
12    1  0.1442183E-007  0.1384988E+04  0.7818608E-02  0.8964757E-01
         -2   -1    0    0    0  501 -0.00000000000E+00  0.00000000000E+00  0.12125474486E+03  0.12125474486E+03  0.00000000000E+00 0.  1.
          2   -1    0    0  501    0  0.00000000000E+00 -0.00000000000E+00 -0.39548785246E+04  0.39548785246E+04  0.00000000000E+00 0. -1.
         23    2    1    2    0    0 -0.26026989359E+03 -0.20003099337E+03 -0.17725492188E+04  0.18046177888E+04  0.83437489615E+02 0.  0.
        254    2    1    2    0    0  0.26026989359E+03  0.20003099337E+03 -0.20610745609E+04  0.22715154806E+04  0.89666126124E+03 0.  0.
        -24    2    4    4    0    0 -0.11221806439E+03  0.43069823451E+03 -0.64891212881E+03  0.79079259938E+03  0.78562848187E+02 0.  0.
         24    2    4    4    0    0  0.37248795799E+03 -0.23066724114E+03 -0.14121624321E+04  0.14807228813E+04  0.79892812843E+02 0.  0.
         11    1    3    3    0    0 -0.66403263116E+02 -0.39457862666E+02 -0.62677058243E+03  0.63151221626E+03  0.00000000000E+00 0.  1.
        -11    1    3    3    0    0 -0.19386663048E+03 -0.16057313070E+03 -0.11457786364E+04  0.11731055726E+04  0.00000000000E+00 0. -1.
          4    1    6    6  502    0  0.13676940772E+03 -0.42598086905E+02 -0.42103221261E+03  0.44473429366E+03  0.00000000000E+00 0. -1.
          1    1    5    5  503    0 -0.69431939561E+02  0.18841874305E+03 -0.35143665478E+03  0.40475935973E+03  0.00000000000E+00 0. -1.
         -2    1    5    5    0  503 -0.42786124833E+02  0.24227949146E+03 -0.29747547404E+03  0.38603323965E+03  0.00000000000E+00 0.  1.
         -3    1    6    6    0  502  0.23571855026E+03 -0.18806915424E+03 -0.99113021948E+03  0.10359885876E+04  0.00000000000E+00 0.  1.
<mgrwt>
<rscale>  0 0.13849878E+04</rscale>
<asrwt>0</asrwt>
<pdfrwt beam="1">  1        2 0.60844286E+00 0.13849878E+04</pdfrwt>
<pdfrwt beam="2">  1       -2 0.18654576E-01 0.13849878E+04</pdfrwt>
<totfact> 0.89977784E+00</totfact>
</mgrwt>
</event>
<event>
12    1  0.1442183E-007  0.1680383E+04  0.7818608E-02  0.8772632E-01
          1   -1    0    0  501    0  0.00000000000E+00  0.00000000000E+00  0.48417242153E+03  0.48417242153E+03  0.00000000000E+00 0. -1.
         -1   -1    0    0    0  501 -0.00000000000E+00 -0.00000000000E+00 -0.14579967711E+04  0.14579967711E+04  0.00000000000E+00 0.  1.
         23    2    1    2    0    0  0.43628406113E+03  0.17588583350E+03  0.74988702713E+02  0.48508394112E+03  0.91670693110E+02 0.  0.
        254    2    1    2    0    0 -0.43628406113E+03 -0.17588583350E+03 -0.10488130523E+04  0.14570852515E+04  0.89543788344E+03 0.  0.
        -24    2    4    4    0    0 -0.98062260079E+02  0.22918364423E+03  0.20440336023E+02  0.26196528479E+03  0.77888724910E+02 0.  0.
         24    2    4    4    0    0 -0.33822180105E+03 -0.40506947773E+03 -0.10692533883E+04  0.11951199667E+04  0.80831045711E+02 0.  0.
         11    1    3    3    0    0  0.38541909873E+03  0.15769891839E+03  0.35053173583E+02  0.41790615634E+03  0.00000000000E+00 0. -1.
        -11    1    3    3    0    0  0.50864962398E+02  0.18186915111E+02  0.39935529130E+02  0.67177784780E+02  0.00000000000E+00 0.  1.
          2    1    6    6  502    0 -0.25852455161E+03 -0.35468255760E+03 -0.85641999714E+03  0.96233563374E+03  0.00000000000E+00 0. -1.
          3    1    5    5  503    0 -0.98857256945E+02  0.22338552568E+03  0.34527948059E+02  0.24671041634E+03  0.00000000000E+00 0. -1.
         -4    1    5    5    0  503  0.79499686675E+00  0.57981185504E+01 -0.14087612037E+02  0.15254868457E+02  0.00000000000E+00 0.  1.
         -1    1    6    6    0  502 -0.79697249434E+02 -0.50386920127E+02 -0.21283339113E+03  0.23278433295E+03  0.00000000000E+00 0.  1.
<mgrwt>
<rscale>  0 0.16803831E+04</rscale>
<asrwt>0</asrwt>
<pdfrwt beam="1">  1        1 0.74488065E-01 0.16803831E+04</pdfrwt>
<pdfrwt beam="2">  1       -1 0.22430720E+00 0.16803831E+04</pdfrwt>
<totfact> 0.45479564E+00</totfact>
</mgrwt>
</event>
<event>
12    1  0.1442183E-007  0.2361383E+04  0.7818608E-02  0.8454104E-01
         -2   -1    0    0    0  501 -0.00000000000E+00  0.00000000000E+00  0.10912057116E+04  0.10912057116E+04  0.00000000000E+00 0.  1.
          2   -1    0    0  501    0  0.00000000000E+00 -0.00000000000E+00 -0.12775155105E+04  0.12775155105E+04  0.00000000000E+00 0. -1.
         23    2    1    2    0    0  0.85154202947E+03  0.23151611495E+03 -0.57307188361E+03  0.10561871869E+04  0.91632148094E+02 0.  0.
        254    2    1    2    0    0 -0.85154202947E+03 -0.23151611495E+03  0.38676208474E+03  0.13125340351E+04  0.89131203503E+03 0.  0.
        -24    2    4    4    0    0 -0.37522246087E+03  0.17382577403E+03  0.51899395717E+03  0.66832464128E+03  0.79346100785E+02 0.  0.
         24    2    4    4    0    0 -0.47631956860E+03 -0.40534188898E+03 -0.13223187242E+03  0.64420939387E+03  0.79612164094E+02 0.  0.
         13    1    3    3    0    0  0.42238078492E+03  0.91259448551E+02 -0.23297668977E+03  0.49092968172E+03  0.00000000000E+00 0. -1.
        -13    1    3    3    0    0  0.42916124454E+03  0.14025666640E+03 -0.34009519384E+03  0.56525750518E+03  0.00000000000E+00 0.  1.
          2    1    6    6  502    0 -0.18250581022E+03 -0.11398597446E+03 -0.66652990582E+02  0.22526383263E+03  0.00000000000E+00 0. -1.
          1    1    5    5  503    0 -0.28871779929E+03  0.12881011846E+03  0.44520007499E+03  0.54603399255E+03  0.00000000000E+00 0. -1.
         -2    1    5    5    0  503 -0.86504661573E+02  0.45015655569E+02  0.73793882172E+02  0.12229064873E+03  0.00000000000E+00 0.  1.
         -1    1    6    6    0  502 -0.29381375839E+03 -0.29135591452E+03 -0.65578881841E+02  0.41894556124E+03  0.00000000000E+00 0.  1.
<mgrwt>
<rscale>  0 0.23613828E+04</rscale>
<asrwt>0</asrwt>
<pdfrwt beam="1">  1        2 0.19654085E+00 0.23613828E+04</pdfrwt>
<pdfrwt beam="2">  1       -2 0.16787780E+00 0.23613828E+04</pdfrwt>
<totfact> 0.33929066E+00</totfact>
</mgrwt>
</event>
<event>
12    1  0.1442183E-007  0.1887671E+04  0.7818608E-02  0.8661018E-01
         -1   -1    0    0    0  501 -0.00000000000E+00  0.00000000000E+00  0.49615065555E+03  0.49615065555E+03  0.00000000000E+00 0.  1.
          1   -1    0    0  501    0  0.00000000000E+00 -0.00000000000E+00 -0.17954733834E+04  0.17954733834E+04  0.00000000000E+00 0. -1.
         23    2    1    2    0    0  0.31912572696E+03 -0.43256887411E+03 -0.10256863298E+04  0.11613287958E+04  0.87721516324E+02 0.  0.
        254    2    1    2    0    0 -0.31912572696E+03  0.43256887411E+03 -0.27363639806E+03  0.11302952431E+04  0.95589403064E+03 0.  0.
        -24    2    4    4    0    0 -0.32218359399E+03  0.36590509687E+03  0.27940137262E+03  0.56748741856E+03  0.79297131438E+02 0.  0.
         24    2    4    4    0    0  0.30578670323E+01  0.66663777247E+02 -0.55303777068E+03  0.56280782455E+03  0.80302315235E+02 0.  0.
         13    1    3    3    0    0  0.40319760298E+02 -0.76746428061E+02 -0.10924128112E+03  0.13946094361E+03  0.00000000000E+00 0. -1.
        -13    1    3    3    0    0  0.27880596666E+03 -0.35582244605E+03 -0.91644504864E+03  0.10218678522E+04  0.00000000000E+00 0.  1.
          4    1    6    6  502    0  0.24700624694E+02 -0.43717797983E+01 -0.76207226647E+02  0.80229512725E+02  0.00000000000E+00 0. -1.
          3    1    5    5  503    0 -0.18276869554E+02  0.31607372083E+01  0.12974635802E+01  0.18593483593E+02  0.00000000000E+00 0. -1.
         -4    1    5    5    0  503 -0.30390672443E+03  0.36274435966E+03  0.27810390904E+03  0.54889393497E+03  0.00000000000E+00 0.  1.
         -3    1    6    6    0  502 -0.21642757662E+02  0.71035557046E+02 -0.47683054403E+03  0.48257831183E+03  0.00000000000E+00 0.  1.
<mgrwt>
<rscale>  0 0.18876708E+04</rscale>
<asrwt>0</asrwt>
<pdfrwt beam="1">  1        1 0.27622667E+00 0.18876708E+04</pdfrwt>
<pdfrwt beam="2">  1       -1 0.76330873E-01 0.18876708E+04</pdfrwt>
<totfact> 0.66209668E+00</totfact>
</mgrwt>
</event>
<event>
12    1  0.1442183E-007  0.1601379E+04  0.7818608E-02  0.8819701E-01
         -2   -1    0    0    0  501 -0.00000000000E+00  0.00000000000E+00  0.64904833232E+03  0.64904833232E+03  0.00000000000E+00 0.  1.
          2   -1    0    0  501    0  0.00000000000E+00 -0.00000000000E+00 -0.98776006553E+03  0.98776006553E+03  0.00000000000E+00 0. -1.
         23    2    1    2    0    0 -0.12217394162E+03 -0.21119132369E+03 -0.64449448685E+03  0.69526713715E+03  0.92168330855E+02 0.  0.
        254    2    1    2    0    0  0.12217394162E+03  0.21119132369E+03  0.30578275363E+03  0.94154126070E+03  0.85642781714E+03 0.  0.
        -24    2    4    4    0    0 -0.22171834110E+03 -0.92344342509E+02  0.39391550392E+03  0.46827175775E+03  0.80140592111E+02 0.  0.
         24    2    4    4    0    0  0.34389228272E+03  0.30353566620E+03 -0.88132750295E+02  0.47326950295E+03  0.76294416427E+02 0.  0.
         11    1    3    3    0    0 -0.36327033611E+02 -0.13414911429E+03 -0.27400538365E+03  0.30723702332E+03  0.00000000000E+00 0.  1.
        -11    1    3    3    0    0 -0.85846908007E+02 -0.77042209402E+02 -0.37048910320E+03  0.38803011382E+03  0.00000000000E+00 0. -1.
          4    1    6    6  502    0  0.23508577986E+03  0.17522211125E+03 -0.83938486912E+02  0.30498160887E+03  0.00000000000E+00 0. -1.
          3    1    5    5  503    0 -0.18983865412E+03 -0.93773178102E+02  0.37640560574E+03  0.43187186012E+03  0.00000000000E+00 0. -1.
         -4    1    5    5    0  503 -0.31879686987E+02  0.14288355927E+01  0.17509898180E+02  0.36399897635E+02  0.00000000000E+00 0.  1.
         -3    1    6    6    0  502  0.10880650286E+03  0.12831355495E+03 -0.41942633829E+01  0.16828789408E+03  0.00000000000E+00 0.  1.
<mgrwt>
<rscale>  0 0.16013794E+04</rscale>
<asrwt>0</asrwt>
<pdfrwt beam="1">  1        2 0.15196309E+00 0.16013794E+04</pdfrwt>
<pdfrwt beam="2">  1       -2 0.99853590E-01 0.16013794E+04</pdfrwt>
<totfact> 0.20390311E+01</totfact>
</mgrwt>
</event>
<event>
12    1  0.1442183E-007  0.1294662E+04  0.7818608E-02  0.9033809E-01
          2   -1    0    0  501    0  0.00000000000E+00  0.00000000000E+00  0.22881718644E+03  0.22881718644E+03  0.00000000000E+00 0. -1.
         -2   -1    0    0    0  501 -0.00000000000E+00 -0.00000000000E+00 -0.18313186037E+04  0.18313186037E+04  0.00000000000E+00 0.  1.
         23    2    1    2    0    0 -0.12292697400E+03 -0.22781259162E+03 -0.10116371619E+03  0.29282768999E+03  0.92218982390E+02 0.  0.
        254    2    1    2    0    0  0.12292697400E+03  0.22781259162E+03 -0.15013377011E+04  0.17673081002E+04  0.89574182129E+03 0.  0.
        -24    2    4    4    0    0  0.29654268896E+03  0.35097677453E+03 -0.32359890871E+03  0.56780007503E+03  0.80984003686E+02 0.  0.
         24    2    4    4    0    0 -0.17361571495E+03 -0.12316418291E+03 -0.11777387924E+04  0.11995080251E+04  0.80243422760E+02 0.  0.
         11    1    3    3    0    0 -0.25609701176E+02 -0.83049379828E+02  0.76383325182E+01  0.87243340192E+02  0.00000000000E+00 0.  1.
        -11    1    3    3    0    0 -0.97317272825E+02 -0.14476321179E+03 -0.10880204871E+03  0.20558434979E+03  0.00000000000E+00 0. -1.
          4    1    6    6  502    0 -0.12686639283E+03 -0.98150736246E+02 -0.66660859216E+03  0.68563522648E+03  0.00000000000E+00 0. -1.
          1    1    5    5  503    0  0.55044082850E+02  0.11790178593E+03 -0.10573799951E+03  0.16766396966E+03  0.00000000000E+00 0. -1.
         -2    1    5    5    0  503  0.24149860611E+03  0.23307498860E+03 -0.21786090920E+03  0.40013610537E+03  0.00000000000E+00 0.  1.
         -3    1    6    6    0  502 -0.46749322126E+02 -0.25013446662E+02 -0.51113020022E+03  0.51387279866E+03  0.00000000000E+00 0.  1.
<mgrwt>
<rscale>  0 0.12946616E+04</rscale>
<asrwt>0</asrwt>
<pdfrwt beam="1">  1        2 0.35202645E-01 0.12946616E+04</pdfrwt>
<pdfrwt beam="2">  1       -2 0.28174131E+00 0.12946616E+04</pdfrwt>
<totfact> 0.60176728E+00</totfact>
</mgrwt>
</event>
<event>
12    1  0.1442183E-007  0.1684272E+04  0.7818608E-02  0.8770386E-01
         -1   -1    0    0    0  501 -0.00000000000E+00  0.00000000000E+00  0.47915093598E+03  0.47915093598E+03  0.00000000000E+00 0.  1.
          1   -1    0    0  501    0  0.00000000000E+00 -0.00000000000E+00 -0.14801037160E+04  0.14801037160E+04  0.00000000000E+00 0. -1.
         23    2    1    2    0    0  0.30331060561E+03 -0.19451991385E+03  0.19393879916E+03  0.41944334763E+03  0.92114839657E+02 0.  0.
        254    2    1    2    0    0 -0.30331060561E+03  0.19451991385E+03 -0.11948915792E+04  0.15398113044E+04  0.90189669401E+03 0.  0.
        -24    2    4    4    0    0 -0.50669542595E+03  0.28450924107E+03 -0.39968130360E+03  0.70980806995E+03  0.79978677050E+02 0.  0.
         24    2    4    4    0    0  0.20338482033E+03 -0.89989327221E+02 -0.79521027558E+03  0.83000323441E+03  0.84157724452E+02 0.  0.
         11    1    3    3    0    0  0.22959262296E+03 -0.16241998910E+03  0.10667825273E+03  0.30078775737E+03  0.00000000000E+00 0.  1.
        -11    1    3    3    0    0  0.73717982653E+02 -0.32099924752E+02  0.87260546437E+02  0.11865559026E+03  0.00000000000E+00 0. -1.
          2    1    6    6  502    0  0.16918400021E+03 -0.10285499339E+03 -0.61361169402E+03  0.64476483048E+03  0.00000000000E+00 0. -1.
          1    1    5    5  503    0 -0.30718237044E+03  0.20096079669E+03 -0.28674354382E+03  0.46579835813E+03  0.00000000000E+00 0. -1.
         -2    1    5    5    0  503 -0.19951305550E+03  0.83548444385E+02 -0.11293775978E+03  0.24400971181E+03  0.00000000000E+00 0.  1.
         -1    1    6    6    0  502  0.34200820120E+02  0.12865666173E+02 -0.18159858156E+03  0.18523840392E+03  0.00000000000E+00 0.  1.
<mgrwt>
<rscale>  0 0.16842720E+04</rscale>
<asrwt>0</asrwt>
<pdfrwt beam="1">  1        1 0.22770827E+00 0.16842720E+04</pdfrwt>
<pdfrwt beam="2">  1       -1 0.73715528E-01 0.16842720E+04</pdfrwt>
<totfact> 0.11927570E+01</totfact>
</mgrwt>
</event>
<event>
12    1  0.1442183E-007  0.1489948E+04  0.7818608E-02  0.8891165E-01
         -2   -1    0    0    0  501 -0.00000000000E+00  0.00000000000E+00  0.79181216139E+03  0.79181216139E+03  0.00000000000E+00 0. -1.
          2   -1    0    0  501    0  0.00000000000E+00 -0.00000000000E+00 -0.70090655846E+03  0.70090655846E+03  0.00000000000E+00 0.  1.
         23    2    1    2    0    0 -0.36207141137E+03  0.14777784598E+03 -0.22490718736E+03  0.46029837120E+03  0.91418537027E+02 0.  0.
        254    2    1    2    0    0  0.36207141137E+03 -0.14777784598E+03  0.31581279029E+03  0.10324203487E+04  0.90178714734E+03 0.  0.
        -24    2    4    4    0    0  0.63939575243E+03 -0.22555864507E+03  0.23311328184E+03  0.72215668798E+03  0.86399358968E+02 0.  0.
         24    2    4    4    0    0 -0.27732434106E+03  0.77780799086E+02  0.82699508449E+02  0.31026366068E+03  0.80409499365E+02 0.  0.
         13    1    3    3    0    0 -0.88823389123E+01  0.11316304415E+02 -0.32585479481E+02  0.35619772082E+02  0.00000000000E+00 0. -1.
        -13    1    3    3    0    0 -0.35318907246E+03  0.13646154157E+03 -0.19232170787E+03  0.42467859912E+03  0.00000000000E+00 0.  1.
          2    1    6    6  502    0 -0.12756683089E+03  0.54269468134E+02  0.22539424356E+01  0.13864902370E+03  0.00000000000E+00 0. -1.
          1    1    5    5  503    0  0.36212621827E+03 -0.16628067716E+03  0.15955749648E+03  0.42923566515E+03  0.00000000000E+00 0. -1.
         -2    1    5    5    0  503  0.27726953416E+03 -0.59277967902E+02  0.73555785359E+02  0.29292102283E+03  0.00000000000E+00 0.  1.
         -1    1    6    6    0  502 -0.14975751017E+03  0.23511330952E+02  0.80445566013E+02  0.17161463698E+03  0.00000000000E+00 0.  1.
<mgrwt>
<rscale>  0 0.14899481E+04</rscale>
<asrwt>0</asrwt>
<pdfrwt beam="1">  1        2 0.10783178E+00 0.14899481E+04</pdfrwt>
<pdfrwt beam="2">  1       -2 0.12181726E+00 0.14899481E+04</pdfrwt>
<totfact> 0.20226991E+01</totfact>
</mgrwt>
</event>
<event>
12    1  0.1442183E-007  0.2156129E+04  0.7818608E-02  0.8536913E-01
          2   -1    0    0  501    0  0.00000000000E+00  0.00000000000E+00  0.12290484400E+04  0.12290484400E+04  0.00000000000E+00 0. -1.
         -2   -1    0    0    0  501 -0.00000000000E+00 -0.00000000000E+00 -0.94562871418E+03  0.94562871418E+03  0.00000000000E+00 0.  1.
         23    2    1    2    0    0  0.74180178036E+03  0.43101249459E+03  0.33992796661E+03  0.92738314591E+03  0.91906610144E+02 0.  0.
        254    2    1    2    0    0 -0.74180178036E+03 -0.43101249459E+03 -0.56508240760E+02  0.12472940083E+04  0.90360805111E+03 0.  0.
        -24    2    4    4    0    0 -0.25589645037E+03 -0.65169522013E+03 -0.20186189796E+01  0.70481008847E+03  0.81015632667E+02 0.  0.
         24    2    4    4    0    0 -0.48590532999E+03  0.22068272554E+03 -0.54489621781E+02  0.54248391983E+03  0.80714492677E+02 0.  0.
         11    1    3    3    0    0  0.45010314345E+03  0.31257054696E+03  0.21888944299E+03  0.59008963287E+03  0.00000000000E+00 0. -1.
        -11    1    3    3    0    0  0.29169863691E+03  0.11844194762E+03  0.12103852362E+03  0.33729351304E+03  0.00000000000E+00 0.  1.
          2    1    6    6  502    0 -0.45193107947E+03  0.22525467596E+03 -0.56711785546E+02  0.50813147536E+03  0.00000000000E+00 0. -1.
          1    1    5    5  503    0 -0.21139750859E+03 -0.60149680543E+03  0.26012415345E+01  0.63756888259E+03  0.00000000000E+00 0. -1.
         -2    1    5    5    0  503 -0.44498941782E+02 -0.50198414695E+02 -0.46198605141E+01  0.67241205884E+02  0.00000000000E+00 0.  1.
         -1    1    6    6    0  502 -0.33974250526E+02 -0.45719504235E+01  0.22221637653E+01  0.34352444473E+02  0.00000000000E+00 0.  1.
<mgrwt>
<rscale>  0 0.21561294E+04</rscale>
<asrwt>0</asrwt>
<pdfrwt beam="1">  1        2 0.18908438E+00 0.21561294E+04</pdfrwt>
<pdfrwt beam="2">  1       -2 0.14548134E+00 0.21561294E+04</pdfrwt>
<totfact> 0.54239972E+00</totfact>
</mgrwt>
</event>
<event>
12    1  0.1442183E-007  0.1411353E+04  0.7818608E-02  0.8945641E-01
          2   -1    0    0  501    0  0.00000000000E+00  0.00000000000E+00  0.20958648060E+04  0.20958648060E+04  0.00000000000E+00 0. -1.
         -2   -1    0    0    0  501 -0.00000000000E+00 -0.00000000000E+00 -0.23760101854E+03  0.23760101854E+03  0.00000000000E+00 0.  1.
         23    2    1    2    0    0 -0.38060472168E+03 -0.14613637853E+03  0.53639969502E+03  0.68005058230E+03  0.92349154679E+02 0.  0.
        254    2    1    2    0    0  0.38060472168E+03  0.14613637853E+03  0.13218640925E+04  0.16534152423E+04  0.90567184407E+03 0.  0.
        -24    2    4    4    0    0  0.62249859140E+03  0.22020130600E+03  0.64433614910E+03  0.92578347426E+03  0.76895102057E+02 0.  0.
         24    2    4    4    0    0 -0.24189386972E+03 -0.74064927464E+02  0.67752794338E+03  0.72763176802E+03  0.80035105369E+02 0.  0.
         13    1    3    3    0    0 -0.34639765687E+03 -0.15809716390E+03  0.50212758698E+03  0.63017312187E+03  0.00000000000E+00 0. -1.
        -13    1    3    3    0    0 -0.34207064803E+02  0.11960785367E+02  0.34272108041E+02  0.49877460426E+02  0.00000000000E+00 0.  1.
          2    1    6    6  502    0 -0.60319428743E+02 -0.50897545440E+02  0.26065379952E+03  0.27234058974E+03  0.00000000000E+00 0. -1.
          1    1    5    5  503    0  0.30415292485E+01 -0.46507846161E+01  0.34943368145E+01  0.65643802059E+01  0.00000000000E+00 0. -1.
         -2    1    5    5    0  503  0.61945706215E+03  0.22485209061E+03  0.64084181229E+03  0.91921909405E+03  0.00000000000E+00 0.  1.
         -1    1    6    6    0  502 -0.18157444098E+03 -0.23167382024E+02  0.41687414386E+03  0.45529117829E+03  0.00000000000E+00 0.  1.
<mgrwt>
<rscale>  0 0.14113534E+04</rscale>
<asrwt>0</asrwt>
<pdfrwt beam="1">  1        2 0.32244073E+00 0.14113534E+04</pdfrwt>
<pdfrwt beam="2">  1       -2 0.36554004E-01 0.14113534E+04</pdfrwt>
<totfact> 0.40522669E+01</totfact>
</mgrwt>
</event>
<event>
12    1  0.1442183E-007  0.1674548E+04  0.7818608E-02  0.8776015E-01
         -1   -1    0    0    0  501 -0.00000000000E+00  0.00000000000E+00  0.89345775993E+03  0.89345775993E+03  0.00000000000E+00 0.  1.
          1   -1    0    0  501    0  0.00000000000E+00 -0.00000000000E+00 -0.78462345854E+03  0.78462345854E+03  0.00000000000E+00 0. -1.
         23    2    1    2    0    0  0.49278326345E+03 -0.30808791404E+03  0.12859624103E+03  0.60213033771E+03  0.90941975275E+02 0.  0.
        254    2    1    2    0    0 -0.49278326345E+03  0.30808791404E+03 -0.19761939645E+02  0.10759508808E+04  0.90527689468E+03 0.  0.
        -24    2    4    4    0    0 -0.15459146659E+03  0.68420845666E+02 -0.44099469789E+03  0.47923760553E+03  0.81316820667E+02 0.  0.
         24    2    4    4    0    0 -0.33819179686E+03  0.23966706838E+03  0.42123275825E+03  0.59671327524E+03  0.82557259491E+02 0.  0.
         13    1    3    3    0    0  0.42423573518E+03 -0.28804707038E+03  0.88933054939E+02  0.52043843249E+03  0.00000000000E+00 0.  1.
        -13    1    3    3    0    0  0.68547528270E+02 -0.20040843665E+02  0.39663186089E+02  0.81691905214E+02  0.00000000000E+00 0. -1.
          2    1    6    6  502    0 -0.23450443083E+03  0.14948477069E+03  0.33099823072E+03  0.43231684386E+03  0.00000000000E+00 0. -1.
          3    1    5    5  503    0 -0.11958855222E+03  0.41657300685E+02 -0.39805217457E+03  0.41771076859E+03  0.00000000000E+00 0. -1.
         -4    1    5    5    0  503 -0.35002914361E+02  0.26763544981E+02 -0.42942523326E+02  0.61526836936E+02  0.00000000000E+00 0.  1.
         -1    1    6    6    0  502 -0.10368736603E+03  0.90182297688E+02  0.90234527529E+02  0.16439643138E+03  0.00000000000E+00 0.  1.
<mgrwt>
<rscale>  0 0.16745482E+04</rscale>
<asrwt>0</asrwt>
<pdfrwt beam="1">  1        1 0.12071130E+00 0.16745482E+04</pdfrwt>
<pdfrwt beam="2">  1       -1 0.13745504E+00 0.16745482E+04</pdfrwt>
<totfact> 0.95653103E+00</totfact>
</mgrwt>
</event>
<event>
12    1  0.1442183E-007  0.1338202E+04  0.7818608E-02  0.8999807E-01
         -1   -1    0    0    0  501 -0.00000000000E+00  0.00000000000E+00  0.24642267884E+03  0.24642267884E+03  0.00000000000E+00 0.  1.
          1   -1    0    0  501    0  0.00000000000E+00 -0.00000000000E+00 -0.18167810754E+04  0.18167810754E+04  0.00000000000E+00 0. -1.
         23    2    1    2    0    0  0.17447712576E+03  0.22063881067E+03 -0.10127950706E+03  0.31256543814E+03  0.91191350392E+02 0.  0.
        254    2    1    2    0    0 -0.17447712576E+03 -0.22063881067E+03 -0.14690788895E+04  0.17506383161E+04  0.90962518543E+03 0.  0.
        -24    2    4    4    0    0 -0.72517297347E+02  0.34189064131E+03 -0.72852550402E+03  0.81203921619E+03  0.80686489449E+02 0.  0.
         24    2    4    4    0    0 -0.10195982842E+03 -0.56252945198E+03 -0.74055338545E+03  0.93859909987E+03  0.75589434637E+02 0.  0.
         11    1    3    3    0    0  0.92362945135E+02  0.12930735713E+03 -0.94016138032E+01  0.15918447344E+03  0.00000000000E+00 0.  1.
        -11    1    3    3    0    0  0.82114180627E+02  0.91331453533E+02 -0.91877893253E+02  0.15338096470E+03  0.00000000000E+00 0. -1.
          2    1    6    6  502    0 -0.87423414274E+02 -0.36120739320E+03 -0.52578939861E+03  0.64386964982E+03  0.00000000000E+00 0. -1.
          1    1    5    5  503    0 -0.50492792647E+02  0.32630637093E+03 -0.65093538609E+03  0.72989194178E+03  0.00000000000E+00 0. -1.
         -2    1    5    5    0  503 -0.22024504700E+02  0.15584270384E+02 -0.77590117934E+02  0.82147274402E+02  0.00000000000E+00 0.  1.
         -1    1    6    6    0  502 -0.14536414142E+02 -0.20132205878E+03 -0.21476398684E+03  0.29472945005E+03  0.00000000000E+00 0.  1.
<mgrwt>
<rscale>  0 0.13382019E+04</rscale>
<asrwt>0</asrwt>
<pdfrwt beam="1">  1        1 0.27950477E+00 0.13382019E+04</pdfrwt>
<pdfrwt beam="2">  1       -1 0.37911183E-01 0.13382019E+04</pdfrwt>
<totfact> 0.26127744E+01</totfact>
</mgrwt>
</event>
<event>
12    1  0.1442183E-007  0.1209480E+04  0.7818608E-02  0.9104599E-01
          2   -1    0    0  501    0  0.00000000000E+00  0.00000000000E+00  0.13742660098E+04  0.13742660098E+04  0.00000000000E+00 0. -1.
         -2   -1    0    0    0  501 -0.00000000000E+00 -0.00000000000E+00 -0.26611330415E+03  0.26611330415E+03  0.00000000000E+00 0.  1.
         23    2    1    2    0    0 -0.87813606524E+02 -0.11409153865E+03 -0.72846026028E+02  0.18474734795E+03  0.89982944969E+02 0.  0.
        254    2    1    2    0    0  0.87813606524E+02  0.11409153865E+03  0.11809987317E+04  0.14556319660E+04  0.83867652137E+03 0.  0.
        -24    2    4    4    0    0 -0.28379740317E+03  0.28964138118E+03  0.73602181093E+03  0.84475785361E+03  0.86340195335E+02 0.  0.
         24    2    4    4    0    0  0.37161100969E+03 -0.17554984253E+03  0.44497692074E+03  0.61087411237E+03  0.79058405255E+02 0.  0.
         11    1    3    3    0    0 -0.43838501847E+02 -0.41707786569E+01 -0.45335603423E+02  0.63202267178E+02  0.00000000000E+00 0. -1.
        -11    1    3    3    0    0 -0.43975104678E+02 -0.10992075999E+03 -0.27510422605E+02  0.12154508077E+03  0.00000000000E+00 0.  1.
          2    1    6    6  502    0  0.23415669110E+02 -0.93636225048E+00  0.64030025928E+01  0.24293389560E+02  0.00000000000E+00 0. -1.
          3    1    5    5  503    0 -0.65947273328E+02  0.12071759481E+03  0.27813385287E+03  0.31029054234E+03  0.00000000000E+00 0. -1.
         -4    1    5    5    0  503 -0.21785012984E+03  0.16892378637E+03  0.45788795806E+03  0.53446731126E+03  0.00000000000E+00 0.  1.
         -1    1    6    6    0  502  0.34819534058E+03 -0.17461348028E+03  0.43857391814E+03  0.58658072281E+03  0.00000000000E+00 0.  1.
<mgrwt>
<rscale>  0 0.12094800E+04</rscale>
<asrwt>0</asrwt>
<pdfrwt beam="1">  1        2 0.21142554E+00 0.12094800E+04</pdfrwt>
<pdfrwt beam="2">  1       -2 0.40940509E-01 0.12094800E+04</pdfrwt>
<totfact> 0.83372669E+01</totfact>
</mgrwt>
</event>
<event>
12    1  0.1442183E-007  0.2484124E+04  0.7818608E-02  0.8408663E-01
          1   -1    0    0  501    0  0.00000000000E+00  0.00000000000E+00  0.93194851762E+03  0.93194851762E+03  0.00000000000E+00 0. -1.
         -1   -1    0    0    0  501 -0.00000000000E+00 -0.00000000000E+00 -0.16553685683E+04  0.16553685683E+04  0.00000000000E+00 0.  1.
         23    2    1    2    0    0 -0.86590633820E+03  0.20050306284E+03  0.31605332088E+03  0.94759485157E+03  0.89727567354E+02 0.  0.
        254    2    1    2    0    0  0.86590633820E+03 -0.20050306284E+03 -0.10394733715E+04  0.16397222343E+04  0.90453792116E+03 0.  0.
        -24    2    4    4    0    0  0.96075526480E+03 -0.38897004271E+03 -0.81025358308E+03  0.13178242155E+04  0.76167059981E+02 0.  0.
         24    2    4    4    0    0 -0.94848926601E+02  0.18846697987E+03 -0.22921978845E+03  0.32189801883E+03  0.80996924208E+02 0.  0.
         13    1    3    3    0    0 -0.74102740417E+03  0.19623492358E+03  0.25030647099E+03  0.80640131968E+03  0.00000000000E+00 0. -1.
        -13    1    3    3    0    0 -0.12487893402E+03  0.42681392620E+01  0.65746849898E+02  0.14119353189E+03  0.00000000000E+00 0.  1.
          2    1    6    6  502    0 -0.81038567413E+02  0.13516625220E+03 -0.21209129502E+03  0.26423452190E+03  0.00000000000E+00 0. -1.
          3    1    5    5  503    0  0.38891549981E+03 -0.18647724859E+03 -0.30367972711E+03  0.52749446148E+03  0.00000000000E+00 0. -1.
         -4    1    5    5    0  503  0.57183976499E+03 -0.20249279412E+03 -0.50657385597E+03  0.79032975399E+03  0.00000000000E+00 0.  1.
         -1    1    6    6    0  502 -0.13810359188E+02  0.53300727669E+02 -0.17128493436E+02  0.57663496931E+02  0.00000000000E+00 0.  1.
<mgrwt>
<rscale>  0 0.24841242E+04</rscale>
<asrwt>0</asrwt>
<pdfrwt beam="1">  1        1 0.14337670E+00 0.24841242E+04</pdfrwt>
<pdfrwt beam="2">  1       -1 0.25467209E+00 0.24841242E+04</pdfrwt>
<totfact> 0.99084104E-01</totfact>
</mgrwt>
</event>
<event>
12    1  0.1442183E-007  0.1232437E+04  0.7818608E-02  0.9084929E-01
          2   -1    0    0  501    0  0.00000000000E+00  0.00000000000E+00  0.10004569363E+04  0.10004569363E+04  0.00000000000E+00 0. -1.
         -2   -1    0    0    0  501 -0.00000000000E+00 -0.00000000000E+00 -0.37955180433E+03  0.37955180433E+03  0.00000000000E+00 0.  1.
         23    2    1    2    0    0  0.85255776898E+01  0.31085056121E+02  0.45245014453E+03  0.46351779014E+03  0.95386803637E+02 0.  0.
        254    2    1    2    0    0 -0.85255776898E+01 -0.31085056121E+02  0.16845498745E+03  0.91649095048E+03  0.90029973527E+03 0.  0.
        -24    2    4    4    0    0 -0.37753476034E+03 -0.15804828141E+03 -0.10895097026E+03  0.43106013492E+03  0.80192091116E+02 0.  0.
         24    2    4    4    0    0  0.36900918265E+03  0.12696322529E+03  0.27740595771E+03  0.48543081556E+03  0.80009836052E+02 0.  0.
         13    1    3    3    0    0 -0.59291385178E+01  0.35846329721E+02  0.44516501485E+03  0.44664527814E+03  0.00000000000E+00 0. -1.
        -13    1    3    3    0    0  0.14454716208E+02 -0.47612735999E+01  0.72851296785E+01  0.16872512005E+02  0.00000000000E+00 0.  1.
          2    1    6    6  502    0  0.15046916906E+03  0.65673917151E+02  0.16262730475E+03  0.23108802324E+03  0.00000000000E+00 0. -1.
          1    1    5    5  503    0 -0.14368654557E+02 -0.89658031368E+01 -0.24040506782E+02  0.29407309058E+02  0.00000000000E+00 0. -1.
         -2    1    5    5    0  503 -0.36316610578E+03 -0.14908247827E+03 -0.84910463479E+02  0.40165282587E+03  0.00000000000E+00 0.  1.
         -1    1    6    6    0  502  0.21854001359E+03  0.61289308136E+02  0.11477865295E+03  0.25434279232E+03  0.00000000000E+00 0.  1.
<mgrwt>
<rscale>  0 0.12324370E+04</rscale>
<asrwt>0</asrwt>
<pdfrwt beam="1">  1        2 0.15391645E+00 0.12324370E+04</pdfrwt>
<pdfrwt beam="2">  1       -2 0.58392586E-01 0.12324370E+04</pdfrwt>
<totfact> 0.67985683E+01</totfact>
</mgrwt>
</event>
<event>
12    1  0.1442183E-007  0.2405217E+04  0.7818608E-02  0.8437553E-01
          2   -1    0    0  501    0  0.00000000000E+00  0.00000000000E+00  0.10310524013E+04  0.10310524013E+04  0.00000000000E+00 0. -1.
         -2   -1    0    0    0  501 -0.00000000000E+00 -0.00000000000E+00 -0.14027100800E+04  0.14027100800E+04  0.00000000000E+00 0.  1.
         23    2    1    2    0    0 -0.58441506375E+03  0.37949976006E+03  0.60666002462E+03  0.92931124566E+03  0.10010979582E+03 0.  0.
        254    2    1    2    0    0  0.58441506375E+03 -0.37949976006E+03 -0.97831770328E+03  0.15044512357E+04  0.90592878161E+03 0.  0.
        -24    2    4    4    0    0 -0.15776146234E+03 -0.12653258639E+03 -0.58420298619E+03  0.62320612615E+03  0.78699251443E+02 0.  0.
         24    2    4    4    0    0  0.74217652609E+03 -0.25296717367E+03 -0.39411471709E+03  0.88124510952E+03  0.80300348651E+02 0.  0.
         13    1    3    3    0    0 -0.50290798223E+03  0.36439978587E+03  0.53806319117E+03  0.82171506024E+03  0.00000000000E+00 0. -1.
        -13    1    3    3    0    0 -0.81507081517E+02  0.15099974193E+02  0.68596833451E+02  0.10759618542E+03  0.00000000000E+00 0.  1.
          2    1    6    6  502    0  0.12377755272E+03 -0.17565818497E+02 -0.43248832638E+02  0.13228719538E+03  0.00000000000E+00 0. -1.
          1    1    5    5  503    0 -0.89507445804E+02 -0.10253191530E+03 -0.45733310070E+03  0.47715609763E+03  0.00000000000E+00 0. -1.
         -2    1    5    5    0  503 -0.68254016538E+02 -0.24000671091E+02 -0.12686988549E+03  0.14605002852E+03  0.00000000000E+00 0.  1.
         -1    1    6    6    0  502  0.61839897337E+03 -0.23540135517E+03 -0.35086588445E+03  0.74895791414E+03  0.00000000000E+00 0.  1.
<mgrwt>
<rscale>  0 0.24052173E+04</rscale>
<asrwt>0</asrwt>
<pdfrwt beam="1">  1        2 0.15862345E+00 0.24052173E+04</pdfrwt>
<pdfrwt beam="2">  1       -2 0.21580155E+00 0.24052173E+04</pdfrwt>
<totfact> 0.22729055E+00</totfact>
</mgrwt>
</event>
<event>
12    1  0.1442183E-007  0.1479627E+04  0.7818608E-02  0.8898115E-01
         -1   -1    0    0    0  501 -0.00000000000E+00  0.00000000000E+00  0.45773392239E+03  0.45773392239E+03  0.00000000000E+00 0.  1.
          1   -1    0    0  501    0  0.00000000000E+00 -0.00000000000E+00 -0.11957246735E+04  0.11957246735E+04  0.00000000000E+00 0. -1.
         23    2    1    2    0    0 -0.76932581676E+02  0.20701176269E+03  0.20110542002E+03  0.31249647528E+03  0.91859485559E+02 0.  0.
        254    2    1    2    0    0  0.76932581676E+02 -0.20701176269E+03 -0.93909617118E+03  0.13409621206E+04  0.93139964477E+03 0.  0.
        -24    2    4    4    0    0 -0.17593188544E+03 -0.48336952996E+03 -0.31374354699E+03  0.60766004329E+03  0.78851659018E+02 0.  0.
         24    2    4    4    0    0  0.25286446711E+03  0.27635776727E+03 -0.62535262419E+03  0.73330207736E+03  0.79699296186E+02 0.  0.
         11    1    3    3    0    0 -0.40016802566E+02  0.14185026123E+02  0.29039460648E+02  0.51437823909E+02  0.00000000000E+00 0. -1.
        -11    1    3    3    0    0 -0.36915779110E+02  0.19282673657E+03  0.17206595937E+03  0.26105865137E+03  0.00000000000E+00 0.  1.
          4    1    6    6  502    0  0.11356465061E+03  0.17773351035E+03 -0.31455194181E+03  0.37872028552E+03  0.00000000000E+00 0. -1.
          3    1    5    5  503    0 -0.57738591801E+02 -0.89150836370E+02 -0.40594004584E+02  0.11370791449E+03  0.00000000000E+00 0. -1.
         -4    1    5    5    0  503 -0.11819329363E+03 -0.39421869359E+03 -0.27314954240E+03  0.49395212881E+03  0.00000000000E+00 0.  1.
         -3    1    6    6    0  502  0.13929981650E+03  0.98624256916E+02 -0.31080068239E+03  0.35458179184E+03  0.00000000000E+00 0.  1.
<mgrwt>
<rscale>  0 0.14796266E+04</rscale>
<asrwt>0</asrwt>
<pdfrwt beam="1">  1        1 0.18395764E+00 0.14796266E+04</pdfrwt>
<pdfrwt beam="2">  1       -1 0.70420604E-01 0.14796266E+04</pdfrwt>
<totfact> 0.21254243E+01</totfact>
</mgrwt>
</event>
<event>
12    1  0.1442183E-007  0.1479372E+04  0.7818608E-02  0.8898287E-01
          2   -1    0    0  501    0  0.00000000000E+00  0.00000000000E+00  0.16188697776E+04  0.16188697776E+04  0.00000000000E+00 0. -1.
         -2   -1    0    0    0  501 -0.00000000000E+00 -0.00000000000E+00 -0.33797365790E+03  0.33797365790E+03  0.00000000000E+00 0.  1.
         23    2    1    2    0    0  0.19049606156E+03  0.41981543530E+03  0.44069563779E+03  0.64429718815E+03  0.91501214737E+02 0.  0.
        254    2    1    2    0    0 -0.19049606156E+03 -0.41981543530E+03  0.84020048188E+03  0.13125462473E+04  0.89683167452E+03 0.  0.
        -24    2    4    4    0    0 -0.36675450793E+03  0.77552701824E+02  0.91467697353E+02  0.39307985259E+03  0.74980932312E+02 0.  0.
         24    2    4    4    0    0  0.17625844637E+03 -0.49736813713E+03  0.74873278453E+03  0.91946639473E+03  0.79847133112E+02 0.  0.
         11    1    3    3    0    0  0.97253381276E+02  0.28560767370E+03  0.32874093802E+03  0.44620686658E+03  0.00000000000E+00 0. -1.
        -11    1    3    3    0    0  0.93242680282E+02  0.13420776160E+03  0.11195469977E+03  0.19809032157E+03  0.00000000000E+00 0.  1.
          4    1    6    6  502    0  0.11686541253E+03 -0.33146774585E+03  0.56088129625E+03  0.66190348214E+03  0.00000000000E+00 0. -1.
          3    1    5    5  503    0 -0.20562095844E+03  0.43566334371E+02  0.12797713371E+02  0.21057489288E+03  0.00000000000E+00 0. -1.
         -4    1    5    5    0  503 -0.16113354948E+03  0.33986367453E+02  0.78669983982E+02  0.18250495972E+03  0.00000000000E+00 0.  1.
         -3    1    6    6    0  502  0.59393033835E+02 -0.16590039127E+03  0.18785148827E+03  0.25756291258E+03  0.00000000000E+00 0.  1.
<mgrwt>
<rscale>  0 0.14793719E+04</rscale>
<asrwt>0</asrwt>
<pdfrwt beam="1">  1        2 0.24905688E+00 0.14793719E+04</pdfrwt>
<pdfrwt beam="2">  1       -2 0.51995948E-01 0.14793719E+04</pdfrwt>
<totfact> 0.36775969E+01</totfact>
</mgrwt>
</event>
<event>
12    1  0.1442183E-007  0.1266942E+04  0.7818608E-02  0.9056199E-01
          1   -1    0    0  501    0  0.00000000000E+00  0.00000000000E+00  0.21624901167E+04  0.21624901167E+04  0.00000000000E+00 0. -1.
         -1   -1    0    0    0  501 -0.00000000000E+00 -0.00000000000E+00 -0.18556647241E+03  0.18556647241E+03  0.00000000000E+00 0.  1.
         23    2    1    2    0    0  0.14319534018E+03 -0.22833239534E+03  0.23065162214E+03  0.36600377467E+03  0.90099967042E+02 0.  0.
        254    2    1    2    0    0 -0.14319534018E+03  0.22833239534E+03  0.17462720221E+04  0.19820528144E+04  0.89801269238E+03 0.  0.
        -24    2    4    4    0    0 -0.40979001446E+03 -0.11979926617E+03  0.12042228139E+04  0.12802412351E+04  0.81149950743E+02 0.  0.
         24    2    4    4    0    0  0.26659467427E+03  0.34813166151E+03  0.54204920825E+03  0.70181157930E+03  0.80335388123E+02 0.  0.
         11    1    3    3    0    0  0.33344463468E+02 -0.10223811347E+03  0.46244248602E+02  0.11705988048E+03  0.00000000000E+00 0.  1.
        -11    1    3    3    0    0  0.10985087671E+03 -0.12609428187E+03  0.18440737354E+03  0.24894389419E+03  0.00000000000E+00 0. -1.
          4    1    6    6  502    0  0.58250877818E+02  0.30179536623E+02  0.76265715001E+02  0.10060034037E+03  0.00000000000E+00 0. -1.
          1    1    5    5  503    0 -0.12697794612E+03 -0.31392592186E+02  0.48607059979E+03  0.50336221712E+03  0.00000000000E+00 0. -1.
         -2    1    5    5    0  503 -0.28281206834E+03 -0.88406673982E+02  0.71815221407E+03  0.77687901798E+03  0.00000000000E+00 0.  1.
         -3    1    6    6    0  502  0.20834379646E+03  0.31795212489E+03  0.46578349325E+03  0.60121123894E+03  0.00000000000E+00 0.  1.
<mgrwt>
<rscale>  0 0.12669422E+04</rscale>
<asrwt>0</asrwt>
<pdfrwt beam="1">  1        1 0.33269077E+00 0.12669422E+04</pdfrwt>
<pdfrwt beam="2">  1       -1 0.28548690E-01 0.12669422E+04</pdfrwt>
<totfact> 0.25391759E+01</totfact>
</mgrwt>
</event>
<event>
12    1  0.1442183E-007  0.2158143E+04  0.7818608E-02  0.8536055E-01
          2   -1    0    0  501    0  0.00000000000E+00  0.00000000000E+00  0.14815598633E+04  0.14815598633E+04  0.00000000000E+00 0. -1.
         -2   -1    0    0    0  501 -0.00000000000E+00 -0.00000000000E+00 -0.78592522744E+03  0.78592522744E+03  0.00000000000E+00 0.  1.
         23    2    1    2    0    0  0.20269793653E+03  0.16579549506E+03  0.11755860153E+04  0.12075852015E+04  0.87663788738E+02 0.  0.
        254    2    1    2    0    0 -0.20269793653E+03 -0.16579549506E+03 -0.47995137946E+03  0.10598998892E+04  0.90799771412E+03 0.  0.
        -24    2    4    4    0    0 -0.12174427717E+03 -0.10812030750E+03 -0.74486701776E+03  0.76655051281E+03  0.79127394950E+02 0.  0.
         24    2    4    4    0    0 -0.80953659366E+02 -0.57675187556E+02  0.26491563830E+03  0.29334937640E+03  0.77418595911E+02 0.  0.
         11    1    3    3    0    0  0.19315317795E+03  0.15400264820E+03  0.95347432191E+03  0.98495596264E+03  0.00000000000E+00 0. -1.
        -11    1    3    3    0    0  0.95447585830E+01  0.11792846857E+02  0.22211169337E+03  0.22262923884E+03  0.00000000000E+00 0.  1.
          2    1    6    6  502    0 -0.35477109207E+02 -0.75735634766E+01  0.18551675007E+03  0.18903028514E+03  0.00000000000E+00 0. -1.
          1    1    5    5  503    0 -0.53121833978E+02 -0.90917121199E+02 -0.35385322977E+03  0.36918824520E+03  0.00000000000E+00 0. -1.
         -2    1    5    5    0  503 -0.68622443188E+02 -0.17203186303E+02 -0.39101378799E+03  0.39736226762E+03  0.00000000000E+00 0.  1.
         -3    1    6    6    0  502 -0.45476550159E+02 -0.50101624079E+02  0.79398888225E+02  0.10431909126E+03  0.00000000000E+00 0.  1.
<mgrwt>
<rscale>  0 0.21581430E+04</rscale>
<asrwt>0</asrwt>
<pdfrwt beam="1">  1        2 0.22793229E+00 0.21581430E+04</pdfrwt>
<pdfrwt beam="2">  1       -2 0.12091157E+00 0.21581430E+04</pdfrwt>
<totfact> 0.62153938E+00</totfact>
</mgrwt>
</event>
<event>
12    1  0.1442183E-007  0.2458898E+04  0.7818608E-02  0.8417776E-01
          1   -1    0    0  501    0  0.00000000000E+00  0.00000000000E+00  0.77451405309E+03  0.77451405309E+03  0.00000000000E+00 0. -1.
         -1   -1    0    0    0  501 -0.00000000000E+00 -0.00000000000E+00 -0.19516046507E+04  0.19516046507E+04  0.00000000000E+00 0.  1.
         23    2    1    2    0    0 -0.30984806131E+02 -0.91289380572E+03 -0.11162280851E+04  0.14451962767E+04  0.91060317174E+02 0.  0.
        254    2    1    2    0    0  0.30984806131E+02  0.91289380572E+03 -0.60862512529E+02  0.12809224272E+04  0.89594802317E+03 0.  0.
        -24    2    4    4    0    0  0.23120282765E+03  0.98211013172E+03  0.78805116598E+02  0.10149343838E+04  0.76723521699E+02 0.  0.
         24    2    4    4    0    0 -0.20021802152E+03 -0.69216326001E+02 -0.13966762913E+03  0.26598804330E+03  0.79777419298E+02 0.  0.
         13    1    3    3    0    0 -0.50162469574E+02 -0.50919698616E+03 -0.57443169634E+03  0.76926563542E+03  0.00000000000E+00 0. -1.
        -13    1    3    3    0    0  0.19177663444E+02 -0.40369681956E+03 -0.54179638876E+03  0.67593064124E+03  0.00000000000E+00 0.  1.
          2    1    6    6  502    0 -0.60836630671E+01 -0.89909169001E+01  0.90477929305E+01  0.14131882392E+02  0.00000000000E+00 0. -1.
          1    1    5    5  503    0  0.11361244502E+03  0.59499224816E+03  0.19753344921E+02  0.60606415310E+03  0.00000000000E+00 0. -1.
         -2    1    5    5    0  503  0.11759038263E+03  0.38711788356E+03  0.59051771677E+02  0.40887023075E+03  0.00000000000E+00 0.  1.
         -1    1    6    6    0  502 -0.19413435845E+03 -0.60225409101E+02 -0.14871542206E+03  0.25185616091E+03  0.00000000000E+00 0.  1.
<mgrwt>
<rscale>  0 0.24588983E+04</rscale>
<asrwt>0</asrwt>
<pdfrwt beam="1">  1        1 0.11915601E+00 0.24588983E+04</pdfrwt>
<pdfrwt beam="2">  1       -1 0.30024687E+00 0.24588983E+04</pdfrwt>
<totfact> 0.68311853E-01</totfact>
</mgrwt>
</event>
<event>
12    1  0.1442183E-007  0.2270048E+04  0.7818608E-02  0.8489825E-01
          2   -1    0    0  501    0  0.00000000000E+00  0.00000000000E+00  0.18690230951E+04  0.18690230951E+04  0.00000000000E+00 0. -1.
         -2   -1    0    0    0  501 -0.00000000000E+00 -0.00000000000E+00 -0.68927984422E+03  0.68927984422E+03  0.00000000000E+00 0.  1.
         23    2    1    2    0    0  0.39616919477E+03 -0.13068596974E+03 -0.46765458482E+03  0.63327015378E+03  0.91112147343E+02 0.  0.
        254    2    1    2    0    0 -0.39616919477E+03  0.13068596974E+03  0.16473978357E+04  0.19250327855E+04  0.90432446763E+03 0.  0.
        -24    2    4    4    0    0 -0.46445633883E+03  0.54228854348E+02  0.17138398290E+04  0.17782581369E+04  0.79338406034E+02 0.  0.
         24    2    4    4    0    0  0.68287144057E+02  0.76457115390E+02 -0.66441993337E+02  0.14677464860E+03  0.81359906936E+02 0.  0.
         11    1    3    3    0    0  0.41105027715E+02 -0.12580511970E+02 -0.14012026337E+02  0.45213155906E+02  0.00000000000E+00 0. -1.
        -11    1    3    3    0    0  0.35506416706E+03 -0.11810545777E+03 -0.45364255848E+03  0.58805699788E+03  0.00000000000E+00 0.  1.
          4    1    6    6  502    0  0.85329582909E+02  0.52380690567E+02 -0.59505677577E+02  0.11647231485E+03  0.00000000000E+00 0. -1.
          3    1    5    5  503    0 -0.25699418856E+03  0.28907078375E+02  0.79743710145E+03  0.83832425881E+03  0.00000000000E+00 0. -1.
         -4    1    5    5    0  503 -0.20746215027E+03  0.25321775973E+02  0.91640272756E+03  0.93993387810E+03  0.00000000000E+00 0.  1.
         -3    1    6    6    0  502 -0.17042438852E+02  0.24076424823E+02 -0.69363157604E+01  0.30302333749E+02  0.00000000000E+00 0.  1.
<mgrwt>
<rscale>  0 0.22700484E+04</rscale>
<asrwt>0</asrwt>
<pdfrwt beam="1">  1        2 0.28754201E+00 0.22700484E+04</pdfrwt>
<pdfrwt beam="2">  1       -2 0.10604305E+00 0.22700484E+04</pdfrwt>
<totfact> 0.51538388E+00</totfact>
</mgrwt>
</event>
<event>
12    1  0.1442183E-007  0.3469908E+04  0.7818608E-02  0.8120959E-01
          2   -1    0    0  501    0  0.00000000000E+00  0.00000000000E+00  0.29599365724E+04  0.29599365724E+04  0.00000000000E+00 0. -1.
         -2   -1    0    0    0  501 -0.00000000000E+00 -0.00000000000E+00 -0.10169356052E+04  0.10169356052E+04  0.00000000000E+00 0.  1.
         23    2    1    2    0    0  0.13197066148E+04 -0.67437303796E+03  0.16493489971E+04  0.22191912339E+04  0.89738926766E+02 0.  0.
        254    2    1    2    0    0 -0.13197066148E+04  0.67437303796E+03  0.29365197005E+03  0.17576809437E+04  0.89822395689E+03 0.  0.
        -24    2    4    4    0    0 -0.99329811434E+03  0.84923987061E+03  0.39114640639E+03  0.13665639009E+04  0.81559072740E+02 0.  0.
         24    2    4    4    0    0 -0.32640850048E+03 -0.17486683265E+03 -0.97494436348E+02  0.39111704274E+03  0.79664657471E+02 0.  0.
         13    1    3    3    0    0  0.31945463227E+03 -0.19254423827E+03  0.37239259945E+03  0.52706811125E+03  0.00000000000E+00 0.  1.
        -13    1    3    3    0    0  0.10002519826E+04 -0.48182879969E+03  0.12769563976E+04  0.16921231227E+04  0.00000000000E+00 0. -1.
          4    1    6    6  502    0 -0.46219607669E+02 -0.11353281774E+01 -0.28448736382E+02  0.54285096526E+02  0.00000000000E+00 0. -1.
          1    1    5    5  503    0 -0.16265608827E+03  0.10467858651E+03  0.70789612961E+02  0.20597518983E+03  0.00000000000E+00 0. -1.
         -4    1    5    5    0  503 -0.83064202608E+03  0.74456128410E+03  0.32035679343E+03  0.11605887111E+04  0.00000000000E+00 0.  1.
         -3    1    6    6    0  502 -0.28018889282E+03 -0.17373150447E+03 -0.69045699967E+02  0.33683194621E+03  0.00000000000E+00 0.  1.
<mgrwt>
<rscale>  0 0.34699077E+04</rscale>
<asrwt>0</asrwt>
<pdfrwt beam="1">  1        2 0.45537485E+00 0.34699077E+04</pdfrwt>
<pdfrwt beam="2">  1       -2 0.15645163E+00 0.34699077E+04</pdfrwt>
<totfact> 0.40647452E-01</totfact>
</mgrwt>
</event>
<event>
12    1  0.1442183E-007  0.1593470E+04  0.7818608E-02  0.8824570E-01
         -1   -1    0    0    0  501 -0.00000000000E+00  0.00000000000E+00  0.11280481479E+04  0.11280481479E+04  0.00000000000E+00 0.  1.
          1   -1    0    0  501    0  0.00000000000E+00 -0.00000000000E+00 -0.56272994536E+03  0.56272994536E+03  0.00000000000E+00 0. -1.
         23    2    1    2    0    0  0.46722008657E+03 -0.13531465058E+03 -0.58269467135E+02  0.49747105603E+03  0.86472289376E+02 0.  0.
        254    2    1    2    0    0 -0.46722008657E+03  0.13531465058E+03  0.62358766973E+03  0.11933070373E+04  0.89359691104E+03 0.  0.
        -24    2    4    4    0    0 -0.48215908370E+03  0.21169509731E+03 -0.26827940586E+02  0.53338833976E+03  0.80567899170E+02 0.  0.
         24    2    4    4    0    0  0.14938997131E+02 -0.76380446735E+02  0.65041561031E+03  0.65991869752E+03  0.79969212297E+02 0.  0.
         13    1    3    3    0    0  0.39684726559E+03 -0.14579139703E+03 -0.46042304438E+02  0.42527964617E+03  0.00000000000E+00 0. -1.
        -13    1    3    3    0    0  0.70372820983E+02  0.10476746449E+02 -0.12227162697E+02  0.72191409856E+02  0.00000000000E+00 0.  1.
          2    1    6    6  502    0  0.39439897446E+02 -0.77532262660E+02  0.51709899466E+03  0.52436449874E+03  0.00000000000E+00 0. -1.
          3    1    5    5  503    0 -0.46746920112E+03  0.21539411580E+03 -0.35508211035E+02  0.51592917360E+03  0.00000000000E+00 0. -1.
         -4    1    5    5    0  503 -0.14689882578E+02 -0.36990184933E+01  0.86802704484E+01  0.17459166161E+02  0.00000000000E+00 0.  1.
         -1    1    6    6    0  502 -0.24500900315E+02  0.11518159244E+01  0.13331661565E+03  0.13555419877E+03  0.00000000000E+00 0.  1.
<mgrwt>
<rscale>  0 0.15934698E+04</rscale>
<asrwt>0</asrwt>
<pdfrwt beam="1">  1        1 0.86573837E-01 0.15934698E+04</pdfrwt>
<pdfrwt beam="2">  1       -1 0.17354587E+00 0.15934698E+04</pdfrwt>
<totfact> 0.83550081E+00</totfact>
</mgrwt>
</event>
<event>
12    1  0.1442183E-007  0.1376102E+04  0.7818608E-02  0.8971301E-01
          2   -1    0    0  501    0  0.00000000000E+00  0.00000000000E+00  0.11874817933E+04  0.11874817933E+04  0.00000000000E+00 0.  1.
         -2   -1    0    0    0  501 -0.00000000000E+00 -0.00000000000E+00 -0.39867071494E+03  0.39867071494E+03  0.00000000000E+00 0. -1.
         23    2    1    2    0    0 -0.20728297385E+02  0.25182487260E+03  0.53408678784E+03  0.59782943519E+03  0.91136753624E+02 0.  0.
        254    2    1    2    0    0  0.20728297385E+02 -0.25182487260E+03  0.25472429053E+03  0.98832307305E+03  0.92089771624E+03 0.  0.
        -24    2    4    4    0    0  0.25456508939E+03 -0.21121875654E+03 -0.25200186365E+03  0.42321541491E+03  0.78674012753E+02 0.  0.
         24    2    4    4    0    0 -0.23383679201E+03 -0.40606116064E+02  0.50672615418E+03  0.56510765814E+03  0.79036497880E+02 0.  0.
         13    1    3    3    0    0 -0.13590222313E+02  0.17940017797E+03  0.27427957837E+03  0.32802195827E+03  0.00000000000E+00 0. -1.
        -13    1    3    3    0    0 -0.71380750717E+01  0.72424694634E+02  0.25980720947E+03  0.26980747692E+03  0.00000000000E+00 0.  1.
          2    1    6    6  502    0 -0.81217089543E+02 -0.21837505567E+02  0.27024441308E+03  0.28302850578E+03  0.00000000000E+00 0. -1.
          3    1    5    5  503    0  0.25172457779E+03 -0.19175496144E+03 -0.25030997338E+03  0.40347281330E+03  0.00000000000E+00 0. -1.
         -4    1    5    5    0  503  0.28405116055E+01 -0.19463795093E+02 -0.16918902748E+01  0.19742601609E+02  0.00000000000E+00 0.  1.
         -1    1    6    6    0  502 -0.15261970247E+03 -0.18768610496E+02  0.23648174110E+03  0.28207915235E+03  0.00000000000E+00 0.  1.
<mgrwt>
<rscale>  0 0.13761021E+04</rscale>
<asrwt>0</asrwt>
<pdfrwt beam="1">  1        2 0.18268951E+00 0.13761021E+04</pdfrwt>
<pdfrwt beam="2">  1       -2 0.61333957E-01 0.13761021E+04</pdfrwt>
<totfact> 0.46444042E+01</totfact>
</mgrwt>
</event>
<event>
12    1  0.1442183E-007  0.1920010E+04  0.7818608E-02  0.8644960E-01
          2   -1    0    0  501    0  0.00000000000E+00  0.00000000000E+00  0.66836250356E+03  0.66836250356E+03  0.00000000000E+00 0. -1.
         -2   -1    0    0    0  501 -0.00000000000E+00 -0.00000000000E+00 -0.13789069154E+04  0.13789069154E+04  0.00000000000E+00 0.  1.
         23    2    1    2    0    0 -0.28509400794E+03  0.69457526592E+03 -0.19417098361E+03  0.78088222670E+03  0.91440077090E+02 0.  0.
        254    2    1    2    0    0  0.28509400794E+03 -0.69457526592E+03 -0.51637342820E+03  0.12663871922E+04  0.87942117891E+03 0.  0.
        -24    2    4    4    0    0 -0.20349426693E+03 -0.40807629931E+03  0.45440205992E+02  0.46477461234E+03  0.77552854401E+02 0.  0.
         24    2    4    4    0    0  0.48858827486E+03 -0.28649896661E+03 -0.56181363419E+03  0.80161257989E+03  0.78409237183E+02 0.  0.
         13    1    3    3    0    0 -0.22155043036E+03  0.48742023777E+03 -0.10021658031E+03  0.54470766871E+03  0.00000000000E+00 0. -1.
        -13    1    3    3    0    0 -0.63543577578E+02  0.20715502815E+03 -0.93954403306E+02  0.23617455799E+03  0.00000000000E+00 0.  1.
          4    1    6    6  502    0  0.16894850839E+03 -0.88238994350E+02 -0.14025900635E+03  0.23664806670E+03  0.00000000000E+00 0. -1.
          3    1    5    5  503    0 -0.41813282328E+02 -0.16315683817E+03  0.47693418476E+01  0.16849703571E+03  0.00000000000E+00 0. -1.
         -4    1    5    5    0  503 -0.16168098460E+03 -0.24491946114E+03  0.40670864144E+02  0.29627757664E+03  0.00000000000E+00 0.  1.
         -3    1    6    6    0  502  0.31963976647E+03 -0.19825997226E+03 -0.42155462783E+03  0.56496451319E+03  0.00000000000E+00 0.  1.
<mgrwt>
<rscale>  0 0.19200101E+04</rscale>
<asrwt>0</asrwt>
<pdfrwt beam="1">  1        2 0.10282500E+00 0.19200101E+04</pdfrwt>
<pdfrwt beam="2">  1       -2 0.21213953E+00 0.19200101E+04</pdfrwt>
<totfact> 0.45021661E+00</totfact>
</mgrwt>
</event>
<event>
12    1  0.1442183E-007  0.2595224E+04  0.7818608E-02  0.8369825E-01
          2   -1    0    0  501    0  0.00000000000E+00  0.00000000000E+00  0.10627689844E+04  0.10627689844E+04  0.00000000000E+00 0. -1.
         -2   -1    0    0    0  501 -0.00000000000E+00 -0.00000000000E+00 -0.15843484095E+04  0.15843484095E+04  0.00000000000E+00 0.  1.
         23    2    1    2    0    0 -0.10978628581E+04 -0.16816849551E+03 -0.49187089187E+03  0.12181657184E+04  0.91691029997E+02 0.  0.
        254    2    1    2    0    0  0.10978628581E+04  0.16816849551E+03 -0.29708533181E+02  0.14289516756E+04  0.89857486948E+03 0.  0.
        -24    2    4    4    0    0  0.20326985547E+01 -0.23074066630E+03  0.73510799345E+02  0.25505529950E+03  0.80024878834E+02 0.  0.
         24    2    4    4    0    0  0.10958301596E+04  0.39890916181E+03 -0.10321933253E+03  0.11738963761E+04  0.86059358360E+02 0.  0.
         11    1    3    3    0    0 -0.92193075202E+03 -0.16952584456E+03 -0.39385515872E+03  0.10167680215E+04  0.00000000000E+00 0. -1.
        -11    1    3    3    0    0 -0.17593210610E+03  0.13573490484E+01 -0.98015733153E+02  0.20139769686E+03  0.00000000000E+00 0.  1.
          2    1    6    6  502    0  0.10749820365E+04  0.40241841801E+03 -0.10528505940E+03  0.11526542872E+04  0.00000000000E+00 0. -1.
          1    1    5    5  503    0 -0.27390278960E+02 -0.16338868601E+03  0.74266030022E+02  0.18155311430E+03  0.00000000000E+00 0. -1.
         -2    1    5    5    0  503  0.29422977515E+02 -0.67351980291E+02 -0.75523067701E+00  0.73502185194E+02  0.00000000000E+00 0.  1.
         -1    1    6    6    0  502  0.20848123054E+02 -0.35092561943E+01  0.20657268784E+01  0.21242088915E+02  0.00000000000E+00 0.  1.
<mgrwt>
<rscale>  0 0.25952236E+04</rscale>
<asrwt>0</asrwt>
<pdfrwt beam="1">  1        2 0.16350292E+00 0.25952236E+04</pdfrwt>
<pdfrwt beam="2">  1       -2 0.24374591E+00 0.25952236E+04</pdfrwt>
<totfact> 0.14279537E+00</totfact>
</mgrwt>
</event>
<event>
12    1  0.1442183E-007  0.1338596E+04  0.7818608E-02  0.8999506E-01
         -1   -1    0    0    0  501 -0.00000000000E+00  0.00000000000E+00  0.74051495626E+03  0.74051495626E+03  0.00000000000E+00 0.  1.
          1   -1    0    0  501    0  0.00000000000E+00 -0.00000000000E+00 -0.60492985001E+03  0.60492985001E+03  0.00000000000E+00 0. -1.
         23    2    1    2    0    0  0.14721736266E+03 -0.16156268898E+03  0.32189515284E+03  0.39954969387E+03  0.90818578006E+02 0.  0.
        254    2    1    2    0    0 -0.14721736266E+03  0.16156268898E+03 -0.18631004659E+03  0.94589511239E+03  0.90123841232E+03 0.  0.
        -24    2    4    4    0    0  0.15651196588E+03 -0.28336963942E+03 -0.22034003753E+03  0.40045170791E+03  0.83770461504E+02 0.  0.
         24    2    4    4    0    0 -0.30372932853E+03  0.44493232841E+03  0.34029990931E+02  0.54544340449E+03  0.78321040222E+02 0.  0.
         11    1    3    3    0    0  0.58875436016E+02 -0.33044299897E+02  0.43096611244E+02  0.80097194847E+02  0.00000000000E+00 0. -1.
        -11    1    3    3    0    0  0.88341926642E+02 -0.12851838909E+03  0.27879854160E+03  0.31945249903E+03  0.00000000000E+00 0.  1.
          2    1    6    6  502    0 -0.30401400038E+03  0.41615796990E+03  0.35767595452E+02  0.51661522357E+03  0.00000000000E+00 0. -1.
          1    1    5    5  503    0  0.12172660638E+03 -0.18017857322E+03 -0.10378628826E+03  0.24094247981E+03  0.00000000000E+00 0. -1.
         -2    1    5    5    0  503  0.34785359500E+02 -0.10319106620E+03 -0.11655374927E+03  0.15950922810E+03  0.00000000000E+00 0.  1.
         -3    1    6    6    0  502  0.28467184797E+00  0.28774358501E+02 -0.17376045217E+01  0.28828180912E+02  0.00000000000E+00 0.  1.
<mgrwt>
<rscale>  0 0.13385957E+04</rscale>
<asrwt>0</asrwt>
<pdfrwt beam="1">  1        1 0.93066131E-01 0.13385957E+04</pdfrwt>
<pdfrwt beam="2">  1       -1 0.11392538E+00 0.13385957E+04</pdfrwt>
<totfact> 0.23287283E+01</totfact>
</mgrwt>
</event>
<event>
12    1  0.1442183E-007  0.1329138E+04  0.7818608E-02  0.9006772E-01
          2   -1    0    0  501    0  0.00000000000E+00  0.00000000000E+00  0.51486947066E+03  0.51486947066E+03  0.00000000000E+00 0. -1.
         -2   -1    0    0    0  501 -0.00000000000E+00 -0.00000000000E+00 -0.85779450745E+03  0.85779450745E+03  0.00000000000E+00 0.  1.
         23    2    1    2    0    0  0.58646441651E+01  0.32151487894E+03 -0.25380858888E+03  0.41916312231E+03  0.88728303735E+02 0.  0.
        254    2    1    2    0    0 -0.58646441651E+01 -0.32151487894E+03 -0.89116447912E+02  0.95350085580E+03  0.89320542390E+03 0.  0.
        -24    2    4    4    0    0  0.81472314551E+02  0.28213734798E+03 -0.14216631702E+03  0.33601262179E+03  0.80336785743E+02 0.  0.
         24    2    4    4    0    0 -0.87336958716E+02 -0.60365222692E+03  0.53049869108E+02  0.61748823401E+03  0.80334768986E+02 0.  0.
         11    1    3    3    0    0 -0.27042849003E+02  0.20485971064E+03 -0.19626617241E+03  0.28498987203E+03  0.00000000000E+00 0.  1.
        -11    1    3    3    0    0  0.32907493168E+02  0.11665516830E+03 -0.57542416466E+02  0.13417325028E+03  0.00000000000E+00 0. -1.
          4    1    6    6  502    0 -0.35871678130E+02 -0.14612417373E+03 -0.18327172654E+02  0.15157485510E+03  0.00000000000E+00 0. -1.
          1    1    5    5  503    0 -0.14606151492E+02  0.38291443993E+02 -0.30684138658E+02  0.51196588848E+02  0.00000000000E+00 0. -1.
         -2    1    5    5    0  503  0.96078466043E+02  0.24384590399E+03 -0.11148217836E+03  0.28481603294E+03  0.00000000000E+00 0.  1.
         -3    1    6    6    0  502 -0.51465280586E+02 -0.45752805319E+03  0.71377041763E+02  0.46591337891E+03  0.00000000000E+00 0.  1.
<mgrwt>
<rscale>  0 0.13291384E+04</rscale>
<asrwt>0</asrwt>
<pdfrwt beam="1">  1        2 0.79210688E-01 0.13291384E+04</pdfrwt>
<pdfrwt beam="2">  1       -2 0.13196839E+00 0.13291384E+04</pdfrwt>
<totfact> 0.24320872E+01</totfact>
</mgrwt>
</event>
<event>
12    1  0.1442183E-007  0.1437992E+04  0.7818608E-02  0.8926768E-01
          1   -1    0    0  501    0  0.00000000000E+00  0.00000000000E+00  0.16134097785E+04  0.16134097785E+04  0.00000000000E+00 0. -1.
         -1   -1    0    0    0  501 -0.00000000000E+00 -0.00000000000E+00 -0.32041152811E+03  0.32041152811E+03  0.00000000000E+00 0.  1.
         23    2    1    2    0    0 -0.13189595570E+03  0.17043610437E+03  0.90053286694E+03  0.93058928157E+03  0.92692813749E+02 0.  0.
        254    2    1    2    0    0  0.13189595570E+03 -0.17043610437E+03  0.39246538343E+03  0.10032320250E+04  0.89777525587E+03 0.  0.
        -24    2    4    4    0    0  0.37280075856E+03  0.18471256459E+03  0.11797147350E+02  0.42362778922E+03  0.78880884968E+02 0.  0.
         24    2    4    4    0    0 -0.24090480286E+03 -0.35514866896E+03  0.38066823608E+03  0.57960423581E+03  0.82867744657E+02 0.  0.
         13    1    3    3    0    0 -0.23614747988E+02  0.10502116447E+03  0.44282902788E+03  0.45572431276E+03  0.00000000000E+00 0.  1.
        -13    1    3    3    0    0 -0.10828120771E+03  0.65414939899E+02  0.45770383906E+03  0.47486496881E+03  0.00000000000E+00 0. -1.
          2    1    6    6  502    0 -0.12691336913E+03 -0.25706450221E+03  0.24836352569E+03  0.37930673927E+03  0.00000000000E+00 0. -1.
          3    1    5    5  503    0  0.37553980014E+03  0.17706070063E+03  0.10019592607E+02  0.41530834983E+03  0.00000000000E+00 0. -1.
         -4    1    5    5    0  503 -0.27390415864E+01  0.76518639651E+01  0.17775547431E+01  0.83194393932E+01  0.00000000000E+00 0.  1.
         -1    1    6    6    0  502 -0.11399143373E+03 -0.98084166753E+02  0.13230471039E+03  0.20029749654E+03  0.00000000000E+00 0.  1.
<mgrwt>
<rscale>  0 0.14379918E+04</rscale>
<asrwt>0</asrwt>
<pdfrwt beam="1">  1        1 0.24821689E+00 0.14379918E+04</pdfrwt>
<pdfrwt beam="2">  1       -1 0.49294082E-01 0.14379918E+04</pdfrwt>
<totfact> 0.21902563E+01</totfact>
</mgrwt>
</event>
<event>
12    1  0.1442183E-007  0.1800381E+04  0.7818608E-02  0.8706097E-01
          2   -1    0    0  501    0  0.00000000000E+00  0.00000000000E+00  0.18231931658E+04  0.18231931658E+04  0.00000000000E+00 0. -1.
         -2   -1    0    0    0  501 -0.00000000000E+00 -0.00000000000E+00 -0.44446364440E+03  0.44446364440E+03  0.00000000000E+00 0.  1.
         23    2    1    2    0    0  0.56027247608E+03  0.19191953617E+03  0.86267700544E+02  0.60538328692E+03  0.91150710926E+02 0.  0.
        254    2    1    2    0    0 -0.56027247608E+03 -0.19191953617E+03  0.12924618209E+04  0.16622735233E+04  0.86136946314E+03 0.  0.
        -24    2    4    4    0    0  0.15966970983E+03 -0.22606819076E+03  0.19749829383E+03  0.34921243670E+03  0.79639856635E+02 0.  0.
         24    2    4    4    0    0 -0.71994218592E+03  0.34148654595E+02  0.10949635271E+04  0.13130610866E+04  0.75507681182E+02 0.  0.
         11    1    3    3    0    0  0.11675879085E+03  0.80719403893E+02  0.22492189492E+02  0.14371546888E+03  0.00000000000E+00 0. -1.
        -11    1    3    3    0    0  0.44351368523E+03  0.11120013228E+03  0.63775511052E+02  0.46166781804E+03  0.00000000000E+00 0.  1.
          2    1    6    6  502    0 -0.71122014298E+03  0.36704969766E+02  0.10606196337E+04  0.12775348739E+04  0.00000000000E+00 0. -1.
          1    1    5    5  503    0  0.10462984825E+03 -0.84724827529E+02  0.11177070211E+03  0.17498111725E+03  0.00000000000E+00 0. -1.
         -2    1    5    5    0  503  0.55039861584E+02 -0.14134336324E+03  0.85727591725E+02  0.17423131945E+03  0.00000000000E+00 0.  1.
         -1    1    6    6    0  502 -0.87220429374E+01 -0.25563151714E+01  0.34343893364E+02  0.35526212740E+02  0.00000000000E+00 0.  1.
<mgrwt>
<rscale>  0 0.18003812E+04</rscale>
<asrwt>0</asrwt>
<pdfrwt beam="1">  1        2 0.28049125E+00 0.18003812E+04</pdfrwt>
<pdfrwt beam="2">  1       -2 0.68379023E-01 0.18003812E+04</pdfrwt>
<totfact> 0.15469424E+01</totfact>
</mgrwt>
</event>
<event>
12    1  0.1615370E-007  0.2515123E+04  0.7818608E-02  0.8397618E-01
          2   -1    0    0  501    0  0.00000000000E+00  0.00000000000E+00  0.20381513609E+04  0.20381513609E+04  0.00000000000E+00 0. -1.
         -2   -1    0    0    0  501 -0.00000000000E+00 -0.00000000000E+00 -0.77592890709E+03  0.77592890709E+03  0.00000000000E+00 0.  1.
         23    2    1    2    0    0 -0.13120590026E+02 -0.91995351127E+03  0.12203178275E+04  0.15310200761E+04  0.91434460778E+02 0.  0.
        254    2    1    2    0    0  0.13120590026E+02  0.91995351127E+03  0.41904626315E+02  0.12830601919E+04  0.89330893059E+03 0.  0.
        -24    2    4    4    0    0  0.33224521740E+03  0.61038564056E+03 -0.25368906268E+03  0.74414364763E+03  0.80212923543E+02 0.  0.
         24    2    4    4    0    0 -0.31912462738E+03  0.30956787072E+03  0.29559368900E+03  0.53891654423E+03  0.73366329448E+02 0.  0.
         13    1    3    3    0    0 -0.16543525353E+02 -0.91715204932E+03  0.12202686697E+04  0.15265966055E+04  0.00000000000E+00 0. -1.
        -13    1    3    3    0    0  0.34229353274E+01 -0.28014619545E+01  0.49157766582E-01  0.44234705633E+01  0.00000000000E+00 0.  1.
          4    1    6    6  502    0 -0.32076648919E+03  0.29490401224E+03  0.28816106940E+03  0.52239479222E+03  0.00000000000E+00 0. -1.
          1    1    5    5  503    0  0.24731820949E+03  0.45542930532E+03 -0.15113691043E+03  0.53983748905E+03  0.00000000000E+00 0. -1.
         -2    1    5    5    0  503  0.84927007913E+02  0.15495633523E+03 -0.10255215226E+03  0.20430615858E+03  0.00000000000E+00 0.  1.
         -1    1    6    6    0  502  0.16418618080E+01  0.14663858476E+02  0.74326195969E+01  0.16521752016E+02  0.00000000000E+00 0.  1.
<mgrwt>
<rscale>  0 0.25151227E+04</rscale>
<asrwt>0</asrwt>
<pdfrwt beam="1">  1        2 0.31356175E+00 0.25151227E+04</pdfrwt>
<pdfrwt beam="2">  1       -2 0.11937368E+00 0.25151227E+04</pdfrwt>
<totfact> 0.30486654E+00</totfact>
</mgrwt>
</event>
<event>
12    1  0.1442183E-007  0.1220900E+04  0.7818608E-02  0.9094757E-01
         -1   -1    0    0    0  501 -0.00000000000E+00  0.00000000000E+00  0.46237675691E+03  0.46237675691E+03  0.00000000000E+00 0.  1.
          1   -1    0    0  501    0  0.00000000000E+00 -0.00000000000E+00 -0.80594271350E+03  0.80594271350E+03  0.00000000000E+00 0. -1.
         23    2    1    2    0    0  0.75926355840E+02 -0.14649043507E+02 -0.33877128959E+03  0.35994375877E+03  0.93883528055E+02 0.  0.
        254    2    1    2    0    0 -0.75926355840E+02  0.14649043507E+02 -0.47946670037E+01  0.90837571164E+03  0.90506576484E+03 0.  0.
        -24    2    4    4    0    0 -0.80697931684E+02 -0.12459461424E+03  0.42047766027E+03  0.45351946536E+03  0.82719215416E+02 0.  0.
         24    2    4    4    0    0  0.47715758445E+01  0.13924365774E+03 -0.42527232727E+03  0.45485624628E+03  0.81400787956E+02 0.  0.
         11    1    3    3    0    0  0.94696876796E+02 -0.24519573565E+02 -0.24504273781E+03  0.26384588554E+03  0.00000000000E+00 0. -1.
        -11    1    3    3    0    0 -0.18770520956E+02  0.98705300586E+01 -0.93728551779E+02  0.96097873229E+02  0.00000000000E+00 0.  1.
          4    1    6    6  502    0  0.39654788923E+02  0.10490984137E+03 -0.28386990625E+03  0.30522237922E+03  0.00000000000E+00 0. -1.
          1    1    5    5  503    0  0.16562557374E+02 -0.29292660919E+02  0.90189526245E+02  0.96262811796E+02  0.00000000000E+00 0. -1.
         -2    1    5    5    0  503 -0.97260489059E+02 -0.95301953319E+02  0.33028813403E+03  0.35725665356E+03  0.00000000000E+00 0.  1.
         -3    1    6    6    0  502 -0.34883213078E+02  0.34333816371E+02 -0.14140242102E+03  0.14963386706E+03  0.00000000000E+00 0.  1.
<mgrwt>
<rscale>  0 0.12209000E+04</rscale>
<asrwt>0</asrwt>
<pdfrwt beam="1">  1        1 0.12399119E+00 0.12209000E+04</pdfrwt>
<pdfrwt beam="2">  1       -1 0.71134886E-01 0.12209000E+04</pdfrwt>
<totfact> 0.43107201E+01</totfact>
</mgrwt>
</event>
<event>
12    1  0.1442183E-007  0.1864750E+04  0.7818608E-02  0.8672604E-01
          1   -1    0    0  501    0  0.00000000000E+00  0.00000000000E+00  0.22883687602E+04  0.22883687602E+04  0.00000000000E+00 0. -1.
         -1   -1    0    0    0  501 -0.00000000000E+00 -0.00000000000E+00 -0.37988783437E+03  0.37988783437E+03  0.00000000000E+00 0.  1.
         23    2    1    2    0    0 -0.43989703297E+03 -0.52201321694E+03  0.43884736071E+03  0.81597982698E+03  0.85022783786E+02 0.  0.
        254    2    1    2    0    0  0.43989703297E+03  0.52201321694E+03  0.14696335651E+04  0.18522767676E+04  0.89727320796E+03 0.  0.
        -24    2    4    4    0    0 -0.22653059072E+03  0.36410146570E+03  0.61697509190E+03  0.75551490083E+03  0.79110779869E+02 0.  0.
         24    2    4    4    0    0  0.66642762369E+03  0.15791175124E+03  0.85265847322E+03  0.10967618667E+04  0.82451328715E+02 0.  0.
         11    1    3    3    0    0 -0.36330899141E+03 -0.41397954341E+03  0.38975625811E+03  0.67474619401E+03  0.00000000000E+00 0. -1.
        -11    1    3    3    0    0 -0.76588041557E+02 -0.10803367353E+03  0.49091102599E+02  0.14123363297E+03  0.00000000000E+00 0.  1.
          2    1    6    6  502    0  0.15096976501E+03  0.54656492216E+02  0.24909859686E+03  0.29636010704E+03  0.00000000000E+00 0. -1.
          1    1    5    5  503    0 -0.91076130846E+02  0.15084847070E+03  0.32266393108E+03  0.36764403320E+03  0.00000000000E+00 0. -1.
         -2    1    5    5    0  503 -0.13545445988E+03  0.21325299500E+03  0.29431116082E+03  0.38787086763E+03  0.00000000000E+00 0.  1.
         -1    1    6    6    0  502  0.51545785869E+03  0.10325525903E+03  0.60355987636E+03  0.80040175971E+03  0.00000000000E+00 0.  1.
<mgrwt>
<rscale>  0 0.18647503E+04</rscale>
<asrwt>0</asrwt>
<pdfrwt beam="1">  1        1 0.35205672E+00 0.18647503E+04</pdfrwt>
<pdfrwt beam="2">  1       -1 0.58444284E-01 0.18647503E+04</pdfrwt>
<totfact> 0.52795177E+00</totfact>
</mgrwt>
</event>
<event>
12    1  0.1442183E-007  0.1504601E+04  0.7818608E-02  0.8881399E-01
         -1   -1    0    0    0  501 -0.00000000000E+00  0.00000000000E+00  0.56265391812E+03  0.56265391812E+03  0.00000000000E+00 0.  1.
          1   -1    0    0  501    0  0.00000000000E+00 -0.00000000000E+00 -0.10058691408E+04  0.10058691408E+04  0.00000000000E+00 0. -1.
         23    2    1    2    0    0  0.34625023843E+03 -0.25798719135E+03 -0.35033393467E+03  0.56354853812E+03  0.91686806690E+02 0.  0.
        254    2    1    2    0    0 -0.34625023843E+03  0.25798719135E+03 -0.92881287990E+02  0.10049745208E+04  0.90271824798E+03 0.  0.
        -24    2    4    4    0    0  0.20902349635E+03  0.36554426964E+03 -0.59383135467E+02  0.43265983557E+03  0.79716632193E+02 0.  0.
         24    2    4    4    0    0 -0.55527373477E+03 -0.10755707828E+03 -0.33498152524E+02  0.57231468521E+03  0.80774544668E+02 0.  0.
         13    1    3    3    0    0  0.12964608504E+03 -0.11986143434E+03 -0.19624564487E+03  0.26398337815E+03  0.00000000000E+00 0.  1.
        -13    1    3    3    0    0  0.21660415339E+03 -0.13812575701E+03 -0.15408828980E+03  0.29956515997E+03  0.00000000000E+00 0. -1.
          2    1    6    6  502    0 -0.34172130694E+02 -0.26864870180E+02 -0.92753726130E+01  0.44446465585E+02  0.00000000000E+00 0. -1.
          3    1    5    5  503    0  0.13699825560E+03  0.30538854593E+03 -0.47786454615E+02  0.33810387645E+03  0.00000000000E+00 0. -1.
         -4    1    5    5    0  503  0.72025240741E+02  0.60155723702E+02 -0.11596680852E+02  0.94555959118E+02  0.00000000000E+00 0.  1.
         -1    1    6    6    0  502 -0.52110160408E+03 -0.80692208104E+02 -0.24222779910E+02  0.52786821962E+03  0.00000000000E+00 0.  1.
<mgrwt>
<rscale>  0 0.15046012E+04</rscale>
<asrwt>0</asrwt>
<pdfrwt beam="1">  1        1 0.15474910E+00 0.15046012E+04</pdfrwt>
<pdfrwt beam="2">  1       -1 0.86562143E-01 0.15046012E+04</pdfrwt>
<totfact> 0.19055207E+01</totfact>
</mgrwt>
</event>
<event>
12    1  0.1442183E-007  0.2807129E+04  0.7818608E-02  0.8301059E-01
          1   -1    0    0  501    0  0.00000000000E+00  0.00000000000E+00  0.11724178222E+04  0.11724178222E+04  0.00000000000E+00 0. -1.
         -1   -1    0    0    0  501 -0.00000000000E+00 -0.00000000000E+00 -0.16802822417E+04  0.16802822417E+04  0.00000000000E+00 0.  1.
         23    2    1    2    0    0  0.46322242902E+03 -0.49253755791E+02  0.96022028450E+03  0.10698096865E+04  0.73951465598E+02 0.  0.
        254    2    1    2    0    0 -0.46322242902E+03  0.49253755791E+02 -0.14680847040E+04  0.17828903774E+04  0.89801138545E+03 0.  0.
        -24    2    4    4    0    0 -0.75295203276E+02 -0.37232920669E+03 -0.86029058618E+03  0.94364815993E+03  0.77932992172E+02 0.  0.
         24    2    4    4    0    0 -0.38792722574E+03  0.42158296248E+03 -0.60779411781E+03  0.83924221744E+03  0.81817376897E+02 0.  0.
         13    1    3    3    0    0  0.12231549721E+03  0.13915956599E+02  0.29509415453E+03  0.31974254447E+03  0.00000000000E+00 0.  1.
        -13    1    3    3    0    0  0.34090693181E+03 -0.63169712391E+02  0.66512612996E+03  0.75006714198E+03  0.00000000000E+00 0. -1.
          4    1    6    6  502    0 -0.20237816213E+03  0.24501147297E+03 -0.28240087847E+03  0.42513268347E+03  0.00000000000E+00 0. -1.
          1    1    5    5  503    0 -0.64053144567E+02 -0.25538597090E+03 -0.67166464893E+03  0.72142788973E+03  0.00000000000E+00 0. -1.
         -2    1    5    5    0  503 -0.11242058709E+02 -0.11694323579E+03 -0.18862593725E+03  0.22222027019E+03  0.00000000000E+00 0.  1.
         -3    1    6    6    0  502 -0.18554906361E+03  0.17657148951E+03 -0.32539323935E+03  0.41410953397E+03  0.00000000000E+00 0.  1.
<mgrwt>
<rscale>  0 0.28071287E+04</rscale>
<asrwt>0</asrwt>
<pdfrwt beam="1">  1        1 0.18037197E+00 0.28071287E+04</pdfrwt>
<pdfrwt beam="2">  1       -1 0.25850496E+00 0.28071287E+04</pdfrwt>
<totfact> 0.59436893E-01</totfact>
</mgrwt>
</event>
<event>
12    1  0.1442183E-007  0.1809073E+04  0.7818608E-02  0.8701489E-01
          2   -1    0    0  501    0  0.00000000000E+00  0.00000000000E+00  0.74201507909E+03  0.74201507909E+03  0.00000000000E+00 0. -1.
         -2   -1    0    0    0  501 -0.00000000000E+00 -0.00000000000E+00 -0.11026543409E+04  0.11026543409E+04  0.00000000000E+00 0.  1.
         23    2    1    2    0    0  0.58629101301E+03  0.30391679284E+03 -0.24558553689E+03  0.71061728883E+03  0.92531650459E+02 0.  0.
        254    2    1    2    0    0 -0.58629101301E+03 -0.30391679284E+03 -0.11505372491E+03  0.11340521312E+04  0.91473182280E+03 0.  0.
        -24    2    4    4    0    0 -0.76066982009E+03 -0.10348096753E+03 -0.26780735697E+03  0.81702969619E+03  0.80559655999E+02 0.  0.
         24    2    4    4    0    0  0.17437880708E+03 -0.20043582531E+03  0.15275363206E+03  0.31702243496E+03  0.81160727785E+02 0.  0.
         11    1    3    3    0    0  0.52093111649E+03  0.25476500224E+03 -0.24314010686E+03  0.62880167466E+03  0.00000000000E+00 0.  1.
        -11    1    3    3    0    0  0.65359896526E+02  0.49151790604E+02 -0.24454300304E+01  0.81815614167E+02  0.00000000000E+00 0. -1.
          4    1    6    6  502    0  0.12875315290E+03 -0.16257443717E+03  0.15303061822E+03  0.25773279208E+03  0.00000000000E+00 0. -1.
          3    1    5    5  503    0 -0.45298929090E+03 -0.10124773108E+03 -0.15714741781E+03  0.49004664231E+03  0.00000000000E+00 0. -1.
         -4    1    5    5    0  503 -0.30768052919E+03 -0.22332364476E+01 -0.11065993916E+03  0.32698305388E+03  0.00000000000E+00 0.  1.
         -3    1    6    6    0  502  0.45625654178E+02 -0.37861388142E+02 -0.27698615856E+00  0.59289642877E+02  0.00000000000E+00 0.  1.
<mgrwt>
<rscale>  0 0.18090729E+04</rscale>
<asrwt>0</asrwt>
<pdfrwt beam="1">  1        2 0.11415617E+00 0.18090729E+04</pdfrwt>
<pdfrwt beam="2">  1       -2 0.16963913E+00 0.18090729E+04</pdfrwt>
<totfact> 0.76861352E+00</totfact>
</mgrwt>
</event>
<event>
12    1  0.1442183E-007  0.2123355E+04  0.7818608E-02  0.8551024E-01
         -2   -1    0    0    0  501 -0.00000000000E+00  0.00000000000E+00  0.13023229444E+04  0.13023229444E+04  0.00000000000E+00 0. -1.
          2   -1    0    0  501    0  0.00000000000E+00 -0.00000000000E+00 -0.86549899991E+03  0.86549899991E+03  0.00000000000E+00 0.  1.
         23    2    1    2    0    0 -0.63385348125E+03 -0.14545165084E+03 -0.39166665449E+03  0.76530566858E+03  0.96765591461E+02 0.  0.
        254    2    1    2    0    0  0.63385348125E+03  0.14545165084E+03  0.82849059900E+03  0.14025162757E+04  0.92613649786E+03 0.  0.
        -24    2    4    4    0    0  0.31273270898E+03  0.52956660166E+03  0.51285495194E+03  0.80485173743E+03  0.80768710901E+02 0.  0.
         24    2    4    4    0    0  0.32112077227E+03 -0.38411495082E+03  0.31563564706E+03  0.59766453831E+03  0.83151625598E+02 0.  0.
         11    1    3    3    0    0 -0.82646204286E+02 -0.33598521511E+02 -0.20830204694E+02  0.91614153700E+02  0.00000000000E+00 0. -1.
        -11    1    3    3    0    0 -0.55120727696E+03 -0.11185312933E+03 -0.37083644980E+03  0.67369151488E+03  0.00000000000E+00 0.  1.
          2    1    6    6  502    0  0.30325929556E+03 -0.36549696421E+03  0.31830336632E+03  0.57172656419E+03  0.00000000000E+00 0. -1.
          1    1    5    5  503    0  0.26526707158E+03  0.42191231024E+03  0.37553009661E+03  0.62401880602E+03  0.00000000000E+00 0. -1.
         -2    1    5    5    0  503  0.47465637400E+02  0.10765429141E+03  0.13732485533E+03  0.18083293142E+03  0.00000000000E+00 0.  1.
         -1    1    6    6    0  502  0.17861476704E+02 -0.18617986609E+02 -0.26677192631E+01  0.25937974121E+02  0.00000000000E+00 0.  1.
<mgrwt>
<rscale>  0 0.21233551E+04</rscale>
<asrwt>0</asrwt>
<pdfrwt beam="1">  1        2 0.13315369E+00 0.21233551E+04</pdfrwt>
<pdfrwt beam="2">  1       -2 0.20035738E+00 0.21233551E+04</pdfrwt>
<totfact> 0.37655614E+00</totfact>
</mgrwt>
</event>
<event>
12    1  0.1442183E-007  0.1260290E+04  0.7818608E-02  0.9061662E-01
         -1   -1    0    0    0  501 -0.00000000000E+00  0.00000000000E+00  0.11650457092E+04  0.11650457092E+04  0.00000000000E+00 0.  1.
          1   -1    0    0  501    0  0.00000000000E+00 -0.00000000000E+00 -0.34083011379E+03  0.34083011379E+03  0.00000000000E+00 0. -1.
         23    2    1    2    0    0  0.12351841334E+03 -0.25855373697E+03  0.30749550051E+03  0.43020482725E+03  0.91738090362E+02 0.  0.
        254    2    1    2    0    0 -0.12351841334E+03  0.25855373697E+03  0.51672009488E+03  0.10756709957E+04  0.89886684289E+03 0.  0.
        -24    2    4    4    0    0 -0.20631205827E+03 -0.28804531893E+03  0.31879486507E+03  0.48314437631E+03  0.79142600506E+02 0.  0.
         24    2    4    4    0    0  0.82793644936E+02  0.54659905590E+03  0.19792522981E+03  0.59252661942E+03  0.79297431060E+02 0.  0.
         13    1    3    3    0    0  0.76067096796E+01  0.34743902824E+01  0.30707310337E+02  0.31825655187E+02  0.00000000000E+00 0.  1.
        -13    1    3    3    0    0  0.11591170366E+03 -0.26202812725E+03  0.27678819018E+03  0.39837917207E+03  0.00000000000E+00 0. -1.
          2    1    6    6  502    0  0.10982964254E+02  0.30170747230E+03  0.12797093275E+03  0.32790941428E+03  0.00000000000E+00 0. -1.
          1    1    5    5  503    0 -0.64262615232E+02 -0.35879174579E+02  0.66515683896E+02  0.99203503411E+02  0.00000000000E+00 0. -1.
         -2    1    5    5    0  503 -0.14204944304E+03 -0.25216614435E+03  0.25227918117E+03  0.38394087289E+03  0.00000000000E+00 0.  1.
         -1    1    6    6    0  502  0.71810680682E+02  0.24489158360E+03  0.69954297064E+02  0.26461720514E+03  0.00000000000E+00 0.  1.
<mgrwt>
<rscale>  0 0.12602899E+04</rscale>
<asrwt>0</asrwt>
<pdfrwt beam="1">  1        1 0.52435403E-01 0.12602899E+04</pdfrwt>
<pdfrwt beam="2">  1       -1 0.17923780E+00 0.12602899E+04</pdfrwt>
<totfact> 0.15402598E+01</totfact>
</mgrwt>
</event>
<event>
12    1  0.1593666E-007  0.1519003E+04  0.7818608E-02  0.8871913E-01
          2   -1    0    0  501    0  0.00000000000E+00  0.00000000000E+00  0.22620222308E+04  0.22620222308E+04  0.00000000000E+00 0. -1.
         -2   -1    0    0    0  501 -0.00000000000E+00 -0.00000000000E+00 -0.25501200474E+03  0.25501200474E+03  0.00000000000E+00 0.  1.
         23    2    1    2    0    0  0.31396121486E+03  0.33344677153E+03  0.37919555658E+03  0.60162506786E+03  0.91679104826E+02 0.  0.
        254    2    1    2    0    0 -0.31396121486E+03 -0.33344677153E+03  0.16278146695E+04  0.19154091677E+04  0.89958506411E+03 0.  0.
        -24    2    4    4    0    0  0.15970487789E+03 -0.47525462370E+03  0.78322349476E+03  0.93334863239E+03  0.79548862210E+02 0.  0.
         24    2    4    4    0    0 -0.47366609276E+03  0.14180785216E+03  0.84459117472E+03  0.98206053528E+03  0.81483790946E+02 0.  0.
         11    1    3    3    0    0  0.24981176143E+03  0.29791696961E+03  0.34851794057E+03  0.52213522370E+03  0.00000000000E+00 0.  1.
        -11    1    3    3    0    0  0.64149453432E+02  0.35529801922E+02  0.30677616018E+02  0.79489844161E+02  0.00000000000E+00 0. -1.
          4    1    6    6  502    0 -0.43334638998E+03  0.14522409353E+03  0.73811630394E+03  0.86815598207E+03  0.00000000000E+00 0. -1.
          3    1    5    5  503    0  0.14002605388E+03 -0.44409253033E+03  0.75450711020E+03  0.88662644366E+03  0.00000000000E+00 0. -1.
         -4    1    5    5    0  503  0.19678824017E+02 -0.31162093366E+02  0.28716384561E+02  0.46722188732E+02  0.00000000000E+00 0.  1.
         -3    1    6    6    0  502 -0.40319702774E+02 -0.34162413652E+01  0.10647487078E+03  0.11390455322E+03  0.00000000000E+00 0.  1.
<mgrwt>
<rscale>  0 0.15190034E+04</rscale>
<asrwt>0</asrwt>
<pdfrwt beam="1">  1        2 0.34800341E+00 0.15190034E+04</pdfrwt>
<pdfrwt beam="2">  1       -2 0.39232618E-01 0.15190034E+04</pdfrwt>
<totfact> 0.28270805E+01</totfact>
</mgrwt>
</event>
<event>
12    1  0.1684176E-007  0.3075953E+04  0.7818608E-02  0.8222369E-01
         -1   -1    0    0    0  501 -0.00000000000E+00  0.00000000000E+00  0.13637710946E+04  0.13637710946E+04  0.00000000000E+00 0.  1.
          1   -1    0    0  501    0  0.00000000000E+00 -0.00000000000E+00 -0.17344340278E+04  0.17344340278E+04  0.00000000000E+00 0. -1.
         23    2    1    2    0    0 -0.13258525808E+04 -0.24092130902E+03 -0.55926712659E+03  0.14617799395E+04  0.89959599083E+02 0.  0.
        254    2    1    2    0    0  0.13258525808E+04  0.24092130902E+03  0.18860419340E+03  0.16364251829E+04  0.90905868586E+03 0.  0.
        -24    2    4    4    0    0  0.32478040631E+03 -0.24589452318E+03  0.30399957201E+03  0.51454667422E+03  0.79975692044E+02 0.  0.
         24    2    4    4    0    0  0.10010721745E+04  0.48681583220E+03 -0.11539537861E+03  0.11218785087E+04  0.78486571071E+02 0.  0.
         13    1    3    3    0    0 -0.96969267479E+02 -0.98147987217E+01 -0.65320802318E+02  0.11732934980E+03  0.00000000000E+00 0.  1.
        -13    1    3    3    0    0 -0.12288833133E+04 -0.23110651029E+03 -0.49394632427E+03  0.13444505897E+04  0.00000000000E+00 0. -1.
          4    1    6    6  502    0  0.99181720145E+03  0.47197063989E+03 -0.11484105769E+03  0.11043758937E+04  0.00000000000E+00 0. -1.
          1    1    5    5  503    0  0.26416097696E+03 -0.21446621420E+03  0.28451869121E+03  0.44353992428E+03  0.00000000000E+00 0. -1.
         -2    1    5    5    0  503  0.60619429358E+02 -0.31428308978E+02  0.19480880792E+02  0.71006749942E+02  0.00000000000E+00 0.  1.
         -3    1    6    6    0  502  0.92549730529E+01  0.14845192309E+02 -0.55432091922E+00  0.17502615022E+02  0.00000000000E+00 0.  1.
<mgrwt>
<rscale>  0 0.30759525E+04</rscale>
<asrwt>0</asrwt>
<pdfrwt beam="1">  1        1 0.26683600E+00 0.30759525E+04</pdfrwt>
<pdfrwt beam="2">  1       -1 0.20981094E+00 0.30759525E+04</pdfrwt>
<totfact> 0.49228945E-01</totfact>
</mgrwt>
</event>
<event>
12    1  0.1442183E-007  0.1728255E+04  0.7818608E-02  0.8745411E-01
          2   -1    0    0  501    0  0.00000000000E+00  0.00000000000E+00  0.97360782967E+03  0.97360782967E+03  0.00000000000E+00 0. -1.
         -2   -1    0    0    0  501 -0.00000000000E+00 -0.00000000000E+00 -0.76695822460E+03  0.76695822460E+03  0.00000000000E+00 0.  1.
         23    2    1    2    0    0  0.52471712325E+03 -0.25451732855E+03 -0.16880636634E+03  0.61360216893E+03  0.88909518212E+02 0.  0.
        254    2    1    2    0    0 -0.52471712325E+03  0.25451732855E+03  0.37545597141E+03  0.11269638853E+04  0.88824168019E+03 0.  0.
        -24    2    4    4    0    0 -0.12291694584E+03  0.33929969824E+03  0.55936858933E+03  0.67054039168E+03  0.80612265467E+02 0.  0.
         24    2    4    4    0    0 -0.40180017741E+03 -0.84782369687E+02 -0.18391261792E+03  0.45642349366E+03  0.76597139361E+02 0.  0.
         13    1    3    3    0    0  0.88894854890E+02 -0.25858497813E+02  0.21135353322E+01  0.92603586143E+02  0.00000000000E+00 0. -1.
        -13    1    3    3    0    0  0.43582226836E+03 -0.22865883074E+03 -0.17091990168E+03  0.52099858278E+03  0.00000000000E+00 0.  1.
          4    1    6    6  502    0 -0.13689762702E+03 -0.61636282999E+01 -0.92659153908E+02  0.16542269917E+03  0.00000000000E+00 0. -1.
          3    1    5    5  503    0 -0.64308883484E+02  0.18602798987E+03  0.23123808627E+03  0.30366609631E+03  0.00000000000E+00 0. -1.
         -4    1    5    5    0  503 -0.58608062359E+02  0.15327170837E+03  0.32813050307E+03  0.36687429537E+03  0.00000000000E+00 0.  1.
         -3    1    6    6    0  502 -0.26490255038E+03 -0.78618741387E+02 -0.91253464016E+02  0.29100079449E+03  0.00000000000E+00 0.  1.
<mgrwt>
<rscale>  0 0.17282552E+04</rscale>
<asrwt>0</asrwt>
<pdfrwt beam="1">  1        2 0.14978582E+00 0.17282552E+04</pdfrwt>
<pdfrwt beam="2">  1       -2 0.11799357E+00 0.17282552E+04</pdfrwt>
<totfact> 0.13773305E+01</totfact>
</mgrwt>
</event>
<event>
12    1  0.1442183E-007  0.1489742E+04  0.7818608E-02  0.8891303E-01
         -1   -1    0    0    0  501 -0.00000000000E+00  0.00000000000E+00  0.44483323932E+03  0.44483323932E+03  0.00000000000E+00 0.  1.
          1   -1    0    0  501    0  0.00000000000E+00 -0.00000000000E+00 -0.12472830614E+04  0.12472830614E+04  0.00000000000E+00 0. -1.
         23    2    1    2    0    0 -0.72570559898E+02  0.33486122133E+03  0.10743929824E+03  0.37084300562E+03  0.92643447150E+02 0.  0.
        254    2    1    2    0    0  0.72570559898E+02 -0.33486122133E+03 -0.90988912032E+03  0.13212732951E+04  0.89468787034E+03 0.  0.
        -24    2    4    4    0    0  0.12164279283E+03  0.26415744011E+03 -0.51615533191E+03  0.59816738382E+03  0.82533448896E+02 0.  0.
         24    2    4    4    0    0 -0.49072232933E+02 -0.59901866144E+03 -0.39373378841E+03  0.72310591127E+03  0.81390552165E+02 0.  0.
         11    1    3    3    0    0  0.53086499542E+01  0.30027513001E+02  0.37866088602E+02  0.48617630211E+02  0.00000000000E+00 0. -1.
        -11    1    3    3    0    0 -0.77879209852E+02  0.30483370833E+03  0.69573209636E+02  0.32222537541E+03  0.00000000000E+00 0.  1.
          2    1    6    6  502    0 -0.45573736079E+02 -0.39761213288E+03 -0.21772040339E+03  0.45560349832E+03  0.00000000000E+00 0. -1.
          1    1    5    5  503    0  0.47223772038E+02  0.19215538273E+03 -0.31668027143E+03  0.37341688509E+03  0.00000000000E+00 0. -1.
         -2    1    5    5    0  503  0.74419020794E+02  0.72002057378E+02 -0.19947506048E+03  0.22475049872E+03  0.00000000000E+00 0.  1.
         -1    1    6    6    0  502 -0.34984968547E+01 -0.20140652857E+03 -0.17601338502E+03  0.26750241295E+03  0.00000000000E+00 0.  1.
<mgrwt>
<rscale>  0 0.14897422E+04</rscale>
<asrwt>0</asrwt>
<pdfrwt beam="1">  1        1 0.19188970E+00 0.14897422E+04</pdfrwt>
<pdfrwt beam="2">  1       -1 0.68435883E-01 0.14897422E+04</pdfrwt>
<totfact> 0.20654415E+01</totfact>
</mgrwt>
</event>
<event>
12    1  0.1442183E-007  0.1480658E+04  0.7818608E-02  0.8897418E-01
          1   -1    0    0  501    0  0.00000000000E+00  0.00000000000E+00  0.22482613041E+04  0.22482613041E+04  0.00000000000E+00 0. -1.
         -1   -1    0    0    0  501 -0.00000000000E+00 -0.00000000000E+00 -0.24378265516E+03  0.24378265516E+03  0.00000000000E+00 0.  1.
         23    2    1    2    0    0 -0.40523027452E+03  0.46452251778E+02  0.30297814987E+03  0.51639671378E+03  0.92197720292E+02 0.  0.
        254    2    1    2    0    0  0.40523027452E+03 -0.46452251778E+02  0.17015004991E+04  0.19756472455E+04  0.91744683942E+03 0.  0.
        -24    2    4    4    0    0  0.41598362084E+03  0.36088838074E+03  0.12159562489E+04  0.13372091779E+04  0.79347274205E+02 0.  0.
         24    2    4    4    0    0 -0.10753346321E+02 -0.40734063252E+03  0.48554425016E+03  0.63843806762E+03  0.76209723600E+02 0.  0.
         11    1    3    3    0    0 -0.43192024061E+02 -0.19433211145E+02  0.55368009443E+02  0.72861629872E+02  0.00000000000E+00 0. -1.
        -11    1    3    3    0    0 -0.36203825046E+03  0.65885462923E+02  0.24761014042E+03  0.44353508391E+03  0.00000000000E+00 0.  1.
          2    1    6    6  502    0 -0.26003304387E+02 -0.37564925266E+03  0.42020399564E+03  0.56423393270E+03  0.00000000000E+00 0. -1.
          3    1    5    5  503    0  0.26002586942E+03  0.25266571411E+03  0.87148248630E+03  0.94389360618E+03  0.00000000000E+00 0. -1.
         -4    1    5    5    0  503  0.15595775142E+03  0.10822266663E+03  0.34447376263E+03  0.39331557169E+03  0.00000000000E+00 0.  1.
         -1    1    6    6    0  502  0.15249958066E+02 -0.31691379854E+02  0.65340254523E+02  0.74204134920E+02  0.00000000000E+00 0.  1.
<mgrwt>
<rscale>  0 0.14806581E+04</rscale>
<asrwt>0</asrwt>
<pdfrwt beam="1">  1        1 0.34588634E+00 0.14806581E+04</pdfrwt>
<pdfrwt beam="2">  1       -1 0.37505025E-01 0.14806581E+04</pdfrwt>
<totfact> 0.13421892E+01</totfact>
</mgrwt>
</event>
<event>
12    1  0.1442183E-007  0.3929084E+04  0.7818608E-02  0.8019007E-01
         -2   -1    0    0    0  501 -0.00000000000E+00  0.00000000000E+00  0.28474379837E+04  0.28474379837E+04  0.00000000000E+00 0.  1.
          2   -1    0    0  501    0  0.00000000000E+00 -0.00000000000E+00 -0.13554027397E+04  0.13554027397E+04  0.00000000000E+00 0. -1.
         23    2    1    2    0    0 -0.11733748091E+04 -0.11808609610E+04 -0.18524766157E+03  0.16775535754E+04  0.92888375067E+02 0.  0.
        254    2    1    2    0    0  0.11733748091E+04  0.11808609610E+04  0.16772829056E+04  0.25252871481E+04  0.89025624580E+03 0.  0.
        -24    2    4    4    0    0  0.43859171833E+03  0.33868248978E+02  0.75794966808E+03  0.87997862713E+03  0.79780518874E+02 0.  0.
         24    2    4    4    0    0  0.73478309081E+03  0.11469927120E+04  0.91933323750E+03  0.16453085210E+04  0.79800098475E+02 0.  0.
         11    1    3    3    0    0 -0.10152102343E+04 -0.98684418557E+03 -0.13487078149E+03  0.14222177731E+04  0.00000000000E+00 0.  1.
        -11    1    3    3    0    0 -0.15816457486E+03 -0.19401677541E+03 -0.50376880075E+02  0.25533580228E+03  0.00000000000E+00 0. -1.
          2    1    6    6  502    0  0.32959800525E+02  0.83636807897E+02  0.49565712036E+02  0.10265585174E+03  0.00000000000E+00 0. -1.
          1    1    5    5  503    0  0.87275462637E+01  0.12986275403E+02  0.16964960633E+02  0.23078633016E+02  0.00000000000E+00 0. -1.
         -2    1    5    5    0  503  0.42986417206E+03  0.20881973575E+02  0.74098470745E+03  0.85689999412E+03  0.00000000000E+00 0.  1.
         -1    1    6    6    0  502  0.70182329029E+03  0.10633559041E+04  0.86976752546E+03  0.15426526692E+04  0.00000000000E+00 0.  1.
<mgrwt>
<rscale>  0 0.39290840E+04</rscale>
<asrwt>0</asrwt>
<pdfrwt beam="1">  1        2 0.20852350E+00 0.39290840E+04</pdfrwt>
<pdfrwt beam="2">  1       -2 0.43806738E+00 0.39290840E+04</pdfrwt>
<totfact> 0.50688409E-02</totfact>
</mgrwt>
</event>
<event>
12    1  0.1442183E-007  0.1991657E+04  0.7818608E-02  0.8610531E-01
         -2   -1    0    0    0  501 -0.00000000000E+00  0.00000000000E+00  0.10839848310E+04  0.10839848310E+04  0.00000000000E+00 0.  1.
          2   -1    0    0  501    0  0.00000000000E+00 -0.00000000000E+00 -0.91484182988E+03  0.91484182988E+03  0.00000000000E+00 0. -1.
         23    2    1    2    0    0  0.10255671218E+03  0.20382648524E+03 -0.68975578945E+03  0.73259872564E+03  0.94205777056E+02 0.  0.
        254    2    1    2    0    0 -0.10255671218E+03 -0.20382648524E+03  0.85889879060E+03  0.12662279353E+04  0.90197723709E+03 0.  0.
        -24    2    4    4    0    0 -0.44890513345E+03 -0.13252040518E+03  0.75064500511E+03  0.88818857657E+03  0.79583586497E+02 0.  0.
         24    2    4    4    0    0  0.34634842126E+03 -0.71306080063E+02  0.10825378550E+03  0.37803935869E+03  0.78441625918E+02 0.  0.
         13    1    3    3    0    0  0.10387493254E+03  0.11284703739E+03 -0.38094784411E+03  0.41066496733E+03  0.00000000000E+00 0. -1.
        -13    1    3    3    0    0 -0.13182203593E+01  0.90979447852E+02 -0.30880794534E+03  0.32193375831E+03  0.00000000000E+00 0.  1.
          2    1    6    6  502    0  0.32830563082E+02 -0.74417192569E+01  0.37424250301E+02  0.50336860931E+02  0.00000000000E+00 0. -1.
          1    1    5    5  503    0 -0.15932102947E+03 -0.77456424611E+02  0.32997255004E+03  0.37451912091E+03  0.00000000000E+00 0. -1.
         -2    1    5    5    0  503 -0.28958410398E+03 -0.55063980570E+02  0.42067245506E+03  0.51366945567E+03  0.00000000000E+00 0.  1.
         -1    1    6    6    0  502  0.31351785818E+03 -0.63864360806E+02  0.70829535198E+02  0.32770249776E+03  0.00000000000E+00 0.  1.
<mgrwt>
<rscale>  0 0.19916573E+04</rscale>
<asrwt>0</asrwt>
<pdfrwt beam="1">  1        2 0.14074490E+00 0.19916573E+04</pdfrwt>
<pdfrwt beam="2">  1       -2 0.16676690E+00 0.19916573E+04</pdfrwt>
<totfact> 0.59867245E+00</totfact>
</mgrwt>
</event>
<event>
12    1  0.1442183E-007  0.1688664E+04  0.7818608E-02  0.8767856E-01
          1   -1    0    0  501    0  0.00000000000E+00  0.00000000000E+00  0.20121862989E+04  0.20121862989E+04  0.00000000000E+00 0. -1.
         -1   -1    0    0    0  501 -0.00000000000E+00 -0.00000000000E+00 -0.35428933908E+03  0.35428933908E+03  0.00000000000E+00 0.  1.
         23    2    1    2    0    0 -0.12852879027E+03 -0.57963849204E+03  0.46277131632E+03  0.75839292496E+03  0.92206865493E+02 0.  0.
        254    2    1    2    0    0  0.12852879027E+03  0.57963849204E+03  0.11951256435E+04  0.16080827130E+04  0.89727603154E+03 0.  0.
        -24    2    4    4    0    0 -0.27747186087E+03  0.32620654528E+03  0.15919369315E+03  0.46391460357E+03  0.80453612160E+02 0.  0.
         24    2    4    4    0    0  0.40600065113E+03  0.25343194676E+03  0.10359319503E+04  0.11441681094E+04  0.83074524201E+02 0.  0.
         13    1    3    3    0    0 -0.11186111361E+03 -0.36565393480E+03  0.33657288066E+03  0.50940849303E+03  0.00000000000E+00 0.  1.
        -13    1    3    3    0    0 -0.16667676651E+02 -0.21398455724E+03  0.12619843565E+03  0.24898443193E+03  0.00000000000E+00 0. -1.
          2    1    6    6  502    0  0.10022507163E+03  0.99680341309E+02  0.35368643569E+03  0.38088755587E+03  0.00000000000E+00 0. -1.
          1    1    5    5  503    0 -0.18225651516E+03  0.22306150303E+03  0.66288344690E+02  0.29558081144E+03  0.00000000000E+00 0. -1.
         -2    1    5    5    0  503 -0.95215345706E+02  0.10314504226E+03  0.92905348463E+02  0.16833379213E+03  0.00000000000E+00 0.  1.
         -1    1    6    6    0  502  0.30577557951E+03  0.15375160545E+03  0.68224551466E+03  0.76328055358E+03  0.00000000000E+00 0.  1.
<mgrwt>
<rscale>  0 0.16886636E+04</rscale>
<asrwt>0</asrwt>
<pdfrwt beam="1">  1        1 0.30956712E+00 0.16886636E+04</pdfrwt>
<pdfrwt beam="2">  1       -1 0.54506054E-01 0.16886636E+04</pdfrwt>
<totfact> 0.94719809E+00</totfact>
</mgrwt>
</event>
<event>
12    1  0.1442183E-007  0.1530448E+04  0.7818608E-02  0.8864454E-01
          2   -1    0    0  501    0  0.00000000000E+00  0.00000000000E+00  0.83153307235E+03  0.83153307235E+03  0.00000000000E+00 0. -1.
         -2   -1    0    0    0  501 -0.00000000000E+00 -0.00000000000E+00 -0.70420248320E+03  0.70420248320E+03  0.00000000000E+00 0.  1.
         23    2    1    2    0    0 -0.39308588042E+03  0.29662348699E+03  0.10173813399E+03  0.51158960944E+03  0.94187462861E+02 0.  0.
        254    2    1    2    0    0  0.39308588042E+03 -0.29662348699E+03  0.25592455155E+02  0.10241459461E+04  0.89761792693E+03 0.  0.
        -24    2    4    4    0    0 -0.19836783009E+03  0.14993872516E+03 -0.77722614892E+02  0.27159645852E+03  0.76762061583E+02 0.  0.
         24    2    4    4    0    0  0.59145371051E+03 -0.44656221214E+03  0.10331507005E+03  0.75254948759E+03  0.80133804201E+02 0.  0.
         13    1    3    3    0    0 -0.36244483836E+02  0.17789580788E+02  0.35783435201E+02  0.53949847339E+02  0.00000000000E+00 0. -1.
        -13    1    3    3    0    0 -0.35684139659E+03  0.27883390620E+03  0.65954698789E+02  0.45763976210E+03  0.00000000000E+00 0.  1.
          2    1    6    6  502    0  0.12399204493E+03 -0.55539414191E+02  0.13641369195E+02  0.13654574577E+03  0.00000000000E+00 0. -1.
          1    1    5    5  503    0 -0.31979313323E+02  0.45397556692E+02  0.99607923599E+01  0.56416593469E+02  0.00000000000E+00 0. -1.
         -2    1    5    5    0  503 -0.16638851677E+03  0.10454116847E+03 -0.87683407252E+02  0.21517986505E+03  0.00000000000E+00 0.  1.
         -1    1    6    6    0  502  0.46746166558E+03 -0.39102279795E+03  0.89673700852E+02  0.61600374182E+03  0.00000000000E+00 0.  1.
<mgrwt>
<rscale>  0 0.15304478E+04</rscale>
<asrwt>0</asrwt>
<pdfrwt beam="1">  1        2 0.12792816E+00 0.15304478E+04</pdfrwt>
<pdfrwt beam="2">  1       -2 0.10833884E+00 0.15304478E+04</pdfrwt>
<totfact> 0.21491917E+01</totfact>
</mgrwt>
</event>
<event>
12    1  0.1442183E-007  0.1446462E+04  0.7818608E-02  0.8920857E-01
         -1   -1    0    0    0  501 -0.00000000000E+00  0.00000000000E+00  0.25439829945E+03  0.25439829945E+03  0.00000000000E+00 0.  1.
          1   -1    0    0  501    0  0.00000000000E+00 -0.00000000000E+00 -0.20560782859E+04  0.20560782859E+04  0.00000000000E+00 0. -1.
         23    2    1    2    0    0  0.65628528763E+02 -0.36089747182E+03 -0.69921721244E+03  0.79490600869E+03  0.91742920834E+02 0.  0.
        254    2    1    2    0    0 -0.65628528763E+02  0.36089747182E+03 -0.11024627740E+04  0.15155705767E+04  0.97312687550E+03 0.  0.
        -24    2    4    4    0    0 -0.47461533638E+03  0.14849376719E+03 -0.84047472169E+03  0.97980670411E+03  0.79456297479E+02 0.  0.
         24    2    4    4    0    0  0.40898680762E+03  0.21240370463E+03 -0.26198805231E+03  0.53576387254E+03  0.77586371318E+02 0.  0.
         13    1    3    3    0    0  0.52942477864E+02 -0.34758586603E+03 -0.68982170449E+03  0.77425630395E+03  0.00000000000E+00 0. -1.
        -13    1    3    3    0    0  0.12686050899E+02 -0.13311605790E+02 -0.93955079570E+01  0.20649704741E+02  0.00000000000E+00 0.  1.
          2    1    6    6  502    0  0.78962032157E+02  0.69816939847E+02 -0.37253334486E+02  0.11179095913E+03  0.00000000000E+00 0. -1.
          1    1    5    5  503    0 -0.88159959417E+02  0.39195974059E+02 -0.22593290901E+03  0.24567088187E+03  0.00000000000E+00 0. -1.
         -2    1    5    5    0  503 -0.38645537697E+03  0.10929779313E+03 -0.61454181268E+03  0.73413582224E+03  0.00000000000E+00 0.  1.
         -3    1    6    6    0  502  0.33002477546E+03  0.14258676479E+03 -0.22473471782E+03  0.42397291341E+03  0.00000000000E+00 0.  1.
<mgrwt>
<rscale>  0 0.14464616E+04</rscale>
<asrwt>0</asrwt>
<pdfrwt beam="1">  1        1 0.31631972E+00 0.14464616E+04</pdfrwt>
<pdfrwt beam="2">  1       -1 0.39138202E-01 0.14464616E+04</pdfrwt>
<totfact> 0.16826232E+01</totfact>
</mgrwt>
</event>
<event>
12    1  0.1442183E-007  0.1676651E+04  0.7818608E-02  0.8774794E-01
          1   -1    0    0  501    0  0.00000000000E+00  0.00000000000E+00  0.15912075828E+04  0.15912075828E+04  0.00000000000E+00 0. -1.
         -1   -1    0    0    0  501 -0.00000000000E+00 -0.00000000000E+00 -0.44167069072E+03  0.44167069072E+03  0.00000000000E+00 0.  1.
         23    2    1    2    0    0  0.51343465117E+03 -0.13860026344E+03  0.73629931960E+03  0.91302407107E+03  0.93011248036E+02 0.  0.
        254    2    1    2    0    0 -0.51343465117E+03  0.13860026344E+03  0.41323757247E+03  0.11198542024E+04  0.89469713834E+03 0.  0.
        -24    2    4    4    0    0  0.42047627614E+02 -0.10719740005E+03  0.48295895212E+03  0.50318226443E+03  0.81754242936E+02 0.  0.
         24    2    4    4    0    0 -0.55548227879E+03  0.24579766349E+03 -0.69721379655E+02  0.61667193800E+03  0.80287949974E+02 0.  0.
         11    1    3    3    0    0  0.31655186415E+03 -0.96132095495E+02  0.52948199655E+03  0.62433776688E+03  0.00000000000E+00 0.  1.
        -11    1    3    3    0    0  0.19688278702E+03 -0.42468167942E+02  0.20681732305E+03  0.28868630419E+03  0.00000000000E+00 0. -1.
          2    1    6    6  502    0 -0.48963240880E+03  0.20526314477E+03 -0.35471515687E+02  0.53210063219E+03  0.00000000000E+00 0. -1.
          3    1    5    5  503    0  0.20519922343E+02  0.16888601620E+01  0.27266004886E+02  0.34166569685E+02  0.00000000000E+00 0. -1.
         -4    1    5    5    0  503  0.21527705270E+02 -0.10888626021E+03  0.45569294724E+03  0.46901569475E+03  0.00000000000E+00 0.  1.
         -1    1    6    6    0  502 -0.65849869990E+02  0.40534518715E+02 -0.34249863968E+02  0.84571305813E+02  0.00000000000E+00 0.  1.
<mgrwt>
<rscale>  0 0.16766511E+04</rscale>
<asrwt>0</asrwt>
<pdfrwt beam="1">  1        1 0.24480116E+00 0.16766511E+04</pdfrwt>
<pdfrwt beam="2">  1       -1 0.67949338E-01 0.16766511E+04</pdfrwt>
<totfact> 0.11830187E+01</totfact>
</mgrwt>
</event>
<event>
12    1  0.1442183E-007  0.2103505E+04  0.7818608E-02  0.8559701E-01
         -1   -1    0    0    0  501 -0.00000000000E+00  0.00000000000E+00  0.86626669365E+03  0.86626669365E+03  0.00000000000E+00 0.  1.
          1   -1    0    0  501    0  0.00000000000E+00 -0.00000000000E+00 -0.12769548328E+04  0.12769548328E+04  0.00000000000E+00 0. -1.
         23    2    1    2    0    0  0.15226098239E+03 -0.84464526489E+03 -0.20617416114E+03  0.88752688294E+03  0.92666892483E+02 0.  0.
        254    2    1    2    0    0 -0.15226098239E+03  0.84464526489E+03 -0.20451397800E+03  0.12556946435E+04  0.89349540582E+03 0.  0.
        -24    2    4    4    0    0  0.28856121188E+02  0.15065725882E+02  0.26728136879E+03  0.28100512553E+03  0.80404593432E+02 0.  0.
         24    2    4    4    0    0 -0.18111710358E+03  0.82957953901E+03 -0.47179534679E+03  0.97468951796E+03  0.80144809046E+02 0.  0.
         11    1    3    3    0    0  0.72167348005E+02 -0.18842212269E+03 -0.37042032278E+02  0.20514174269E+03  0.00000000000E+00 0. -1.
        -11    1    3    3    0    0  0.80093634388E+02 -0.65622314220E+03 -0.16913212886E+03  0.68238514026E+03  0.00000000000E+00 0.  1.
          4    1    6    6  502    0 -0.15564920669E+03  0.54126481634E+03 -0.32292260132E+03  0.64920973760E+03  0.00000000000E+00 0. -1.
          3    1    5    5  503    0  0.17710200389E+02  0.10816280523E+02  0.26823687629E+03  0.26903840790E+03  0.00000000000E+00 0. -1.
         -4    1    5    5    0  503  0.11145920800E+02  0.42494453588E+01 -0.95550749854E+00  0.11966717633E+02  0.00000000000E+00 0.  1.
         -3    1    6    6    0  502 -0.25467896892E+02  0.28831472267E+03 -0.14887274547E+03  0.32547978036E+03  0.00000000000E+00 0.  1.
<mgrwt>
<rscale>  0 0.21035051E+04</rscale>
<asrwt>0</asrwt>
<pdfrwt beam="1">  1        1 0.19645459E+00 0.21035051E+04</pdfrwt>
<pdfrwt beam="2">  1       -1 0.13327180E+00 0.21035051E+04</pdfrwt>
<totfact> 0.41133960E+00</totfact>
</mgrwt>
</event>
<event>
12    1  0.1442183E-007  0.1520998E+04  0.7818608E-02  0.8870609E-01
         -2   -1    0    0    0  501 -0.00000000000E+00  0.00000000000E+00  0.11023592405E+04  0.11023592405E+04  0.00000000000E+00 0.  1.
          2   -1    0    0  501    0  0.00000000000E+00 -0.00000000000E+00 -0.52465511176E+03  0.52465511176E+03  0.00000000000E+00 0. -1.
         23    2    1    2    0    0  0.45306360761E+03 -0.16041436746E+03  0.22082393296E+03  0.53671050941E+03  0.91079963260E+02 0.  0.
        254    2    1    2    0    0 -0.45306360761E+03  0.16041436746E+03  0.35688019580E+03  0.10903038429E+04  0.91126263713E+03 0.  0.
        -24    2    4    4    0    0  0.11068626663E+03  0.22667066449E+03  0.43780166385E+03  0.51168484598E+03  0.80746795468E+02 0.  0.
         24    2    4    4    0    0 -0.56374987424E+03 -0.66256297022E+02 -0.80921468049E+02  0.57861899690E+03  0.77767872459E+02 0.  0.
         13    1    3    3    0    0  0.72448623913E+00  0.63058882875E+01 -0.24965084133E+00  0.63522777764E+01  0.00000000000E+00 0. -1.
        -13    1    3    3    0    0  0.45233912137E+03 -0.16672025575E+03  0.22107358381E+03  0.53035823163E+03  0.00000000000E+00 0.  1.
          2    1    6    6  502    0 -0.50634984325E+03 -0.46632602112E+02 -0.51189403549E+02  0.51106273429E+03  0.00000000000E+00 0. -1.
          3    1    5    5  503    0  0.11064362398E+03  0.20942803413E+03  0.43338211537E+03  0.49388477495E+03  0.00000000000E+00 0. -1.
         -4    1    5    5    0  503  0.42642648057E-01  0.17242630354E+02  0.44195484837E+01  0.17800071031E+02  0.00000000000E+00 0.  1.
         -1    1    6    6    0  502 -0.57400030984E+02 -0.19623694910E+02 -0.29732064500E+02  0.67556262614E+02  0.00000000000E+00 0.  1.
<mgrwt>
<rscale>  0 0.15209976E+04</rscale>
<asrwt>0</asrwt>
<pdfrwt beam="1">  1        2 0.80716172E-01 0.15209976E+04</pdfrwt>
<pdfrwt beam="2">  1       -2 0.16959373E+00 0.15209976E+04</pdfrwt>
<totfact> 0.12035289E+01</totfact>
</mgrwt>
</event>
<event>
12    1  0.1442183E-007  0.1654828E+04  0.7818608E-02  0.8787555E-01
          1   -1    0    0  501    0  0.00000000000E+00  0.00000000000E+00  0.46469375643E+03  0.46469375643E+03  0.00000000000E+00 0. -1.
         -1   -1    0    0    0  501 -0.00000000000E+00 -0.00000000000E+00 -0.14732579953E+04  0.14732579953E+04  0.00000000000E+00 0.  1.
         23    2    1    2    0    0 -0.22614218650E+03 -0.35325851759E+03 -0.79716964818E+03  0.90541759752E+03  0.91486114573E+02 0.  0.
        254    2    1    2    0    0  0.22614218650E+03  0.35325851759E+03 -0.21139459066E+03  0.10325341542E+04  0.91951467516E+03 0.  0.
        -24    2    4    4    0    0  0.20623042746E+03  0.86678778338E+02  0.33961383428E+03  0.41464482909E+03  0.80923284891E+02 0.  0.
         24    2    4    4    0    0  0.19911759034E+02  0.26657973926E+03 -0.55100842494E+03  0.61788932509E+03  0.81949363479E+02 0.  0.
         11    1    3    3    0    0 -0.12337060240E+02 -0.69185889956E+01 -0.76111634454E+02  0.77414797218E+02  0.00000000000E+00 0. -1.
        -11    1    3    3    0    0 -0.21380512626E+03 -0.34633992860E+03 -0.72105801372E+03  0.82800280030E+03  0.00000000000E+00 0.  1.
          4    1    6    6  502    0  0.36788855761E+02  0.24199431885E+03 -0.52073457335E+03  0.57539479155E+03  0.00000000000E+00 0. -1.
          3    1    5    5  503    0  0.24019024204E+02  0.58141262128E+00  0.93552102905E+02  0.96588029912E+02  0.00000000000E+00 0. -1.
         -4    1    5    5    0  503  0.18221140326E+03  0.86097365716E+02  0.24606173137E+03  0.31805679918E+03  0.00000000000E+00 0.  1.
         -3    1    6    6    0  502 -0.16877096726E+02  0.24585420405E+02 -0.30273851592E+02  0.42494533538E+02  0.00000000000E+00 0.  1.
<mgrwt>
<rscale>  0 0.16548278E+04</rscale>
<asrwt>0</asrwt>
<pdfrwt beam="1">  1        1 0.71491347E-01 0.16548278E+04</pdfrwt>
<pdfrwt beam="2">  1       -1 0.22665508E+00 0.16548278E+04</pdfrwt>
<totfact> 0.46509775E+00</totfact>
</mgrwt>
</event>
<event>
12    1  0.1442183E-007  0.1883480E+04  0.7818608E-02  0.8663124E-01
          2   -1    0    0  501    0  0.00000000000E+00  0.00000000000E+00  0.72937356021E+03  0.72937356021E+03  0.00000000000E+00 0. -1.
         -2   -1    0    0    0  501 -0.00000000000E+00 -0.00000000000E+00 -0.12159392605E+04  0.12159392605E+04  0.00000000000E+00 0.  1.
         23    2    1    2    0    0 -0.17289727738E+03 -0.19660843684E+03 -0.88402687057E+03  0.92659331217E+03  0.92321786777E+02 0.  0.
        254    2    1    2    0    0  0.17289727738E+03  0.19660843684E+03  0.39746117028E+03  0.10187195085E+04  0.90070289732E+03 0.  0.
        -24    2    4    4    0    0 -0.29081801810E+02  0.28335566439E+03  0.62615605336E+03  0.69263055546E+03  0.80805318284E+02 0.  0.
         24    2    4    4    0    0  0.20197907919E+03 -0.86747227553E+02 -0.22869488308E+03  0.32608895308E+03  0.75577945564E+02 0.  0.
         11    1    3    3    0    0 -0.34556029942E+02 -0.90143667892E+02 -0.22495939079E+03  0.24479936187E+03  0.00000000000E+00 0. -1.
        -11    1    3    3    0    0 -0.13834124744E+03 -0.10646476894E+03 -0.65906747978E+03  0.68179395030E+03  0.00000000000E+00 0.  1.
          2    1    6    6  502    0  0.94439047394E+02 -0.35606047069E+02 -0.15835805013E+03  0.18778657115E+03  0.00000000000E+00 0. -1.
          3    1    5    5  503    0 -0.22796542368E+02  0.28258236940E+03  0.62486221382E+03  0.68616708177E+03  0.00000000000E+00 0. -1.
         -4    1    5    5    0  503 -0.62852594411E+01  0.77329498374E+00  0.12938395330E+01  0.64634736876E+01  0.00000000000E+00 0.  1.
         -1    1    6    6    0  502  0.10754003179E+03 -0.51141180484E+02 -0.70336832946E+02  0.13830238193E+03  0.00000000000E+00 0.  1.
<mgrwt>
<rscale>  0 0.18834797E+04</rscale>
<asrwt>0</asrwt>
<pdfrwt beam="1">  1        2 0.11221132E+00 0.18834797E+04</pdfrwt>
<pdfrwt beam="2">  1       -2 0.18706757E+00 0.18834797E+04</pdfrwt>
<totfact> 0.59105085E+00</totfact>
</mgrwt>
</event>
<event>
12    1  0.1442183E-007  0.1763245E+04  0.7818608E-02  0.8726093E-01
          2   -1    0    0  501    0  0.00000000000E+00  0.00000000000E+00  0.32393116110E+04  0.32393116110E+04  0.00000000000E+00 0. -1.
         -2   -1    0    0    0  501 -0.00000000000E+00 -0.00000000000E+00 -0.23994559898E+03  0.23994559898E+03  0.00000000000E+00 0.  1.
         23    2    1    2    0    0  0.43002766397E+03  0.40816821529E+03  0.64839335755E+03  0.88324082652E+03  0.90417519146E+02 0.  0.
        254    2    1    2    0    0 -0.43002766397E+03 -0.40816821529E+03  0.23509726545E+04  0.25960163835E+04  0.92774110472E+03 0.  0.
        -24    2    4    4    0    0 -0.67720488820E+02 -0.11896003587E+03 -0.37208828496E+02  0.16194145267E+03  0.78121587500E+02 0.  0.
         24    2    4    4    0    0 -0.36230717515E+03 -0.28920817942E+03  0.23881814830E+04  0.24340749308E+04  0.80013204809E+02 0.  0.
         11    1    3    3    0    0  0.13921030639E+03  0.11273630870E+03  0.14061946286E+03  0.22773409503E+03  0.00000000000E+00 0. -1.
        -11    1    3    3    0    0  0.29081735758E+03  0.29543190659E+03  0.50777389469E+03  0.65550673149E+03  0.00000000000E+00 0.  1.
          2    1    6    6  502    0 -0.35990847422E+03 -0.27490919901E+03  0.22494647955E+04  0.22946025894E+04  0.00000000000E+00 0. -1.
          1    1    5    5  503    0 -0.66044178060E+02 -0.90783436064E+02  0.35989750693E+01  0.11232283090E+03  0.00000000000E+00 0. -1.
         -2    1    5    5    0  503 -0.16763107595E+01 -0.28176599805E+02 -0.40807803566E+02  0.49618621768E+02  0.00000000000E+00 0.  1.
         -1    1    6    6    0  502 -0.23987009294E+01 -0.14298980406E+02  0.13871668752E+03  0.13947234136E+03  0.00000000000E+00 0.  1.
<mgrwt>
<rscale>  0 0.17632454E+04</rscale>
<asrwt>0</asrwt>
<pdfrwt beam="1">  1        2 0.49835560E+00 0.17632454E+04</pdfrwt>
<pdfrwt beam="2">  1       -2 0.36914710E-01 0.17632454E+04</pdfrwt>
<totfact> 0.80500714E+00</totfact>
</mgrwt>
</event>
<event>
12    1  0.1442183E-007  0.1982006E+04  0.7818608E-02  0.8615080E-01
          1   -1    0    0  501    0  0.00000000000E+00  0.00000000000E+00  0.65582939246E+03  0.65582939246E+03  0.00000000000E+00 0. -1.
         -1   -1    0    0    0  501 -0.00000000000E+00 -0.00000000000E+00 -0.14974736760E+04  0.14974736760E+04  0.00000000000E+00 0.  1.
         23    2    1    2    0    0  0.61757272017E+03 -0.11105153617E+03 -0.85519020637E+03  0.10646176245E+04  0.91279180848E+02 0.  0.
        254    2    1    2    0    0 -0.61757272017E+03  0.11105153617E+03  0.13545922807E+02  0.10886854440E+04  0.88956393565E+03 0.  0.
        -24    2    4    4    0    0 -0.15397027832E+03  0.14607827675E+03 -0.40093907343E+03  0.46069793384E+03  0.80279113748E+02 0.  0.
         24    2    4    4    0    0 -0.46360244184E+03 -0.35026740579E+02  0.41448499623E+03  0.62798751017E+03  0.80102460579E+02 0.  0.
         13    1    3    3    0    0  0.17339212046E+03  0.41254499969E+01 -0.20015523780E+03  0.26484706152E+03  0.00000000000E+00 0. -1.
        -13    1    3    3    0    0  0.44418059970E+03 -0.11517698616E+03 -0.65503496857E+03  0.79977056294E+03  0.00000000000E+00 0.  1.
          4    1    6    6  502    0 -0.38912266271E+02  0.13361787684E+02  0.59634808681E+02  0.72450067238E+02  0.00000000000E+00 0. -1.
          1    1    5    5  503    0 -0.78181859686E+02  0.21606034506E+02 -0.13781276840E+03  0.15991117236E+03  0.00000000000E+00 0. -1.
         -2    1    5    5    0  503 -0.75788418634E+02  0.12447224224E+03 -0.26312630503E+03  0.30078676149E+03  0.00000000000E+00 0.  1.
         -3    1    6    6    0  502 -0.42469017557E+03 -0.48388528263E+02  0.35485018755E+03  0.55553744293E+03  0.00000000000E+00 0.  1.
<mgrwt>
<rscale>  0 0.19820063E+04</rscale>
<asrwt>0</asrwt>
<pdfrwt beam="1">  1        1 0.10089683E+00 0.19820063E+04</pdfrwt>
<pdfrwt beam="2">  1       -1 0.23038057E+00 0.19820063E+04</pdfrwt>
<totfact> 0.26201575E+00</totfact>
</mgrwt>
</event>
<event>
12    1  0.1442183E-007  0.3723042E+04  0.7818608E-02  0.8062874E-01
          2   -1    0    0  501    0  0.00000000000E+00  0.00000000000E+00  0.25994561892E+04  0.25994561892E+04  0.00000000000E+00 0. -1.
         -2   -1    0    0    0  501 -0.00000000000E+00 -0.00000000000E+00 -0.13330715244E+04  0.13330715244E+04  0.00000000000E+00 0.  1.
         23    2    1    2    0    0 -0.52234175743E+03  0.62230905679E+03  0.22370741716E+04  0.23817822709E+04  0.90975066094E+02 0.  0.
        254    2    1    2    0    0  0.52234175743E+03 -0.62230905679E+03 -0.97068950685E+03  0.15507454428E+04  0.89580345830E+03 0.  0.
        -24    2    4    4    0    0  0.52206213415E+03 -0.70827489391E+03 -0.10770512690E+04  0.13930429370E+04  0.79542384552E+02 0.  0.
         24    2    4    4    0    0  0.27962328695E+00  0.85965837116E+02  0.10636176219E+03  0.15770250579E+03  0.78530583432E+02 0.  0.
         11    1    3    3    0    0 -0.28659633615E+03  0.32277306738E+03  0.13147464262E+04  0.13837911975E+04  0.00000000000E+00 0. -1.
        -11    1    3    3    0    0 -0.23574542129E+03  0.29953598941E+03  0.92232774539E+03  0.99799107337E+03  0.00000000000E+00 0.  1.
          2    1    6    6  502    0  0.26032773905E+02  0.32269402537E+01  0.99092070632E+01  0.28041234730E+02  0.00000000000E+00 0. -1.
          1    1    5    5  503    0  0.56347477698E+02 -0.12086689865E+03 -0.14639722706E+03  0.19803028436E+03  0.00000000000E+00 0. -1.
         -2    1    5    5    0  503  0.46571465645E+03 -0.58740799526E+03 -0.93065404198E+03  0.11950126526E+04  0.00000000000E+00 0.  1.
         -1    1    6    6    0  502 -0.25753150618E+02  0.82738896863E+02  0.96452555130E+02  0.12966127106E+03  0.00000000000E+00 0.  1.
<mgrwt>
<rscale>  0 0.37230423E+04</rscale>
<asrwt>0</asrwt>
<pdfrwt beam="1">  1        2 0.39991634E+00 0.37230423E+04</pdfrwt>
<pdfrwt beam="2">  1       -2 0.20508793E+00 0.37230423E+04</pdfrwt>
<totfact> 0.30269611E-01</totfact>
</mgrwt>
</event>
<event>
12    1  0.1442183E-007  0.1968959E+04  0.7818608E-02  0.8621273E-01
         -1   -1    0    0    0  501 -0.00000000000E+00  0.00000000000E+00  0.85535744553E+03  0.85535744553E+03  0.00000000000E+00 0.  1.
          1   -1    0    0  501    0  0.00000000000E+00 -0.00000000000E+00 -0.11330930765E+04  0.11330930765E+04  0.00000000000E+00 0. -1.
         23    2    1    2    0    0 -0.11511031961E+03 -0.44793803646E+03  0.53286283265E+03  0.71165017307E+03  0.92759367306E+02 0.  0.
        254    2    1    2    0    0  0.11511031961E+03  0.44793803646E+03 -0.81059846359E+03  0.12768003489E+04  0.87134975277E+03 0.  0.
        -24    2    4    4    0    0 -0.35231215755E+03  0.51985807303E+02 -0.24444999492E+03  0.43894656673E+03  0.78050675275E+02 0.  0.
         24    2    4    4    0    0  0.46742247716E+03  0.39595222915E+03 -0.56614846867E+03  0.83785378220E+03  0.78822153234E+02 0.  0.
         11    1    3    3    0    0 -0.10860246140E+03 -0.40521975681E+03  0.51658324305E+03  0.66547411139E+03  0.00000000000E+00 0.  1.
        -11    1    3    3    0    0 -0.65078582122E+01 -0.42718279649E+02  0.16279589601E+02  0.46176061680E+02  0.00000000000E+00 0. -1.
          2    1    6    6  502    0  0.45213381960E+03  0.38165179275E+03 -0.52214797533E+03  0.78912710628E+03  0.00000000000E+00 0. -1.
          1    1    5    5  503    0 -0.27345138486E+03  0.15052583404E+02 -0.21076357327E+03  0.34557708832E+03  0.00000000000E+00 0. -1.
         -2    1    5    5    0  503 -0.78860772684E+02  0.36933223899E+02 -0.33686421651E+02  0.93369478415E+02  0.00000000000E+00 0.  1.
         -1    1    6    6    0  502  0.15288657558E+02  0.14300436408E+02 -0.44000493337E+02  0.48726675911E+02  0.00000000000E+00 0.  1.
<mgrwt>
<rscale>  0 0.19689587E+04</rscale>
<asrwt>0</asrwt>
<pdfrwt beam="1">  1        1 0.17432201E+00 0.19689587E+04</pdfrwt>
<pdfrwt beam="2">  1       -1 0.13159345E+00 0.19689587E+04</pdfrwt>
<totfact> 0.54771488E+00</totfact>
</mgrwt>
</event>
<event>
12    1  0.1442183E-007  0.1546546E+04  0.7818608E-02  0.8854077E-01
          2   -1    0    0  501    0  0.00000000000E+00  0.00000000000E+00  0.59384220013E+03  0.59384220013E+03  0.00000000000E+00 0. -1.
         -2   -1    0    0    0  501 -0.00000000000E+00 -0.00000000000E+00 -0.10069198397E+04  0.10069198397E+04  0.00000000000E+00 0.  1.
         23    2    1    2    0    0  0.19449625088E+03 -0.38748761800E+03  0.13514745367E+03  0.46342220785E+03  0.92303102812E+02 0.  0.
        254    2    1    2    0    0 -0.19449625088E+03  0.38748761800E+03 -0.54822509323E+03  0.11373398320E+04  0.89722666859E+03 0.  0.
        -24    2    4    4    0    0 -0.40878633213E+03  0.52742451080E+03 -0.20676462405E+03  0.70305776075E+03  0.79093142877E+02 0.  0.
         24    2    4    4    0    0  0.21429008126E+03 -0.13993689281E+03 -0.34146046917E+03  0.43428207122E+03  0.80641753948E+02 0.  0.
         11    1    3    3    0    0  0.18420341169E+03 -0.38111453495E+03  0.14538597094E+03  0.44756705216E+03  0.00000000000E+00 0. -1.
        -11    1    3    3    0    0  0.10292839184E+02 -0.63730830480E+01 -0.10238517277E+02  0.15855155692E+02  0.00000000000E+00 0.  1.
          2    1    6    6  502    0  0.62564152586E+02 -0.65726078743E+02 -0.17505980619E+03  0.19718044112E+03  0.00000000000E+00 0. -1.
          1    1    5    5  503    0 -0.98391428625E+01 -0.41849137062E+00 -0.63724740779E+01  0.11729974133E+02  0.00000000000E+00 0. -1.
         -2    1    5    5    0  503 -0.39894718927E+03  0.52784300217E+03 -0.20039214998E+03  0.69132778661E+03  0.00000000000E+00 0.  1.
         -1    1    6    6    0  502  0.15172592867E+03 -0.74210814064E+02 -0.16640066298E+03  0.23710163010E+03  0.00000000000E+00 0.  1.
<mgrwt>
<rscale>  0 0.15465465E+04</rscale>
<asrwt>0</asrwt>
<pdfrwt beam="1">  1        2 0.91360340E-01 0.15465465E+04</pdfrwt>
<pdfrwt beam="2">  1       -2 0.15491074E+00 0.15465465E+04</pdfrwt>
<totfact> 0.13283916E+01</totfact>
</mgrwt>
</event>
<event>
12    1  0.1442183E-007  0.1464803E+04  0.7818608E-02  0.8908202E-01
         -2   -1    0    0    0  501 -0.00000000000E+00  0.00000000000E+00  0.85231908937E+03  0.85231908937E+03  0.00000000000E+00 0.  1.
          2   -1    0    0  501    0  0.00000000000E+00 -0.00000000000E+00 -0.62935620211E+03  0.62935620211E+03  0.00000000000E+00 0. -1.
         23    2    1    2    0    0  0.40405896815E+03 -0.15227193674E+03  0.11559225828E+03  0.45605792924E+03  0.90426059213E+02 0.  0.
        254    2    1    2    0    0 -0.40405896815E+03  0.15227193674E+03  0.10737062899E+03  0.10256173622E+04  0.92407366012E+03 0.  0.
        -24    2    4    4    0    0  0.25117956101E+03  0.23664435740E+03  0.31125466979E+02  0.35568674275E+03  0.80327707031E+02 0.  0.
         24    2    4    4    0    0 -0.65523852916E+03 -0.84372420651E+02  0.76245162007E+02  0.66993061950E+03  0.80854651980E+02 0.  0.
         11    1    3    3    0    0  0.33558457774E+03 -0.14042558500E+03  0.12765253703E+03  0.38552759169E+03  0.00000000000E+00 0. -1.
        -11    1    3    3    0    0  0.68474390404E+02 -0.11846351741E+02 -0.12060278755E+02  0.70530337546E+02  0.00000000000E+00 0.  1.
          4    1    6    6  502    0 -0.47008448928E+03 -0.89689263807E+02  0.32883290627E+02  0.47969250766E+03  0.00000000000E+00 0. -1.
          1    1    5    5  503    0  0.23972681552E+03  0.24100537592E+03  0.22447831721E+02  0.34067057761E+03  0.00000000000E+00 0. -1.
         -2    1    5    5    0  503  0.11452745489E+02 -0.43610185220E+01  0.86776352586E+01  0.15016165138E+02  0.00000000000E+00 0.  1.
         -3    1    6    6    0  502 -0.18515403988E+03  0.53168431555E+01  0.43361871379E+02  0.19023811184E+03  0.00000000000E+00 0.  1.
<mgrwt>
<rscale>  0 0.14648035E+04</rscale>
<asrwt>0</asrwt>
<pdfrwt beam="1">  1        2 0.96824031E-01 0.14648035E+04</pdfrwt>
<pdfrwt beam="2">  1       -2 0.13112601E+00 0.14648035E+04</pdfrwt>
<totfact> 0.19251185E+01</totfact>
</mgrwt>
</event>
<event>
12    1  0.1442183E-007  0.1481713E+04  0.7818608E-02  0.8896705E-01
         -2   -1    0    0    0  501 -0.00000000000E+00  0.00000000000E+00  0.58505387477E+03  0.58505387477E+03  0.00000000000E+00 0.  1.
          2   -1    0    0  501    0  0.00000000000E+00 -0.00000000000E+00 -0.93815048860E+03  0.93815048860E+03  0.00000000000E+00 0. -1.
         23    2    1    2    0    0 -0.12529844110E+03 -0.32300825981E+03 -0.42134778725E+03  0.55304363129E+03  0.91045401039E+02 0.  0.
        254    2    1    2    0    0  0.12529844110E+03  0.32300825981E+03  0.68251173409E+02  0.97016073208E+03  0.90361473435E+03 0.  0.
        -24    2    4    4    0    0  0.83479462773E+02  0.62556101717E+03 -0.36235071434E+02  0.63693972882E+03  0.77998915626E+02 0.  0.
         24    2    4    4    0    0  0.41818978324E+02 -0.30255275736E+03  0.10448624484E+03  0.33322100325E+03  0.82655088856E+02 0.  0.
         13    1    3    3    0    0 -0.13815503990E+03 -0.30438506903E+03 -0.38157517281E+03  0.50728364630E+03  0.00000000000E+00 0.  1.
        -13    1    3    3    0    0  0.12856598801E+02 -0.18623190777E+02 -0.39772614436E+02  0.45759984993E+02  0.00000000000E+00 0. -1.
          4    1    6    6  502    0  0.29280811710E+02 -0.18241992284E+03  0.20030573321E+02  0.18583761204E+03  0.00000000000E+00 0. -1.
          3    1    5    5  503    0  0.26800607682E+02  0.39496961958E+03  0.51170850633E+01  0.39591092120E+03  0.00000000000E+00 0. -1.
         -4    1    5    5    0  503  0.56678855091E+02  0.23059139759E+03 -0.41352156497E+02  0.24102880762E+03  0.00000000000E+00 0.  1.
         -3    1    6    6    0  502  0.12538166614E+02 -0.12013283453E+03  0.84455671522E+02  0.14738339121E+03  0.00000000000E+00 0.  1.
<mgrwt>
<rscale>  0 0.14817133E+04</rscale>
<asrwt>0</asrwt>
<pdfrwt beam="1">  1        2 0.14433084E+00 0.14817133E+04</pdfrwt>
<pdfrwt beam="2">  1       -2 0.90008290E-01 0.14817133E+04</pdfrwt>
<totfact> 0.28267139E+01</totfact>
</mgrwt>
</event>
<event>
12    1  0.1442183E-007  0.1845961E+04  0.7818608E-02  0.8682233E-01
          1   -1    0    0  501    0  0.00000000000E+00  0.00000000000E+00  0.73906919034E+03  0.73906919034E+03  0.00000000000E+00 0. -1.
         -1   -1    0    0    0  501 -0.00000000000E+00 -0.00000000000E+00 -0.11526564903E+04  0.11526564903E+04  0.00000000000E+00 0.  1.
         23    2    1    2    0    0 -0.29751290672E+03  0.63857516354E+02  0.48611443149E+03  0.57993460578E+03  0.86169567829E+02 0.  0.
        254    2    1    2    0    0  0.29751290672E+03 -0.63857516354E+02 -0.89970173142E+03  0.13117910748E+04  0.90484302861E+03 0.  0.
        -24    2    4    4    0    0  0.54670090404E+03  0.17853186373E+03 -0.43254972748E+03  0.72405535815E+03  0.80008687497E+02 0.  0.
         24    2    4    4    0    0 -0.24918799732E+03 -0.24238938008E+03 -0.46715200394E+03  0.58773571668E+03  0.79718305875E+02 0.  0.
         11    1    3    3    0    0 -0.88177838553E+02  0.60108691229E+02  0.15522826527E+03  0.18837250413E+03  0.00000000000E+00 0. -1.
        -11    1    3    3    0    0 -0.20933506817E+03  0.37488251246E+01  0.33088616622E+03  0.39156210165E+03  0.00000000000E+00 0.  1.
          4    1    6    6  502    0 -0.13712558563E+02 -0.24887339676E+02 -0.81175151507E+02  0.86004762430E+02  0.00000000000E+00 0. -1.
          3    1    5    5  503    0  0.22000434014E+03  0.42062365945E+02 -0.20145332152E+03  0.30125502994E+03  0.00000000000E+00 0. -1.
         -4    1    5    5    0  503  0.32669656390E+03  0.13646949778E+03 -0.23109640596E+03  0.42280032821E+03  0.00000000000E+00 0.  1.
         -3    1    6    6    0  502 -0.23547543876E+03 -0.21750204041E+03 -0.38597685244E+03  0.50173095425E+03  0.00000000000E+00 0.  1.
<mgrwt>
<rscale>  0 0.18459609E+04</rscale>
<asrwt>0</asrwt>
<pdfrwt beam="1">  1        1 0.11370295E+00 0.18459609E+04</pdfrwt>
<pdfrwt beam="2">  1       -1 0.17733177E+00 0.18459609E+04</pdfrwt>
<totfact> 0.51236124E+00</totfact>
</mgrwt>
</event>
<event>
12    1  0.1442183E-007  0.1703429E+04  0.7818608E-02  0.8759411E-01
         -2   -1    0    0    0  501 -0.00000000000E+00  0.00000000000E+00  0.52397315418E+03  0.52397315418E+03  0.00000000000E+00 0.  1.
          2   -1    0    0  501    0  0.00000000000E+00 -0.00000000000E+00 -0.13844553511E+04  0.13844553511E+04  0.00000000000E+00 0. -1.
         23    2    1    2    0    0 -0.29753887199E+03  0.21624412993E+03 -0.83988163734E+03  0.92195006566E+03  0.96435754531E+02 0.  0.
        254    2    1    2    0    0  0.29753887199E+03 -0.21624412993E+03 -0.20600559615E+02  0.98647843965E+03  0.91510896879E+03 0.  0.
        -24    2    4    4    0    0  0.57782441921E+03 -0.22526449996E+03 -0.18360050459E+03  0.65174390738E+03  0.80223569721E+02 0.  0.
         24    2    4    4    0    0 -0.28028554721E+03  0.90203700352E+01  0.16299994498E+03  0.33473453227E+03  0.82685367375E+02 0.  0.
         13    1    3    3    0    0 -0.14143224976E+03  0.14537765873E+03 -0.53526064459E+03  0.57239994984E+03  0.00000000000E+00 0. -1.
        -13    1    3    3    0    0 -0.15610662223E+03  0.70866471199E+02 -0.30462099275E+03  0.34955011582E+03  0.00000000000E+00 0.  1.
          2    1    6    6  502    0 -0.12090415755E+03 -0.12078939955E+02  0.27739636834E+02  0.12463227332E+03  0.00000000000E+00 0. -1.
          1    1    5    5  503    0  0.52881319704E+03 -0.19657747774E+03 -0.14322622796E+03  0.58206516345E+03  0.00000000000E+00 0. -1.
         -2    1    5    5    0  503  0.49011222166E+02 -0.28687022217E+02 -0.40374276634E+02  0.69678743929E+02  0.00000000000E+00 0.  1.
         -1    1    6    6    0  502 -0.15938138967E+03  0.21099309990E+02  0.13526030814E+03  0.21010225894E+03  0.00000000000E+00 0.  1.
<mgrwt>
<rscale>  0 0.17034288E+04</rscale>
<asrwt>0</asrwt>
<pdfrwt beam="1">  1        2 0.21299313E+00 0.17034288E+04</pdfrwt>
<pdfrwt beam="2">  1       -2 0.80611256E-01 0.17034288E+04</pdfrwt>
<totfact> 0.19093861E+01</totfact>
</mgrwt>
</event>
<event>
12    1  0.1442183E-007  0.1665700E+04  0.7818608E-02  0.8781172E-01
          1   -1    0    0  501    0  0.00000000000E+00  0.00000000000E+00  0.16245555661E+04  0.16245555661E+04  0.00000000000E+00 0. -1.
         -1   -1    0    0    0  501 -0.00000000000E+00 -0.00000000000E+00 -0.42697149620E+03  0.42697149620E+03  0.00000000000E+00 0.  1.
         23    2    1    2    0    0 -0.25280203243E+03  0.34839649750E+02  0.10701197108E+04  0.11039226448E+04  0.91467706625E+02 0.  0.
        254    2    1    2    0    0  0.25280203243E+03 -0.34839649750E+02  0.12746435910E+03  0.94760441756E+03  0.90365054116E+03 0.  0.
        -24    2    4    4    0    0  0.19938065051E+03  0.40733155839E+03  0.17517310473E+03  0.49263331398E+03  0.79563328006E+02 0.  0.
         24    2    4    4    0    0  0.53421381920E+02 -0.44217120814E+03 -0.47708745632E+02  0.45497110358E+03  0.79707962779E+02 0.  0.
         11    1    3    3    0    0 -0.23634439047E+03  0.36380005578E+02  0.84463326209E+03  0.87783114729E+03  0.00000000000E+00 0. -1.
        -11    1    3    3    0    0 -0.16457641961E+02 -0.15403558283E+01  0.22548644872E+03  0.22609149748E+03  0.00000000000E+00 0.  1.
          4    1    6    6  502    0  0.54907899991E+02 -0.21319672980E+03 -0.50934302238E+02  0.22596908245E+03  0.00000000000E+00 0. -1.
          3    1    5    5  503    0  0.17287261441E+03  0.35459842490E+03  0.17958793980E+03  0.43344758838E+03  0.00000000000E+00 0. -1.
         -4    1    5    5    0  503  0.26508036107E+02  0.52733133487E+02 -0.44148350689E+01  0.59185725596E+02  0.00000000000E+00 0.  1.
         -3    1    6    6    0  502 -0.14865180710E+01 -0.22897447834E+03  0.32255566056E+01  0.22900202113E+03  0.00000000000E+00 0.  1.
<mgrwt>
<rscale>  0 0.16656998E+04</rscale>
<asrwt>0</asrwt>
<pdfrwt beam="1">  1        1 0.24993162E+00 0.16656998E+04</pdfrwt>
<pdfrwt beam="2">  1       -1 0.65687923E-01 0.16656998E+04</pdfrwt>
<totfact> 0.12033065E+01</totfact>
</mgrwt>
</event>
<event>
12    1  0.1730876E-007  0.2250569E+04  0.7818608E-02  0.8497670E-01
         -1   -1    0    0    0  501 -0.00000000000E+00  0.00000000000E+00  0.75195381488E+03  0.75195381488E+03  0.00000000000E+00 0.  1.
          1   -1    0    0  501    0  0.00000000000E+00 -0.00000000000E+00 -0.16839664177E+04  0.16839664177E+04  0.00000000000E+00 0. -1.
         23    2    1    2    0    0 -0.83291186501E+03  0.14289932631E+03 -0.83613285115E+03  0.11923964629E+04  0.92351435166E+02 0.  0.
        254    2    1    2    0    0  0.83291186501E+03 -0.14289932631E+03 -0.95879751703E+02  0.12435237697E+04  0.90719129560E+03 0.  0.
        -24    2    4    4    0    0  0.87212442642E+01  0.24747605902E+03  0.14336717044E+03  0.29727851180E+03  0.80622007729E+02 0.  0.
         24    2    4    4    0    0  0.82419062074E+03 -0.39037538533E+03 -0.23924692215E+03  0.94624525794E+03  0.80360921048E+02 0.  0.
         11    1    3    3    0    0 -0.75544139252E+03  0.15020150588E+03 -0.78187468838E+03  0.10975336980E+04  0.00000000000E+00 0. -1.
        -11    1    3    3    0    0 -0.77470472490E+02 -0.73021795731E+01 -0.54258162770E+02  0.94862764885E+02  0.00000000000E+00 0.  1.
          2    1    6    6  502    0  0.71092546921E+03 -0.36613258793E+03 -0.20969759734E+03  0.82670501211E+03  0.00000000000E+00 0. -1.
          3    1    5    5  503    0  0.11248709824E+02  0.25316816104E+03  0.13590933784E+03  0.28756216606E+03  0.00000000000E+00 0. -1.
         -4    1    5    5    0  503 -0.25274655596E+01 -0.56921020175E+01  0.74578326030E+01  0.97163457466E+01  0.00000000000E+00 0.  1.
         -1    1    6    6    0  502  0.11326515153E+03 -0.24242797397E+02 -0.29549324810E+02  0.11954024583E+03  0.00000000000E+00 0.  1.
<mgrwt>
<rscale>  0 0.22505688E+04</rscale>
<asrwt>0</asrwt>
<pdfrwt beam="1">  1        1 0.25907175E+00 0.22505688E+04</pdfrwt>
<pdfrwt beam="2">  1       -1 0.11568520E+00 0.22505688E+04</pdfrwt>
<totfact> 0.30019910E+00</totfact>
</mgrwt>
</event>
<event>
12    1  0.1442183E-007  0.1801706E+04  0.7818608E-02  0.8705393E-01
          1   -1    0    0  501    0  0.00000000000E+00  0.00000000000E+00  0.23953095454E+04  0.23953095454E+04  0.00000000000E+00 0. -1.
         -1   -1    0    0    0  501 -0.00000000000E+00 -0.00000000000E+00 -0.33880222305E+03  0.33880222305E+03  0.00000000000E+00 0.  1.
         23    2    1    2    0    0  0.76496249434E+02 -0.65145112177E+03  0.95015253683E+03  0.11581852195E+04  0.91448997139E+02 0.  0.
        254    2    1    2    0    0 -0.76496249434E+02  0.65145112177E+03  0.11063547855E+04  0.15759265490E+04  0.91064995259E+03 0.  0.
        -24    2    4    4    0    0  0.41214381433E+02  0.67551369862E+03  0.12179060454E+04  0.13955890955E+04  0.79727070374E+02 0.  0.
         24    2    4    4    0    0 -0.11771063087E+03 -0.24062576850E+02 -0.11155125988E+03  0.18033745351E+03  0.75120658515E+02 0.  0.
         13    1    3    3    0    0 -0.11482573182E+02 -0.14549155255E+03  0.25653402293E+03  0.29514292516E+03  0.00000000000E+00 0.  1.
        -13    1    3    3    0    0  0.87978822616E+02 -0.50595956922E+03  0.69361851391E+03  0.86304229430E+03  0.00000000000E+00 0. -1.
          4    1    6    6  502    0 -0.80559848523E+02 -0.50981448274E+02 -0.68212708894E+02  0.11722615287E+03  0.00000000000E+00 0. -1.
          1    1    5    5  503    0  0.65574122772E+01  0.57444186814E+03  0.10171600233E+04  0.11681784849E+04  0.00000000000E+00 0. -1.
         -2    1    5    5    0  503  0.34656969156E+02  0.10107183047E+03  0.20074602211E+03  0.22741061061E+03  0.00000000000E+00 0.  1.
         -3    1    6    6    0  502 -0.37150782344E+02  0.26918871424E+02 -0.43338550985E+02  0.63111300644E+02  0.00000000000E+00 0.  1.
<mgrwt>
<rscale>  0 0.18017061E+04</rscale>
<asrwt>0</asrwt>
<pdfrwt beam="1">  1        1 0.36850915E+00 0.18017061E+04</pdfrwt>
<pdfrwt beam="2">  1       -1 0.52123421E-01 0.18017061E+04</pdfrwt>
<totfact> 0.56018939E+00</totfact>
</mgrwt>
</event>
<event>
12    1  0.1442183E-007  0.2293885E+04  0.7818608E-02  0.8480336E-01
         -2   -1    0    0    0  501 -0.00000000000E+00  0.00000000000E+00  0.14343849135E+04  0.14343849135E+04  0.00000000000E+00 0.  1.
          2   -1    0    0  501    0  0.00000000000E+00 -0.00000000000E+00 -0.91710194827E+03  0.91710194827E+03  0.00000000000E+00 0. -1.
         23    2    1    2    0    0  0.67410448531E+03 -0.27430852418E+03 -0.43461164526E+03  0.85437957380E+03  0.10684170712E+03 0.  0.
        254    2    1    2    0    0 -0.67410448531E+03  0.27430852418E+03  0.95189461048E+03  0.14971072880E+04  0.89753265048E+03 0.  0.
        -24    2    4    4    0    0 -0.54961674637E+03 -0.23203051168E+03  0.66640260374E+03  0.89770037881E+03  0.76529821678E+02 0.  0.
         24    2    4    4    0    0 -0.12448773894E+03  0.50633903586E+03  0.28549200674E+03  0.59940690916E+03  0.76854020425E+02 0.  0.
         11    1    3    3    0    0  0.34884649968E+03 -0.91594006549E+02 -0.18342852808E+03  0.40463485674E+03  0.00000000000E+00 0.  1.
        -11    1    3    3    0    0  0.32525798563E+03 -0.18271451763E+03 -0.25118311718E+03  0.44974471706E+03  0.00000000000E+00 0. -1.
          4    1    6    6  502    0 -0.51400165919E+02  0.19703548916E+03  0.15468600733E+03  0.25572000686E+03  0.00000000000E+00 0. -1.
          1    1    5    5  503    0 -0.21040019348E+03 -0.11963118564E+03  0.23284754370E+03  0.33585389770E+03  0.00000000000E+00 0. -1.
         -2    1    5    5    0  503 -0.33921655289E+03 -0.11239932604E+03  0.43355506005E+03  0.56184648111E+03  0.00000000000E+00 0.  1.
         -1    1    6    6    0  502 -0.73087573017E+02  0.30930354669E+03  0.13080599941E+03  0.34368690229E+03  0.00000000000E+00 0.  1.
<mgrwt>
<rscale>  0 0.22938851E+04</rscale>
<asrwt>0</asrwt>
<pdfrwt beam="1">  1        2 0.14109261E+00 0.22938851E+04</pdfrwt>
<pdfrwt beam="2">  1       -2 0.22067460E+00 0.22938851E+04</pdfrwt>
<totfact> 0.25340013E+00</totfact>
</mgrwt>
</event>
<event>
12    1  0.1442183E-007  0.1974014E+04  0.7818608E-02  0.8618867E-01
          2   -1    0    0  501    0  0.00000000000E+00  0.00000000000E+00  0.25300364875E+04  0.25300364875E+04  0.00000000000E+00 0. -1.
         -2   -1    0    0    0  501 -0.00000000000E+00 -0.00000000000E+00 -0.38504675006E+03  0.38504675006E+03  0.00000000000E+00 0.  1.
         23    2    1    2    0    0 -0.35166417594E+03  0.67196466257E+03  0.10472365936E+04  0.12961544966E+04  0.90043299633E+02 0.  0.
        254    2    1    2    0    0  0.35166417594E+03 -0.67196466257E+03  0.10977531439E+04  0.16189287410E+04  0.91687736529E+03 0.  0.
        -24    2    4    4    0    0 -0.12200095289E+03  0.15142263713E+03  0.85643974694E+02  0.22855315818E+03  0.84193872511E+02 0.  0.
         24    2    4    4    0    0  0.47366512883E+03 -0.82338729971E+03  0.10121091692E+04  0.13903755828E+04  0.80336736457E+02 0.  0.
         13    1    3    3    0    0 -0.10563660396E+03  0.26953878259E+03  0.45077952920E+03  0.53573541172E+03  0.00000000000E+00 0. -1.
        -13    1    3    3    0    0 -0.24602757198E+03  0.40242587998E+03  0.59645706436E+03  0.76041908490E+03  0.00000000000E+00 0.  1.
          2    1    6    6  502    0  0.38245418823E+03 -0.66482493077E+03  0.86129858796E+03  0.11532990299E+04  0.00000000000E+00 0. -1.
          1    1    5    5  503    0 -0.12840556251E+03  0.15169389777E+03  0.68446478174E+02  0.21019977992E+03  0.00000000000E+00 0. -1.
         -2    1    5    5    0  503  0.64046096231E+01 -0.27126063729E+00  0.17197496520E+02  0.18353378253E+02  0.00000000000E+00 0.  1.
         -1    1    6    6    0  502  0.91210940600E+02 -0.15856236894E+03  0.15081058125E+03  0.23707655292E+03  0.00000000000E+00 0.  1.
<mgrwt>
<rscale>  0 0.19740135E+04</rscale>
<asrwt>0</asrwt>
<pdfrwt beam="1">  1        2 0.38923637E+00 0.19740135E+04</pdfrwt>
<pdfrwt beam="2">  1       -2 0.59237963E-01 0.19740135E+04</pdfrwt>
<totfact> 0.82898929E+00</totfact>
</mgrwt>
</event>
<event>
12    1  0.1442183E-007  0.1543141E+04  0.7818608E-02  0.8856261E-01
          2   -1    0    0  501    0  0.00000000000E+00  0.00000000000E+00  0.22766619468E+04  0.22766619468E+04  0.00000000000E+00 0. -1.
         -2   -1    0    0    0  501 -0.00000000000E+00 -0.00000000000E+00 -0.26148870897E+03  0.26148870897E+03  0.00000000000E+00 0.  1.
         23    2    1    2    0    0 -0.42868493954E+02  0.16058065564E+03 -0.10516971852E+03  0.21526092960E+03  0.87479959867E+02 0.  0.
        254    2    1    2    0    0  0.42868493954E+02 -0.16058065564E+03  0.21203429564E+04  0.23228897262E+04  0.93399067052E+03 0.  0.
        -24    2    4    4    0    0 -0.31507913703E+02 -0.32385210590E+03  0.20993982694E+04  0.21259654157E+04  0.79893178985E+02 0.  0.
         24    2    4    4    0    0  0.74376407657E+02  0.16327145025E+03  0.20944686961E+02  0.19692431047E+03  0.78428870064E+02 0.  0.
         11    1    3    3    0    0 -0.49655126226E+02  0.33128863159E+02 -0.26325022332E+02  0.65239251494E+02  0.00000000000E+00 0. -1.
        -11    1    3    3    0    0  0.67866322720E+01  0.12745179248E+03 -0.78844696192E+02  0.15002167811E+03  0.00000000000E+00 0.  1.
          4    1    6    6  502    0  0.58466049126E+02  0.16850225112E+03  0.23787932644E+02  0.17993652568E+03  0.00000000000E+00 0. -1.
          3    1    5    5  503    0 -0.20741015105E+02 -0.32048213707E+03  0.20633323166E+04  0.20881760554E+04  0.00000000000E+00 0. -1.
         -4    1    5    5    0  503 -0.10766898598E+02 -0.33699688241E+01  0.36065952846E+02  0.37789360275E+02  0.00000000000E+00 0.  1.
         -3    1    6    6    0  502  0.15910358531E+02 -0.52308008667E+01 -0.28432456831E+01  0.16987784797E+02  0.00000000000E+00 0.  1.
<mgrwt>
<rscale>  0 0.15431415E+04</rscale>
<asrwt>0</asrwt>
<pdfrwt beam="1">  1        2 0.35025567E+00 0.15431415E+04</pdfrwt>
<pdfrwt beam="2">  1       -2 0.40229034E-01 0.15431415E+04</pdfrwt>
<totfact> 0.26358540E+01</totfact>
</mgrwt>
</event>
<event>
12    1  0.1442183E-007  0.1514191E+04  0.7818608E-02  0.8875070E-01
         -1   -1    0    0    0  501 -0.00000000000E+00  0.00000000000E+00  0.12648242979E+04  0.12648242979E+04  0.00000000000E+00 0.  1.
          1   -1    0    0  501    0  0.00000000000E+00 -0.00000000000E+00 -0.45318045790E+03  0.45318045790E+03  0.00000000000E+00 0. -1.
         23    2    1    2    0    0  0.19510097153E+03 -0.34157218526E+03  0.57214555150E+03  0.70077070583E+03  0.94831973621E+02 0.  0.
        254    2    1    2    0    0 -0.19510097153E+03  0.34157218526E+03  0.23949828848E+03  0.10172340499E+04  0.90701143066E+03 0.  0.
        -24    2    4    4    0    0 -0.52629253419E+03  0.31429878411E+03  0.39949989226E+02  0.61955088838E+03  0.80496859700E+02 0.  0.
         24    2    4    4    0    0  0.33119156266E+03  0.27273401154E+02  0.19954829925E+03  0.39768316157E+03  0.88885790060E+02 0.  0.
         13    1    3    3    0    0  0.15620808039E+03 -0.20850223565E+03  0.31632814060E+03  0.40980195117E+03  0.00000000000E+00 0.  1.
        -13    1    3    3    0    0  0.38892891142E+02 -0.13306994961E+03  0.25581741090E+03  0.29096875466E+03  0.00000000000E+00 0. -1.
          4    1    6    6  502    0  0.29364225864E+03  0.34139791733E+02  0.14035052444E+03  0.32724542953E+03  0.00000000000E+00 0. -1.
          3    1    5    5  503    0 -0.46259839048E+03  0.24277749611E+03  0.30772318193E+02  0.52334034725E+03  0.00000000000E+00 0. -1.
         -4    1    5    5    0  503 -0.63694143706E+02  0.71521287992E+02  0.91776710330E+01  0.96210541128E+02  0.00000000000E+00 0.  1.
         -3    1    6    6    0  502  0.37549304020E+02 -0.68663905785E+01  0.59197774814E+02  0.70437732040E+02  0.00000000000E+00 0.  1.
<mgrwt>
<rscale>  0 0.15141911E+04</rscale>
<asrwt>0</asrwt>
<pdfrwt beam="1">  1        1 0.69720071E-01 0.15141911E+04</pdfrwt>
<pdfrwt beam="2">  1       -1 0.19458835E+00 0.15141911E+04</pdfrwt>
<totfact> 0.80401662E+00</totfact>
</mgrwt>
</event>
<event>
12    1  0.1442183E-007  0.1134637E+04  0.7818608E-02  0.9172075E-01
         -2   -1    0    0    0  501 -0.00000000000E+00  0.00000000000E+00  0.27444116683E+03  0.27444116683E+03  0.00000000000E+00 0.  1.
          2   -1    0    0  501    0  0.00000000000E+00 -0.00000000000E+00 -0.11727481512E+04  0.11727481512E+04  0.00000000000E+00 0. -1.
         23    2    1    2    0    0  0.31682698628E+01  0.19099041396E+03 -0.20412427495E+03  0.29375931478E+03  0.90224382704E+02 0.  0.
        254    2    1    2    0    0 -0.31682698628E+01 -0.19099041396E+03 -0.69418270946E+03  0.11534300033E+04  0.90112361096E+03 0.  0.
        -24    2    4    4    0    0  0.64339677031E+02 -0.36712834138E+03 -0.82844326029E+03  0.91159368620E+03  0.75907839602E+02 0.  0.
         24    2    4    4    0    0 -0.67507946894E+02  0.17613792742E+03  0.13426055083E+03  0.24183631710E+03  0.69835638410E+02 0.  0.
         11    1    3    3    0    0 -0.11897575013E+02  0.14231072703E+03 -0.19545835477E+03  0.24206995635E+03  0.00000000000E+00 0. -1.
        -11    1    3    3    0    0  0.15065844876E+02  0.48679686935E+02 -0.86659201808E+01  0.51689358426E+02  0.00000000000E+00 0.  1.
          2    1    6    6  502    0  0.11423948248E+02  0.39072015947E+02  0.13673134031E+02  0.42942794715E+02  0.00000000000E+00 0. -1.
          1    1    5    5  503    0  0.10585608189E+02 -0.36063723532E+01 -0.12830288451E+02  0.17019909636E+02  0.00000000000E+00 0. -1.
         -2    1    5    5    0  503  0.53754068843E+02 -0.36352196903E+03 -0.81561297183E+03  0.89457377656E+03  0.00000000000E+00 0.  1.
         -1    1    6    6    0  502 -0.78931895142E+02  0.13706591147E+03  0.12058741679E+03  0.19889352239E+03  0.00000000000E+00 0.  1.
<mgrwt>
<rscale>  0 0.11346372E+04</rscale>
<asrwt>0</asrwt>
<pdfrwt beam="1">  1        2 0.18042279E+00 0.11346372E+04</pdfrwt>
<pdfrwt beam="2">  1       -2 0.42221719E-01 0.11346372E+04</pdfrwt>
<totfact> 0.10354694E+02</totfact>
</mgrwt>
</event>
<event>
12    1  0.1442183E-007  0.1582991E+04  0.7818608E-02  0.8831066E-01
         -2   -1    0    0    0  501 -0.00000000000E+00  0.00000000000E+00  0.90346833679E+03  0.90346833679E+03  0.00000000000E+00 0.  1.
          2   -1    0    0  501    0  0.00000000000E+00 -0.00000000000E+00 -0.69340063285E+03  0.69340063285E+03  0.00000000000E+00 0. -1.
         23    2    1    2    0    0  0.20478742359E+03  0.48914965061E+03  0.13315770721E+03  0.55440567713E+03  0.91811819966E+02 0.  0.
        254    2    1    2    0    0 -0.20478742359E+03 -0.48914965061E+03  0.76909996728E+02  0.10424632925E+04  0.89420875588E+03 0.  0.
        -24    2    4    4    0    0 -0.17017491580E+03 -0.54140197108E+03 -0.30383173076E+03  0.64848637278E+03  0.78391701145E+02 0.  0.
         24    2    4    4    0    0 -0.34612507789E+02  0.52252320463E+02  0.38074172748E+03  0.39397691974E+03  0.79531248886E+02 0.  0.
         11    1    3    3    0    0  0.47763224828E+02  0.16079908384E+03  0.26943037243E+01  0.16776450841E+03  0.00000000000E+00 0. -1.
        -11    1    3    3    0    0  0.15702419876E+03  0.32835056677E+03  0.13046340348E+03  0.38664116871E+03  0.00000000000E+00 0.  1.
          4    1    6    6  502    0  0.66066891994E+01 -0.12989501396E+02  0.18214902863E+02  0.23327198182E+02  0.00000000000E+00 0. -1.
          1    1    5    5  503    0 -0.61626008591E+02 -0.22194721529E+03 -0.16647585056E+03  0.28420510223E+03  0.00000000000E+00 0. -1.
         -2    1    5    5    0  503 -0.10854890721E+03 -0.31945475578E+03 -0.13735588019E+03  0.36428127055E+03  0.00000000000E+00 0.  1.
         -3    1    6    6    0  502 -0.41219196989E+02  0.65241821859E+02  0.36252682462E+03  0.37064972156E+03  0.00000000000E+00 0.  1.
<mgrwt>
<rscale>  0 0.15829915E+04</rscale>
<asrwt>0</asrwt>
<pdfrwt beam="1">  1        2 0.10667702E+00 0.15829915E+04</pdfrwt>
<pdfrwt beam="2">  1       -2 0.13899513E+00 0.15829915E+04</pdfrwt>
<totfact> 0.14564177E+01</totfact>
</mgrwt>
</event>
<event>
12    1  0.1442183E-007  0.1637083E+04  0.7818608E-02  0.8798085E-01
          1   -1    0    0  501    0  0.00000000000E+00  0.00000000000E+00  0.57075627617E+03  0.57075627617E+03  0.00000000000E+00 0. -1.
         -1   -1    0    0    0  501 -0.00000000000E+00 -0.00000000000E+00 -0.11738988942E+04  0.11738988942E+04  0.00000000000E+00 0.  1.
         23    2    1    2    0    0  0.57652004636E+03 -0.56033608934E+02 -0.19383904470E+03  0.61768012794E+03  0.91869668636E+02 0.  0.
        254    2    1    2    0    0 -0.57652004636E+03  0.56033608934E+02 -0.40930357332E+03  0.11269750424E+04  0.87580146263E+03 0.  0.
        -24    2    4    4    0    0 -0.75444109915E+02 -0.26324064087E+03 -0.44327113892E+03  0.52665981801E+03  0.76771170263E+02 0.  0.
         24    2    4    4    0    0 -0.50107593644E+03  0.31927424981E+03  0.33967565600E+02  0.60031522441E+03  0.78812641619E+02 0.  0.
         11    1    3    3    0    0  0.25523296049E+02 -0.15591457336E+02 -0.27689755956E+02  0.40758493200E+02  0.00000000000E+00 0. -1.
        -11    1    3    3    0    0  0.55099675031E+03 -0.40442151598E+02 -0.16614928874E+03  0.57692163474E+03  0.00000000000E+00 0.  1.
          2    1    6    6  502    0 -0.37363564778E+02  0.48108135573E+02 -0.83033090479E+01  0.61476610368E+02  0.00000000000E+00 0. -1.
          1    1    5    5  503    0 -0.51885330202E+02 -0.59716168553E+02 -0.11116143397E+03  0.13643669843E+03  0.00000000000E+00 0. -1.
         -2    1    5    5    0  503 -0.23558779713E+02 -0.20352447232E+03 -0.33210970495E+03  0.39022311958E+03  0.00000000000E+00 0.  1.
         -1    1    6    6    0  502 -0.46371237166E+03  0.27116611424E+03  0.42270874648E+02  0.53883861405E+03  0.00000000000E+00 0.  1.
<mgrwt>
<rscale>  0 0.16370830E+04</rscale>
<asrwt>0</asrwt>
<pdfrwt beam="1">  1        1 0.87808658E-01 0.16370830E+04</pdfrwt>
<pdfrwt beam="2">  1       -1 0.18059983E+00 0.16370830E+04</pdfrwt>
<totfact> 0.72529157E+00</totfact>
</mgrwt>
</event>
<event>
12    1  0.1442183E-007  0.1051160E+04  0.7818608E-02  0.9254147E-01
          1   -1    0    0  501    0  0.00000000000E+00  0.00000000000E+00  0.15240791589E+04  0.15240791589E+04  0.00000000000E+00 0. -1.
         -1   -1    0    0    0  501 -0.00000000000E+00 -0.00000000000E+00 -0.18124680711E+03  0.18124680711E+03  0.00000000000E+00 0.  1.
         23    2    1    2    0    0 -0.94013304460E+02  0.24391824543E+02  0.21722885412E+03  0.25502693766E+03  0.91743671998E+02 0.  0.
        254    2    1    2    0    0  0.94013304460E+02 -0.24391824543E+02  0.11256034977E+04  0.14502990283E+04  0.90936822856E+03 0.  0.
        -24    2    4    4    0    0 -0.11802285426E+03  0.34228729297E+03  0.87804044635E+03  0.95334141087E+03  0.82552015139E+02 0.  0.
         24    2    4    4    0    0  0.21203615872E+03 -0.36667911751E+03  0.24756305133E+03  0.49695761747E+03  0.79161236476E+02 0.  0.
         11    1    3    3    0    0  0.94123442113E+01 -0.13371964475E+02  0.65795092407E+02  0.67796724422E+02  0.00000000000E+00 0. -1.
        -11    1    3    3    0    0 -0.10342564867E+03  0.37763789018E+02  0.15143376172E+03  0.18723021324E+03  0.00000000000E+00 0.  1.
          4    1    6    6  502    0  0.21120042142E+03 -0.34307038040E+03  0.21476624806E+03  0.45653854736E+03  0.00000000000E+00 0. -1.
          3    1    5    5  503    0 -0.39719089894E+02  0.23040422403E+03  0.58724518373E+03  0.63207643396E+03  0.00000000000E+00 0. -1.
         -4    1    5    5    0  503 -0.78303764366E+02  0.11188306893E+03  0.29079526262E+03  0.32126497691E+03  0.00000000000E+00 0.  1.
         -3    1    6    6    0  502  0.83573730328E+00 -0.23608737104E+02  0.32796803266E+02  0.40419070115E+02  0.00000000000E+00 0.  1.
<mgrwt>
<rscale>  0 0.10511603E+04</rscale>
<asrwt>0</asrwt>
<pdfrwt beam="1">  1        1 0.23447371E+00 0.10511603E+04</pdfrwt>
<pdfrwt beam="2">  1       -1 0.27884125E-01 0.10511603E+04</pdfrwt>
<totfact> 0.72965459E+01</totfact>
</mgrwt>
</event>
<event>
12    1  0.1442183E-007  0.1703194E+04  0.7818608E-02  0.8759545E-01
          2   -1    0    0  501    0  0.00000000000E+00  0.00000000000E+00  0.31883877663E+04  0.31883877663E+04  0.00000000000E+00 0. -1.
         -2   -1    0    0    0  501 -0.00000000000E+00 -0.00000000000E+00 -0.22745577824E+03  0.22745577824E+03  0.00000000000E+00 0.  1.
         23    2    1    2    0    0 -0.46312031327E+03  0.17113261766E+03  0.35316897675E+03  0.61365033724E+03  0.89842155237E+02 0.  0.
        254    2    1    2    0    0  0.46312031327E+03 -0.17113261766E+03  0.26077630113E+04  0.28021932073E+04  0.89893940311E+03 0.  0.
        -24    2    4    4    0    0  0.71515735459E+03 -0.11054398476E+03  0.21517644508E+04  0.22716376477E+04  0.81100781415E+02 0.  0.
         24    2    4    4    0    0 -0.25203704131E+03 -0.60588632899E+02  0.45599856054E+03  0.53055555953E+03  0.79755011805E+02 0.  0.
         11    1    3    3    0    0 -0.13694788318E+02 -0.49997412150E+01 -0.14980450446E+01  0.14655673927E+02  0.00000000000E+00 0. -1.
        -11    1    3    3    0    0 -0.44942552496E+03  0.17613235888E+03  0.35466702179E+03  0.59899466331E+03  0.00000000000E+00 0.  1.
          4    1    6    6  502    0 -0.52415292217E+02 -0.37674710595E+02  0.68896442594E+02  0.94411156538E+02  0.00000000000E+00 0. -1.
          1    1    5    5  503    0  0.13640535200E+02 -0.13756149339E+02  0.43583195683E+02  0.47694766915E+02  0.00000000000E+00 0. -1.
         -2    1    5    5    0  503  0.70151681939E+03 -0.96787835425E+02  0.21081812551E+04  0.22239428808E+04  0.00000000000E+00 0.  1.
         -3    1    6    6    0  502 -0.19962174910E+03 -0.22913922304E+02  0.38710211794E+03  0.43614440299E+03  0.00000000000E+00 0.  1.
<mgrwt>
<rscale>  0 0.17031937E+04</rscale>
<asrwt>0</asrwt>
<pdfrwt beam="1">  1        2 0.49052116E+00 0.17031937E+04</pdfrwt>
<pdfrwt beam="2">  1       -2 0.34993199E-01 0.17031937E+04</pdfrwt>
<totfact> 0.96831309E+00</totfact>
</mgrwt>
</event>
<event>
12    1  0.1442183E-007  0.1488710E+04  0.7818608E-02  0.8891995E-01
          2   -1    0    0  501    0  0.00000000000E+00  0.00000000000E+00  0.38592249905E+04  0.38592249905E+04  0.00000000000E+00 0. -1.
         -2   -1    0    0    0  501 -0.00000000000E+00 -0.00000000000E+00 -0.14356883101E+03  0.14356883101E+03  0.00000000000E+00 0.  1.
         23    2    1    2    0    0  0.90502883969E+02  0.34021611107E+03  0.38125795671E+03  0.52681436058E+03  0.90763245385E+02 0.  0.
        254    2    1    2    0    0 -0.90502883969E+02 -0.34021611107E+03  0.33343982027E+04  0.34759794609E+04  0.91667009544E+03 0.  0.
        -24    2    4    4    0    0  0.18053283165E+03  0.24594775134E+03  0.14005663653E+04  0.14356096709E+04  0.79414002391E+02 0.  0.
         24    2    4    4    0    0 -0.27103571562E+03 -0.58616386242E+03  0.19338318374E+04  0.20403697900E+04  0.79717449926E+02 0.  0.
         11    1    3    3    0    0  0.79052537421E+02  0.27324190116E+03  0.24862091440E+03  0.37778671139E+03  0.00000000000E+00 0.  1.
        -11    1    3    3    0    0  0.11450346548E+02  0.66974209909E+02  0.13263704232E+03  0.14902764919E+03  0.00000000000E+00 0. -1.
          2    1    6    6  502    0 -0.77542222522E+02 -0.96167963893E+02  0.39392679988E+03  0.41284306609E+03  0.00000000000E+00 0. -1.
          3    1    5    5  503    0  0.29593843454E+02  0.93312870590E+02  0.35598366487E+03  0.36919839794E+03  0.00000000000E+00 0. -1.
         -4    1    5    5    0  503  0.15093898820E+03  0.15263488075E+03  0.10445827004E+04  0.10664112729E+04  0.00000000000E+00 0.  1.
         -1    1    6    6    0  502 -0.19349349310E+03 -0.48999589852E+03  0.15399050376E+04  0.16275267239E+04  0.00000000000E+00 0.  1.
<mgrwt>
<rscale>  0 0.14887101E+04</rscale>
<asrwt>0</asrwt>
<pdfrwt beam="1">  1        2 0.59372684E+00 0.14887101E+04</pdfrwt>
<pdfrwt beam="2">  1       -2 0.22087515E-01 0.14887101E+04</pdfrwt>
<totfact> 0.78322822E+00</totfact>
</mgrwt>
</event>
<event>
12    1  0.1442183E-007  0.1587256E+04  0.7818608E-02  0.8828416E-01
          1   -1    0    0  501    0  0.00000000000E+00  0.00000000000E+00  0.16077206536E+04  0.16077206536E+04  0.00000000000E+00 0. -1.
         -1   -1    0    0    0  501 -0.00000000000E+00 -0.00000000000E+00 -0.39176290748E+03  0.39176290748E+03  0.00000000000E+00 0.  1.
         23    2    1    2    0    0  0.12492414826E+03 -0.19918832554E+03  0.10066941307E+04  0.10384146044E+04  0.97927451959E+02 0.  0.
        254    2    1    2    0    0 -0.12492414826E+03  0.19918832554E+03  0.20926361540E+03  0.96106895673E+03  0.90806401041E+03 0.  0.
        -24    2    4    4    0    0 -0.53386024856E+02 -0.19888135923E+03  0.43711200728E+03  0.48994472650E+03  0.81086777072E+02 0.  0.
         24    2    4    4    0    0 -0.71538123405E+02  0.39806968477E+03 -0.22784839188E+03  0.47112423023E+03  0.80411277789E+02 0.  0.
         11    1    3    3    0    0  0.11224540796E+03 -0.88312398602E+02  0.54087125630E+03  0.55941024950E+03  0.00000000000E+00 0.  1.
        -11    1    3    3    0    0  0.12678740302E+02 -0.11087592694E+03  0.46582287443E+03  0.47900435486E+03  0.00000000000E+00 0. -1.
          4    1    6    6  502    0  0.13731102338E+02  0.20038035198E+02 -0.79858144923E+01  0.25570280779E+02  0.00000000000E+00 0. -1.
          3    1    5    5  503    0 -0.84159899481E+01  0.57599372779E+01  0.10391319422E+02  0.14559714406E+02  0.00000000000E+00 0. -1.
         -4    1    5    5    0  503 -0.44970034908E+02 -0.20464129650E+03  0.42672068786E+03  0.47538501209E+03  0.00000000000E+00 0.  1.
         -3    1    6    6    0  502 -0.85269225743E+02  0.37803164957E+03 -0.21986257739E+03  0.44555394945E+03  0.00000000000E+00 0.  1.
<mgrwt>
<rscale>  0 0.15872559E+04</rscale>
<asrwt>0</asrwt>
<pdfrwt beam="1">  1        1 0.24734164E+00 0.15872559E+04</pdfrwt>
<pdfrwt beam="2">  1       -1 0.60271217E-01 0.15872559E+04</pdfrwt>
<totfact> 0.14779736E+01</totfact>
</mgrwt>
</event>
<event>
12    1  0.1442183E-007  0.1877910E+04  0.7818608E-02  0.8665931E-01
         -1   -1    0    0    0  501 -0.00000000000E+00  0.00000000000E+00  0.71061585077E+03  0.71061585077E+03  0.00000000000E+00 0.  1.
          1   -1    0    0  501    0  0.00000000000E+00 -0.00000000000E+00 -0.12406652019E+04  0.12406652019E+04  0.00000000000E+00 0. -1.
         23    2    1    2    0    0 -0.37784980758E+03 -0.60996195177E+03 -0.23269251338E+03  0.76002823227E+03  0.93129202536E+02 0.  0.
        254    2    1    2    0    0  0.37784980758E+03  0.60996195177E+03 -0.29735683777E+03  0.11912528204E+04  0.90323758419E+03 0.  0.
        -24    2    4    4    0    0  0.58528926171E+03  0.43578455713E+03 -0.45874866156E+03  0.86571635507E+03  0.80887408474E+02 0.  0.
         24    2    4    4    0    0 -0.20743945413E+03  0.17417739464E+03  0.16139182378E+03  0.32553646536E+03  0.80980105950E+02 0.  0.
         11    1    3    3    0    0 -0.65887140513E+02 -0.67617058018E+02 -0.56506716519E+02  0.11002813655E+03  0.00000000000E+00 0. -1.
        -11    1    3    3    0    0 -0.31196266707E+03 -0.54234489375E+03 -0.17618579686E+03  0.65000009572E+03  0.00000000000E+00 0.  1.
          2    1    6    6  502    0 -0.15539032351E+03  0.10448734821E+03  0.14544887894E+03  0.23710574637E+03  0.00000000000E+00 0. -1.
          3    1    5    5  503    0  0.47815656458E+03  0.34878743782E+03 -0.33347903080E+03  0.67933396869E+03  0.00000000000E+00 0. -1.
         -2    1    5    5    0  503  0.10713269712E+03  0.86997119310E+02 -0.12526963076E+03  0.18638238638E+03  0.00000000000E+00 0.  1.
         -1    1    6    6    0  502 -0.52049130618E+02  0.69690046435E+02  0.15942944837E+02  0.88430718985E+02  0.00000000000E+00 0.  1.
<mgrwt>
<rscale>  0 0.18779099E+04</rscale>
<asrwt>0</asrwt>
<pdfrwt beam="1">  1        1 0.19087157E+00 0.18779099E+04</pdfrwt>
<pdfrwt beam="2">  1       -1 0.10932552E+00 0.18779099E+04</pdfrwt>
<totfact> 0.72455240E+00</totfact>
</mgrwt>
</event>
<event>
12    1  0.1442183E-007  0.3104629E+04  0.7818608E-02  0.8214469E-01
         -2   -1    0    0    0  501 -0.00000000000E+00  0.00000000000E+00  0.10955424871E+04  0.10955424871E+04  0.00000000000E+00 0.  1.
          2   -1    0    0  501    0  0.00000000000E+00 -0.00000000000E+00 -0.21995310337E+04  0.21995310337E+04  0.00000000000E+00 0. -1.
         23    2    1    2    0    0  0.70780021891E+03 -0.85223682773E+02  0.79942990692E+03  0.10748522085E+04  0.89302116525E+02 0.  0.
        254    2    1    2    0    0 -0.70780021891E+03  0.85223682773E+02 -0.19034184535E+04  0.22202213123E+04  0.89338493423E+03 0.  0.
        -24    2    4    4    0    0 -0.72052404980E+03  0.37748530037E+03 -0.11735904450E+04  0.14299541538E+04  0.76185897319E+02 0.  0.
         24    2    4    4    0    0  0.12723830888E+02 -0.29226161759E+03 -0.72982800845E+03  0.79026715855E+03  0.79337954126E+02 0.  0.
         13    1    3    3    0    0  0.23654795454E+03 -0.26964594156E+02  0.33204483403E+03  0.40857777221E+03  0.00000000000E+00 0.  1.
        -13    1    3    3    0    0  0.47125226437E+03 -0.58259088617E+02  0.46738507289E+03  0.66627443628E+03  0.00000000000E+00 0. -1.
          2    1    6    6  502    0  0.35224126770E+02 -0.26549600214E+03 -0.65652518791E+03  0.70905161210E+03  0.00000000000E+00 0. -1.
          3    1    5    5  503    0 -0.51760885647E+03  0.24678250204E+03 -0.77693273458E+03  0.96563192039E+03  0.00000000000E+00 0. -1.
         -4    1    5    5    0  503 -0.20291519333E+03  0.13070279833E+03 -0.39665771045E+03  0.46432223340E+03  0.00000000000E+00 0.  1.
         -1    1    6    6    0  502 -0.22500295882E+02 -0.26765615451E+02 -0.73302820537E+02  0.81215546442E+02  0.00000000000E+00 0.  1.
<mgrwt>
<rscale>  0 0.31046286E+04</rscale>
<asrwt>0</asrwt>
<pdfrwt beam="1">  1        2 0.33838939E+00 0.31046286E+04</pdfrwt>
<pdfrwt beam="2">  1       -2 0.16854500E+00 0.31046286E+04</pdfrwt>
<totfact> 0.95724307E-01</totfact>
</mgrwt>
</event>
<event>
12    1  0.1442183E-007  0.1318378E+04  0.7818608E-02  0.9015116E-01
          1   -1    0    0  501    0  0.00000000000E+00  0.00000000000E+00  0.62962967980E+03  0.62962967980E+03  0.00000000000E+00 0. -1.
         -1   -1    0    0    0  501 -0.00000000000E+00 -0.00000000000E+00 -0.69013656061E+03  0.69013656061E+03  0.00000000000E+00 0.  1.
         23    2    1    2    0    0 -0.10745274508E+03 -0.21695269885E+03  0.22350509348E+03  0.34244722917E+03  0.93279215208E+02 0.  0.
        254    2    1    2    0    0  0.10745274508E+03  0.21695269885E+03 -0.28401197429E+03  0.97731901124E+03  0.90325803745E+03 0.  0.
        -24    2    4    4    0    0  0.28884647285E+03  0.50011126889E+03 -0.12192274708E+03  0.59580162742E+03  0.81060821831E+02 0.  0.
         24    2    4    4    0    0 -0.18139372778E+03 -0.28315857004E+03 -0.16208922722E+03  0.38151738382E+03  0.78740944323E+02 0.  0.
         13    1    3    3    0    0  0.17248703164E+01  0.38110187403E+01 -0.49760648214E+01  0.65007893793E+01  0.00000000000E+00 0.  1.
        -13    1    3    3    0    0 -0.10917761539E+03 -0.22076371759E+03  0.22848115830E+03  0.33594643979E+03  0.00000000000E+00 0. -1.
          4    1    6    6  502    0 -0.59762927819E+02 -0.52436324111E+02 -0.66776560929E+02  0.10382814993E+03  0.00000000000E+00 0. -1.
          1    1    5    5  503    0  0.23067808148E+03  0.35643049291E+03 -0.59575379055E+02  0.42872403634E+03  0.00000000000E+00 0. -1.
         -2    1    5    5    0  503  0.58168391375E+02  0.14368077598E+03 -0.62347368023E+02  0.16707759108E+03  0.00000000000E+00 0.  1.
         -3    1    6    6    0  502 -0.12163079996E+03 -0.23072224593E+03 -0.95312666287E+02  0.27768923389E+03  0.00000000000E+00 0.  1.
<mgrwt>
<rscale>  0 0.13183785E+04</rscale>
<asrwt>0</asrwt>
<pdfrwt beam="1">  1        1 0.96866105E-01 0.13183785E+04</pdfrwt>
<pdfrwt beam="2">  1       -1 0.10617486E+00 0.13183785E+04</pdfrwt>
<totfact> 0.25994493E+01</totfact>
</mgrwt>
</event>
<event>
12    1  0.1442183E-007  0.3483834E+04  0.7818608E-02  0.8117632E-01
         -2   -1    0    0    0  501 -0.00000000000E+00  0.00000000000E+00  0.64337859411E+03  0.64337859411E+03  0.00000000000E+00 0. -1.
          2   -1    0    0  501    0  0.00000000000E+00 -0.00000000000E+00 -0.47161578808E+04  0.47161578808E+04  0.00000000000E+00 0.  1.
         23    2    1    2    0    0  0.13610453928E+04 -0.79625249450E+03 -0.24976843929E+04  0.29551934121E+04  0.90984504258E+02 0.  0.
        254    2    1    2    0    0 -0.13610453928E+04  0.79625249450E+03 -0.15750948938E+04  0.24043430629E+04  0.90193073083E+03 0.  0.
        -24    2    4    4    0    0 -0.13994946560E+04  0.50378857375E+03 -0.11546600366E+04  0.18847684879E+04  0.82001425093E+02 0.  0.
         24    2    4    4    0    0  0.38449263214E+02  0.29246392074E+03 -0.42043485722E+03  0.51957457495E+03  0.78605209709E+02 0.  0.
         11    1    3    3    0    0  0.61023221860E+03 -0.37131770303E+03 -0.10501636015E+04  0.12700802286E+04  0.00000000000E+00 0. -1.
        -11    1    3    3    0    0  0.75081317417E+03 -0.42493479146E+03 -0.14475207914E+04  0.16851131835E+04  0.00000000000E+00 0.  1.
          2    1    6    6  502    0 -0.92964461612E+01  0.20830350538E+03 -0.28816107805E+03  0.35568747682E+03  0.00000000000E+00 0. -1.
          3    1    5    5  503    0 -0.35898171216E+03  0.15335598201E+03 -0.33882541636E+03  0.51690288222E+03  0.00000000000E+00 0. -1.
         -4    1    5    5    0  503 -0.10405129438E+04  0.35043259174E+03 -0.81583462023E+03  0.13678656057E+04  0.00000000000E+00 0.  1.
         -1    1    6    6    0  502  0.47745709375E+02  0.84160415363E+02 -0.13227377917E+03  0.16388709813E+03  0.00000000000E+00 0.  1.
<mgrwt>
<rscale>  0 0.34838341E+04</rscale>
<asrwt>0</asrwt>
<pdfrwt beam="1">  1        2 0.72556278E+00 0.34838341E+04</pdfrwt>
<pdfrwt beam="2">  1       -2 0.98981318E-01 0.34838341E+04</pdfrwt>
<totfact> 0.51036740E-02</totfact>
</mgrwt>
</event>
<event>
12    1  0.1442183E-007  0.1826052E+04  0.7818608E-02  0.8692567E-01
          1   -1    0    0  501    0  0.00000000000E+00  0.00000000000E+00  0.14635821859E+04  0.14635821859E+04  0.00000000000E+00 0. -1.
         -1   -1    0    0    0  501 -0.00000000000E+00 -0.00000000000E+00 -0.56957277696E+03  0.56957277696E+03  0.00000000000E+00 0.  1.
         23    2    1    2    0    0 -0.40774419670E+03  0.25455891394E+03 -0.20610273722E+03  0.53096528528E+03  0.91598172874E+02 0.  0.
        254    2    1    2    0    0  0.40774419670E+03 -0.25455891394E+03  0.11001121462E+04  0.15021896776E+04  0.90292387426E+03 0.  0.
        -24    2    4    4    0    0  0.51641630095E+03  0.28833860162E+02  0.10648149008E+04  0.11865296785E+04  0.80651830514E+02 0.  0.
         24    2    4    4    0    0 -0.10867210425E+03 -0.28339277410E+03  0.35297245415E+02  0.31565999907E+03  0.79210156082E+02 0.  0.
         13    1    3    3    0    0  0.17753577741E+01  0.18398069856E+01 -0.11674641012E+02  0.11951319079E+02  0.00000000000E+00 0. -1.
        -13    1    3    3    0    0 -0.40951955447E+03  0.25271910695E+03 -0.19442809620E+03  0.51901396620E+03  0.00000000000E+00 0.  1.
          2    1    6    6  502    0 -0.79880085012E+02 -0.25556605454E+03  0.51139217246E+02  0.27259870828E+03  0.00000000000E+00 0. -1.
          3    1    5    5  503    0  0.26506704710E+03  0.14459670548E+02  0.63754668043E+03  0.69060509066E+03  0.00000000000E+00 0. -1.
         -4    1    5    5    0  503  0.25134925385E+03  0.14374189614E+02  0.42726822034E+03  0.49592458786E+03  0.00000000000E+00 0.  1.
         -1    1    6    6    0  502 -0.28792019235E+02 -0.27826719554E+02 -0.15841971832E+02  0.43061290787E+02  0.00000000000E+00 0.  1.
<mgrwt>
<rscale>  0 0.18260521E+04</rscale>
<asrwt>0</asrwt>
<pdfrwt beam="1">  1        1 0.22516649E+00 0.18260521E+04</pdfrwt>
<pdfrwt beam="2">  1       -1 0.87626582E-01 0.18260521E+04</pdfrwt>
<totfact> 0.83641674E+00</totfact>
</mgrwt>
</event>
<event>
12    1  0.1442183E-007  0.1847924E+04  0.7818608E-02  0.8681221E-01
          1   -1    0    0  501    0  0.00000000000E+00  0.00000000000E+00  0.15993083143E+04  0.15993083143E+04  0.00000000000E+00 0. -1.
         -1   -1    0    0    0  501 -0.00000000000E+00 -0.00000000000E+00 -0.53379702882E+03  0.53379702882E+03  0.00000000000E+00 0.  1.
         23    2    1    2    0    0 -0.64451166010E+03 -0.19193462605E+03  0.18706289571E+03  0.70403866437E+03  0.91889788871E+02 0.  0.
        254    2    1    2    0    0  0.64451166010E+03  0.19193462605E+03  0.87844838973E+03  0.14290666787E+04  0.90461362917E+03 0.  0.
        -24    2    4    4    0    0  0.82463192403E+03  0.10862872058E+03  0.88278073289E+03  0.12152064305E+04  0.74878817493E+02 0.  0.
         24    2    4    4    0    0 -0.18012026393E+03  0.83305905472E+02 -0.43323431644E+01  0.21386024820E+03  0.79588021691E+02 0.  0.
         13    1    3    3    0    0 -0.53987029554E+03 -0.12951925396E+03  0.17226865065E+03  0.58130169547E+03  0.00000000000E+00 0.  1.
        -13    1    3    3    0    0 -0.10464136455E+03 -0.62415372089E+02  0.14794245064E+02  0.12273696890E+03  0.00000000000E+00 0. -1.
          4    1    6    6  502    0 -0.72904950826E+02  0.12182973413E+02  0.31431664117E+02  0.80321268698E+02  0.00000000000E+00 0. -1.
          3    1    5    5  503    0  0.23245991973E+03  0.17697906919E+02  0.20334941559E+03  0.30935709950E+03  0.00000000000E+00 0. -1.
         -4    1    5    5    0  503  0.59217200430E+03  0.90930813659E+02  0.67943131731E+03  0.90584933101E+03  0.00000000000E+00 0.  1.
         -3    1    6    6    0  502 -0.10721531311E+03  0.71122932059E+02 -0.35764007282E+02  0.13353897950E+03  0.00000000000E+00 0.  1.
<mgrwt>
<rscale>  0 0.18479243E+04</rscale>
<asrwt>0</asrwt>
<pdfrwt beam="1">  1        1 0.24604743E+00 0.18479243E+04</pdfrwt>
<pdfrwt beam="2">  1       -1 0.82122620E-01 0.18479243E+04</pdfrwt>
<totfact> 0.77419086E+00</totfact>
</mgrwt>
</event>
<event>
12    1  0.1442183E-007  0.1692063E+04  0.7818608E-02  0.8765904E-01
          2   -1    0    0  501    0  0.00000000000E+00  0.00000000000E+00  0.25557915218E+04  0.25557915218E+04  0.00000000000E+00 0. -1.
         -2   -1    0    0    0  501 -0.00000000000E+00 -0.00000000000E+00 -0.28005764114E+03  0.28005764114E+03  0.00000000000E+00 0.  1.
         23    2    1    2    0    0  0.50246492077E+03 -0.80363780266E+02  0.14183501403E+04  0.15096087614E+04  0.90951405173E+02 0.  0.
        254    2    1    2    0    0 -0.50246492077E+03  0.80363780266E+02  0.85738374028E+03  0.13262404015E+04  0.87457269034E+03 0.  0.
        -24    2    4    4    0    0 -0.62365225893E+03  0.20416086151E+03  0.28007933046E+03  0.71810758447E+03  0.81303592100E+02 0.  0.
         24    2    4    4    0    0  0.12118733816E+03 -0.12379708124E+03  0.57730440982E+03  0.60813281703E+03  0.80827305406E+02 0.  0.
         11    1    3    3    0    0  0.98769798770E+02 -0.44686784319E+02  0.23539389394E+03  0.25915761063E+03  0.00000000000E+00 0.  1.
        -11    1    3    3    0    0  0.40369512200E+03 -0.35676995947E+02  0.11829562464E+04  0.12504511508E+04  0.00000000000E+00 0. -1.
          4    1    6    6  502    0  0.95980240604E+02 -0.12505494458E+03  0.54378544563E+03  0.56617449310E+03  0.00000000000E+00 0. -1.
          1    1    5    5  503    0 -0.49459909139E+03  0.13631337970E+03  0.24292862431E+03  0.56764770342E+03  0.00000000000E+00 0. -1.
         -2    1    5    5    0  503 -0.12905316753E+03  0.67847481805E+02  0.37150706155E+02  0.15045988105E+03  0.00000000000E+00 0.  1.
         -3    1    6    6    0  502  0.25207097554E+02  0.12578633388E+01  0.33518964186E+02  0.41958323934E+02  0.00000000000E+00 0.  1.
<mgrwt>
<rscale>  0 0.16920626E+04</rscale>
<asrwt>0</asrwt>
<pdfrwt beam="1">  1        2 0.39319868E+00 0.16920626E+04</pdfrwt>
<pdfrwt beam="2">  1       -2 0.43085793E-01 0.16920626E+04</pdfrwt>
<totfact> 0.15739405E+01</totfact>
</mgrwt>
</event>
<event>
12    1  0.1442183E-007  0.1326717E+04  0.7818608E-02  0.9008642E-01
         -1   -1    0    0    0  501 -0.00000000000E+00  0.00000000000E+00  0.51056309803E+03  0.51056309803E+03  0.00000000000E+00 0.  1.
          1   -1    0    0  501    0  0.00000000000E+00 -0.00000000000E+00 -0.86188134324E+03  0.86188134324E+03  0.00000000000E+00 0. -1.
         23    2    1    2    0    0 -0.30682830366E+02  0.46627018186E+02 -0.45356451869E+03  0.46616467853E+03  0.92050094985E+02 0.  0.
        254    2    1    2    0    0  0.30682830366E+02 -0.46627018186E+02  0.10224627348E+03  0.90627976275E+03  0.89876203359E+03 0.  0.
        -24    2    4    4    0    0  0.52869106093E+02 -0.46411641358E+03  0.74619643056E+02  0.47954725772E+03  0.78729241900E+02 0.  0.
         24    2    4    4    0    0 -0.22186275727E+02  0.41748939539E+03  0.27626630423E+02  0.42673250502E+03  0.80918317104E+02 0.  0.
         13    1    3    3    0    0 -0.55479006089E+02  0.19926252510E+02 -0.37445283321E+03  0.37906450632E+03  0.00000000000E+00 0. -1.
        -13    1    3    3    0    0  0.24796175723E+02  0.26700765677E+02 -0.79111685482E+02  0.87100172204E+02  0.00000000000E+00 0.  1.
          4    1    6    6  502    0 -0.22906185232E+02  0.18977436430E+03  0.50948849429E+02  0.19782514483E+03  0.00000000000E+00 0. -1.
          3    1    5    5  503    0  0.35026292950E+02 -0.31240422726E+03  0.12405870657E+02  0.31460633819E+03  0.00000000000E+00 0. -1.
         -4    1    5    5    0  503  0.17842813143E+02 -0.15171218632E+03  0.62213772399E+02  0.16494091953E+03  0.00000000000E+00 0.  1.
         -3    1    6    6    0  502  0.71990950464E+00  0.22771503109E+03 -0.23322219006E+02  0.22890736020E+03  0.00000000000E+00 0.  1.
<mgrwt>
<rscale>  0 0.13267175E+04</rscale>
<asrwt>0</asrwt>
<pdfrwt beam="1">  1        1 0.13259713E+00 0.13267175E+04</pdfrwt>
<pdfrwt beam="2">  1       -1 0.78548168E-01 0.13267175E+04</pdfrwt>
<totfact> 0.31136520E+01</totfact>
</mgrwt>
</event>
<event>
12    1  0.1442183E-007  0.1529037E+04  0.7818608E-02  0.8865370E-01
          2   -1    0    0  501    0  0.00000000000E+00  0.00000000000E+00  0.44490255093E+03  0.44490255093E+03  0.00000000000E+00 0. -1.
         -2   -1    0    0    0  501 -0.00000000000E+00 -0.00000000000E+00 -0.13137452143E+04  0.13137452143E+04  0.00000000000E+00 0.  1.
         23    2    1    2    0    0 -0.20017578406E+03 -0.43666817492E+03 -0.14709532619E+03  0.50991683514E+03  0.87342453921E+02 0.  0.
        254    2    1    2    0    0  0.20017578406E+03  0.43666817492E+03 -0.72174733719E+03  0.12487309301E+04  0.89869921419E+03 0.  0.
        -24    2    4    4    0    0 -0.74342991010E+02 -0.24027992571E+03 -0.88551641201E+02  0.27878261217E+03  0.81345120772E+02 0.  0.
         24    2    4    4    0    0  0.27451877507E+03  0.67694810063E+03 -0.63319569599E+03  0.96994831795E+03  0.79016841627E+02 0.  0.
         13    1    3    3    0    0 -0.14331546186E+03 -0.32790572795E+03 -0.14782217470E+03  0.38718585119E+03  0.00000000000E+00 0. -1.
        -13    1    3    3    0    0 -0.56860322203E+02 -0.10876244696E+03  0.72684850473E+00  0.12273098394E+03  0.00000000000E+00 0.  1.
          4    1    6    6  502    0 -0.14326103349E+01  0.43598789431E+02 -0.31520638761E+02  0.53818746549E+02  0.00000000000E+00 0. -1.
          1    1    5    5  503    0  0.14314891604E+02 -0.18025361334E+02  0.16114992324E+01  0.23074373288E+02  0.00000000000E+00 0. -1.
         -2    1    5    5    0  503 -0.88657882614E+02 -0.22225456438E+03 -0.90163140433E+02  0.25570823888E+03  0.00000000000E+00 0.  1.
         -3    1    6    6    0  502  0.27595138540E+03  0.63334931120E+03 -0.60167505723E+03  0.91612957140E+03  0.00000000000E+00 0.  1.
<mgrwt>
<rscale>  0 0.15290371E+04</rscale>
<asrwt>0</asrwt>
<pdfrwt beam="1">  1        2 0.68446547E-01 0.15290371E+04</pdfrwt>
<pdfrwt beam="2">  1       -2 0.20211464E+00 0.15290371E+04</pdfrwt>
<totfact> 0.87423076E+00</totfact>
</mgrwt>
</event>
<event>
12    1  0.1676919E-007  0.3038343E+04  0.7818608E-02  0.8232866E-01
          2   -1    0    0  501    0  0.00000000000E+00  0.00000000000E+00  0.19100394273E+04  0.19100394273E+04  0.00000000000E+00 0.  1.
         -2   -1    0    0    0  501 -0.00000000000E+00 -0.00000000000E+00 -0.12082899244E+04  0.12082899244E+04  0.00000000000E+00 0. -1.
         23    2    1    2    0    0 -0.42899106797E+03  0.48242413003E+03 -0.93691161050E+03  0.11414061161E+04  0.90764410997E+02 0.  0.
        254    2    1    2    0    0  0.42899106797E+03 -0.48242413003E+03  0.16386611134E+04  0.19769232356E+04  0.89791361338E+03 0.  0.
        -24    2    4    4    0    0  0.60198545644E+02  0.10281115560E+03  0.10663341481E+04  0.10758634260E+04  0.78864424502E+02 0.  0.
         24    2    4    4    0    0  0.36879252232E+03 -0.58523528562E+03  0.57232696529E+03  0.90105980952E+03  0.76435339133E+02 0.  0.
         13    1    3    3    0    0 -0.42949773955E+03  0.46814183739E+03 -0.89849479324E+03  0.11004171853E+04  0.00000000000E+00 0. -1.
        -13    1    3    3    0    0  0.50667158295E+00  0.14282292633E+02 -0.38416817263E+02  0.40988930793E+02  0.00000000000E+00 0.  1.
          2    1    6    6  502    0  0.42085674289E+01 -0.25436450269E+02  0.36398205764E+02  0.44604421585E+02  0.00000000000E+00 0. -1.
          3    1    5    5  503    0  0.78914148437E+01  0.25419948624E+02  0.65816636508E+02  0.70994914307E+02  0.00000000000E+00 0. -1.
         -4    1    5    5    0  503  0.52307130800E+02  0.77391206974E+02  0.10005175116E+04  0.10048685117E+04  0.00000000000E+00 0.  1.
         -1    1    6    6    0  502  0.36458395490E+03 -0.55979883535E+03  0.53592875952E+03  0.85645538793E+03  0.00000000000E+00 0.  1.
<mgrwt>
<rscale>  0 0.30383426E+04</rscale>
<asrwt>0</asrwt>
<pdfrwt beam="1">  1        2 0.29385222E+00 0.30383426E+04</pdfrwt>
<pdfrwt beam="2">  1       -2 0.18589076E+00 0.30383426E+04</pdfrwt>
<totfact> 0.10570995E+00</totfact>
</mgrwt>
</event>
<event>
12    1  0.1442183E-007  0.1461372E+04  0.7818608E-02  0.8910554E-01
         -2   -1    0    0    0  501 -0.00000000000E+00  0.00000000000E+00  0.61203787123E+03  0.61203787123E+03  0.00000000000E+00 0. -1.
          2   -1    0    0  501    0  0.00000000000E+00 -0.00000000000E+00 -0.87233524157E+03  0.87233524157E+03  0.00000000000E+00 0.  1.
         23    2    1    2    0    0  0.32267734562E+03 -0.25602774218E+03  0.10288064205E+03  0.43447894373E+03  0.92285707978E+02 0.  0.
        254    2    1    2    0    0 -0.32267734562E+03  0.25602774218E+03 -0.36317801239E+03  0.10498941691E+04  0.89482323585E+03 0.  0.
        -24    2    4    4    0    0 -0.30549126274E+03  0.25309181578E+03  0.22007672252E+03  0.46057010690E+03  0.79439793233E+02 0.  0.
         24    2    4    4    0    0 -0.17186082876E+02  0.29359263916E+01 -0.58325473491E+03  0.58932406216E+03  0.82539586527E+02 0.  0.
         11    1    3    3    0    0  0.47977676534E+02 -0.86329592379E+02  0.32823787529E+02  0.10407716845E+03  0.00000000000E+00 0.  1.
        -11    1    3    3    0    0  0.27469966908E+03 -0.16969814980E+03  0.70056854522E+02  0.33040177527E+03  0.00000000000E+00 0. -1.
          2    1    6    6  502    0 -0.44469281235E+02 -0.15155767248E+02 -0.24313234115E+03  0.24762986405E+03  0.00000000000E+00 0. -1.
          3    1    5    5  503    0 -0.11864211067E+03  0.53247956012E+02  0.56294049695E+02  0.14170502911E+03  0.00000000000E+00 0. -1.
         -4    1    5    5    0  503 -0.18684915207E+03  0.19984385977E+03  0.16378267282E+03  0.31886507779E+03  0.00000000000E+00 0.  1.
         -1    1    6    6    0  502  0.27283198359E+02  0.18091693640E+02 -0.34012239376E+03  0.34169419811E+03  0.00000000000E+00 0.  1.
<mgrwt>
<rscale>  0 0.14613722E+04</rscale>
<asrwt>0</asrwt>
<pdfrwt beam="1">  1        2 0.13420542E+00 0.14613722E+04</pdfrwt>
<pdfrwt beam="2">  1       -2 0.94159672E-01 0.14613722E+04</pdfrwt>
<totfact> 0.28245586E+01</totfact>
</mgrwt>
</event>
<event>
12    1  0.1442183E-007  0.2532042E+04  0.7818608E-02  0.8391659E-01
          2   -1    0    0  501    0  0.00000000000E+00  0.00000000000E+00  0.19035499011E+04  0.19035499011E+04  0.00000000000E+00 0. -1.
         -2   -1    0    0    0  501 -0.00000000000E+00 -0.00000000000E+00 -0.84201032487E+03  0.84201032487E+03  0.00000000000E+00 0.  1.
         23    2    1    2    0    0  0.50792824711E+03 -0.28030315317E+03  0.14752429837E+04  0.15878657459E+04  0.91732241415E+02 0.  0.
        254    2    1    2    0    0 -0.50792824711E+03  0.28030315317E+03 -0.41370340745E+03  0.11576944801E+04  0.91243905989E+03 0.  0.
        -24    2    4    4    0    0 -0.28414052786E+03 -0.41814768223E+02 -0.63302908011E+03  0.69976751820E+03  0.80401796341E+02 0.  0.
         24    2    4    4    0    0 -0.22378771925E+03  0.32211792139E+03  0.21932567266E+03  0.45792696189E+03  0.88048016297E+02 0.  0.
         11    1    3    3    0    0  0.44168136942E+03 -0.21137614570E+03  0.12803563054E+04  0.13707934111E+04  0.00000000000E+00 0. -1.
        -11    1    3    3    0    0  0.66246877689E+02 -0.68927007473E+02  0.19488667830E+03  0.21707233481E+03  0.00000000000E+00 0.  1.
          4    1    6    6  502    0 -0.63970600499E+02  0.13465363260E+03  0.12355808910E+03  0.19362448162E+03  0.00000000000E+00 0. -1.
          1    1    5    5  503    0 -0.13717954775E+03  0.11584001099E+02 -0.23846653721E+03  0.27535196889E+03  0.00000000000E+00 0. -1.
         -2    1    5    5    0  503 -0.14696098011E+03 -0.53398769323E+02 -0.39456254290E+03  0.42441554931E+03  0.00000000000E+00 0.  1.
         -3    1    6    6    0  502 -0.15981711875E+03  0.18746428879E+03  0.95767583553E+02  0.26430248027E+03  0.00000000000E+00 0.  1.
<mgrwt>
<rscale>  0 0.25320416E+04</rscale>
<asrwt>0</asrwt>
<pdfrwt beam="1">  1        2 0.29285383E+00 0.25320416E+04</pdfrwt>
<pdfrwt beam="2">  1       -2 0.12954005E+00 0.25320416E+04</pdfrwt>
<totfact> 0.29467931E+00</totfact>
</mgrwt>
</event>
<event>
12    1  0.1442183E-007  0.1834280E+04  0.7818608E-02  0.8688279E-01
          2   -1    0    0  501    0  0.00000000000E+00  0.00000000000E+00  0.41332155293E+04  0.41332155293E+04  0.00000000000E+00 0. -1.
         -2   -1    0    0    0  501 -0.00000000000E+00 -0.00000000000E+00 -0.20350878410E+03  0.20350878410E+03  0.00000000000E+00 0.  1.
         23    2    1    2    0    0  0.26301586657E+03  0.57683242321E+03  0.84651872540E+03  0.10617677649E+04  0.94041711539E+02 0.  0.
        254    2    1    2    0    0 -0.26301586657E+03 -0.57683242321E+03  0.30831880198E+04  0.32749565485E+04  0.90409017185E+03 0.  0.
        -24    2    4    4    0    0 -0.53866405009E+03 -0.33990048561E+03  0.12597939354E+04  0.14139544086E+04  0.80591631332E+02 0.  0.
         24    2    4    4    0    0  0.27564818353E+03 -0.23693193760E+03  0.18233940844E+04  0.18610021399E+04  0.80276482070E+02 0.  0.
         13    1    3    3    0    0  0.14449230840E+02  0.11424088648E+03  0.13498244416E+03  0.17742609912E+03  0.00000000000E+00 0. -1.
        -13    1    3    3    0    0  0.24856663573E+03  0.46259153673E+03  0.71153628124E+03  0.88434166575E+03  0.00000000000E+00 0.  1.
          4    1    6    6  502    0  0.61599408601E+02 -0.21289790097E+02  0.23841019238E+03  0.24715817230E+03  0.00000000000E+00 0. -1.
          3    1    5    5  503    0 -0.45130275218E+03 -0.28029883924E+03  0.11100461462E+04  0.12306275067E+04  0.00000000000E+00 0. -1.
         -4    1    5    5    0  503 -0.87361297914E+02 -0.59601646369E+02  0.14974778916E+03  0.18332690196E+03  0.00000000000E+00 0.  1.
         -3    1    6    6    0  502  0.21404877492E+03 -0.21564214750E+03  0.15849838920E+04  0.16138439676E+04  0.00000000000E+00 0.  1.
<mgrwt>
<rscale>  0 0.18342799E+04</rscale>
<asrwt>0</asrwt>
<pdfrwt beam="1">  1        2 0.63587925E+00 0.18342799E+04</pdfrwt>
<pdfrwt beam="2">  1       -2 0.31309047E-01 0.18342799E+04</pdfrwt>
<totfact> 0.24019340E+00</totfact>
</mgrwt>
</event>
<event>
12    1  0.1442183E-007  0.1325631E+04  0.7818608E-02  0.9009483E-01
          2   -1    0    0  501    0  0.00000000000E+00  0.00000000000E+00  0.18733763288E+04  0.18733763288E+04  0.00000000000E+00 0. -1.
         -2   -1    0    0    0  501 -0.00000000000E+00 -0.00000000000E+00 -0.23450939879E+03  0.23450939879E+03  0.00000000000E+00 0.  1.
         23    2    1    2    0    0 -0.66130721842E+02  0.30247063498E+03  0.69111209270E+03  0.76301408693E+03  0.93235265715E+02 0.  0.
        254    2    1    2    0    0  0.66130721842E+02 -0.30247063498E+03  0.94775483732E+03  0.13448716407E+04  0.90254016025E+03 0.  0.
        -24    2    4    4    0    0  0.32035712186E+03 -0.45276305685E+03  0.85951215939E+03  0.10261289338E+04  0.80971387062E+02 0.  0.
         24    2    4    4    0    0 -0.25422640002E+03  0.15029242187E+03  0.88242677927E+02  0.31874270685E+03  0.81186627133E+02 0.  0.
         13    1    3    3    0    0  0.80020711749E+01 -0.18500110773E+01  0.35301662097E+02  0.36244489662E+02  0.00000000000E+00 0. -1.
        -13    1    3    3    0    0 -0.74132793016E+02  0.30432064606E+03  0.65581043060E+03  0.72676959726E+03  0.00000000000E+00 0.  1.
          2    1    6    6  502    0 -0.54405266449E+02  0.20961655556E+02 -0.13565089091E+02  0.59860969446E+02  0.00000000000E+00 0. -1.
          3    1    5    5  503    0  0.84559526256E+01 -0.27532484216E+01  0.36910463020E+02  0.37966640516E+02  0.00000000000E+00 0. -1.
         -4    1    5    5    0  503  0.31190116924E+03 -0.45000980843E+03  0.82260169637E+03  0.98816229332E+03  0.00000000000E+00 0.  1.
         -3    1    6    6    0  502 -0.19982113357E+03  0.12933076631E+03  0.10180776702E+03  0.25888173741E+03  0.00000000000E+00 0.  1.
<mgrwt>
<rscale>  0 0.13256310E+04</rscale>
<asrwt>0</asrwt>
<pdfrwt beam="1">  1        2 0.28821173E+00 0.13256310E+04</pdfrwt>
<pdfrwt beam="2">  1       -2 0.36078370E-01 0.13256310E+04</pdfrwt>
<totfact> 0.55571035E+01</totfact>
</mgrwt>
</event>
<event>
12    1  0.1442183E-007  0.2283163E+04  0.7818608E-02  0.8484589E-01
         -2   -1    0    0    0  501 -0.00000000000E+00  0.00000000000E+00  0.90300238806E+03  0.90300238806E+03  0.00000000000E+00 0.  1.
          2   -1    0    0  501    0  0.00000000000E+00 -0.00000000000E+00 -0.14431945337E+04  0.14431945337E+04  0.00000000000E+00 0. -1.
         23    2    1    2    0    0  0.88478004416E+03 -0.20204918795E+01 -0.60548404115E+03  0.10760495774E+04  0.91825704644E+02 0.  0.
        254    2    1    2    0    0 -0.88478004416E+03  0.20204918795E+01  0.65291895539E+02  0.12701473443E+04  0.90893973162E+03 0.  0.
        -24    2    4    4    0    0 -0.54874892055E+03 -0.30268102172E+03 -0.28326646369E+03  0.69242615304E+03  0.80454392417E+02 0.  0.
         24    2    4    4    0    0 -0.33603112361E+03  0.30470151359E+03  0.34855835923E+03  0.57772119128E+03  0.80677857155E+02 0.  0.
         11    1    3    3    0    0  0.33291456713E+03  0.25682275123E+02 -0.18528735656E+03  0.38186789962E+03  0.00000000000E+00 0. -1.
        -11    1    3    3    0    0  0.55186547703E+03 -0.27702767003E+02 -0.42019668459E+03  0.69418167779E+03  0.00000000000E+00 0.  1.
          4    1    6    6  502    0 -0.13576286417E+03  0.99064034309E+02  0.17327351381E+03  0.24138962026E+03  0.00000000000E+00 0. -1.
          1    1    5    5  503    0 -0.35683779823E+03 -0.19815824897E+03 -0.22583005172E+03  0.46647520635E+03  0.00000000000E+00 0. -1.
         -2    1    5    5    0  503 -0.19191112232E+03 -0.10452277274E+03 -0.57436411971E+02  0.22595094669E+03  0.00000000000E+00 0.  1.
         -3    1    6    6    0  502 -0.20026825944E+03  0.20563747929E+03  0.17528484542E+03  0.33633157102E+03  0.00000000000E+00 0.  1.
<mgrwt>
<rscale>  0 0.22831628E+04</rscale>
<asrwt>0</asrwt>
<pdfrwt beam="1">  1        2 0.22202993E+00 0.22831628E+04</pdfrwt>
<pdfrwt beam="2">  1       -2 0.13892344E+00 0.22831628E+04</pdfrwt>
<totfact> 0.45489436E+00</totfact>
</mgrwt>
</event>
<event>
12    1  0.1442183E-007  0.1478168E+04  0.7818608E-02  0.8899102E-01
         -1   -1    0    0    0  501 -0.00000000000E+00  0.00000000000E+00  0.26178829831E+03  0.26178829831E+03  0.00000000000E+00 0.  1.
          1   -1    0    0  501    0  0.00000000000E+00 -0.00000000000E+00 -0.20865907296E+04  0.20865907296E+04  0.00000000000E+00 0. -1.
         23    2    1    2    0    0 -0.13746151181E+03  0.35201115487E+03 -0.99696521681E+03  0.10704244820E+04  0.95191427021E+02 0.  0.
        254    2    1    2    0    0  0.13746151181E+03 -0.35201115487E+03 -0.82783721449E+03  0.12779545459E+04  0.89724347161E+03 0.  0.
        -24    2    4    4    0    0  0.50906821796E+03 -0.12329401389E+03 -0.45759019275E+03  0.70029429201E+03  0.81678923392E+02 0.  0.
         24    2    4    4    0    0 -0.37160670615E+03 -0.22871714098E+03 -0.37024702174E+03  0.57766025391E+03  0.78774597473E+02 0.  0.
         13    1    3    3    0    0 -0.18007504972E+02  0.17935822144E+02 -0.24668398813E+02  0.35418834697E+02  0.00000000000E+00 0.  1.
        -13    1    3    3    0    0 -0.11945400684E+03  0.33407533272E+03 -0.97229681799E+03  0.10350056473E+04  0.00000000000E+00 0. -1.
          4    1    6    6  502    0 -0.17575558357E+03 -0.83798005190E+02 -0.20816399828E+03  0.28503399975E+03  0.00000000000E+00 0. -1.
          3    1    5    5  503    0  0.22795854333E+03 -0.94495597907E+02 -0.19457249179E+03  0.31424985293E+03  0.00000000000E+00 0. -1.
         -4    1    5    5    0  503  0.28110967463E+03 -0.28798415983E+02 -0.26301770095E+03  0.38604443908E+03  0.00000000000E+00 0.  1.
         -3    1    6    6    0  502 -0.19585112257E+03 -0.14491913579E+03 -0.16208302346E+03  0.29262625416E+03  0.00000000000E+00 0.  1.
<mgrwt>
<rscale>  0 0.14781678E+04</rscale>
<asrwt>0</asrwt>
<pdfrwt beam="1">  1        1 0.32101397E+00 0.14781678E+04</pdfrwt>
<pdfrwt beam="2">  1       -1 0.40275121E-01 0.14781678E+04</pdfrwt>
<totfact> 0.15183696E+01</totfact>
</mgrwt>
</event>
<event>
12    1  0.1442183E-007  0.1690953E+04  0.7818608E-02  0.8766541E-01
          1   -1    0    0  501    0  0.00000000000E+00  0.00000000000E+00  0.14593818260E+04  0.14593818260E+04  0.00000000000E+00 0. -1.
         -1   -1    0    0    0  501 -0.00000000000E+00 -0.00000000000E+00 -0.48981707120E+03  0.48981707120E+03  0.00000000000E+00 0.  1.
         23    2    1    2    0    0  0.56043019775E+03 -0.22324783407E+03  0.27030841029E+03  0.66633787426E+03  0.83773050751E+02 0.  0.
        254    2    1    2    0    0 -0.56043019775E+03  0.22324783407E+03  0.69925634448E+03  0.12828610229E+04  0.89042201614E+03 0.  0.
        -24    2    4    4    0    0 -0.77138553488E+03  0.57038207641E+02  0.61118860561E+03  0.98918381419E+03  0.81511386123E+02 0.  0.
         24    2    4    4    0    0  0.21095533713E+03  0.16620962643E+03  0.88067738869E+02  0.29367720871E+03  0.79765795329E+02 0.  0.
         11    1    3    3    0    0  0.52696990977E+03 -0.22632048450E+03  0.24231252579E+03  0.62260228691E+03  0.00000000000E+00 0.  1.
        -11    1    3    3    0    0  0.33460287978E+02  0.30726504264E+01  0.27995884494E+02  0.43735587350E+02  0.00000000000E+00 0. -1.
          2    1    6    6  502    0  0.16218588597E+03  0.79394420759E+02  0.55611731959E+02  0.18894549581E+03  0.00000000000E+00 0. -1.
          1    1    5    5  503    0 -0.67607629582E+03  0.22683241991E+02  0.53285503421E+03  0.86112030212E+03  0.00000000000E+00 0. -1.
         -2    1    5    5    0  503 -0.95309239062E+02  0.34354965650E+02  0.78333571401E+02  0.12806351207E+03  0.00000000000E+00 0.  1.
         -1    1    6    6    0  502  0.48769451160E+02  0.86815205674E+02  0.32456006910E+02  0.10473171290E+03  0.00000000000E+00 0.  1.
<mgrwt>
<rscale>  0 0.16909526E+04</rscale>
<asrwt>0</asrwt>
<pdfrwt beam="1">  1        1 0.22452028E+00 0.16909526E+04</pdfrwt>
<pdfrwt beam="2">  1       -1 0.75356473E-01 0.16909526E+04</pdfrwt>
<totfact> 0.11769173E+01</totfact>
</mgrwt>
</event>
<event>
12    1  0.1442183E-007  0.2057345E+04  0.7818608E-02  0.8580270E-01
         -2   -1    0    0    0  501 -0.00000000000E+00  0.00000000000E+00  0.18740681605E+04  0.18740681605E+04  0.00000000000E+00 0.  1.
          2   -1    0    0  501    0  0.00000000000E+00 -0.00000000000E+00 -0.56463626803E+03  0.56463626803E+03  0.00000000000E+00 0. -1.
         23    2    1    2    0    0 -0.31227176882E+03  0.68694321951E+03  0.94024832622E+03  0.12085064203E+04  0.83762811016E+02 0.  0.
        254    2    1    2    0    0  0.31227176882E+03 -0.68694321951E+03  0.36918356621E+03  0.12301980082E+04  0.89871351908E+03 0.  0.
        -24    2    4    4    0    0  0.49026689221E+03 -0.56292259546E+03 -0.49120367671E+02  0.75239050544E+03  0.80219624081E+02 0.  0.
         24    2    4    4    0    0 -0.17799512339E+03 -0.12402062405E+03  0.41830393388E+03  0.47780750275E+03  0.79110362439E+02 0.  0.
         11    1    3    3    0    0 -0.14168290289E+03  0.30695646864E+03  0.48808148467E+03  0.59373382445E+03  0.00000000000E+00 0. -1.
        -11    1    3    3    0    0 -0.17058886594E+03  0.37998675087E+03  0.45216684155E+03  0.61477259586E+03  0.00000000000E+00 0.  1.
          2    1    6    6  502    0 -0.14550843591E+03 -0.10333108907E+03  0.39327463004E+03  0.43187377036E+03  0.00000000000E+00 0. -1.
          3    1    5    5  503    0  0.26470056036E+03 -0.32322694506E+03  0.10394175147E+02  0.41791157383E+03  0.00000000000E+00 0. -1.
         -4    1    5    5    0  503  0.22556633185E+03 -0.23969565040E+03 -0.59514542818E+02  0.33447893161E+03  0.00000000000E+00 0.  1.
         -1    1    6    6    0  502 -0.32486687473E+02 -0.20689534985E+02  0.25029303842E+02  0.45933732394E+02  0.00000000000E+00 0.  1.
<mgrwt>
<rscale>  0 0.20573447E+04</rscale>
<asrwt>0</asrwt>
<pdfrwt beam="1">  1        2 0.86867119E-01 0.20573447E+04</pdfrwt>
<pdfrwt beam="2">  1       -2 0.28831818E+00 0.20573447E+04</pdfrwt>
<totfact> 0.18497185E+00</totfact>
</mgrwt>
</event>
<event>
12    1  0.1442183E-007  0.1395195E+04  0.7818608E-02  0.8957304E-01
          2   -1    0    0  501    0  0.00000000000E+00  0.00000000000E+00  0.26344501460E+04  0.26344501460E+04  0.00000000000E+00 0. -1.
         -2   -1    0    0    0  501 -0.00000000000E+00 -0.00000000000E+00 -0.18472244182E+03  0.18472244182E+03  0.00000000000E+00 0.  1.
         23    2    1    2    0    0  0.24147415356E+03  0.27842999319E+03  0.39880510566E+03  0.54962747436E+03  0.84922437094E+02 0.  0.
        254    2    1    2    0    0 -0.24147415356E+03 -0.27842999319E+03  0.20509225986E+04  0.22695451135E+04  0.89928776763E+03 0.  0.
        -24    2    4    4    0    0 -0.35164415382E+03 -0.18252924278E+03  0.28106026502E+03  0.49181511491E+03  0.76920083799E+02 0.  0.
         24    2    4    4    0    0  0.11017000026E+03 -0.95900750405E+02  0.17698623335E+04  0.17777299986E+04  0.81097998330E+02 0.  0.
         13    1    3    3    0    0  0.19817679256E+03  0.22262345438E+03  0.36525812024E+03  0.47143264413E+03  0.00000000000E+00 0.  1.
        -13    1    3    3    0    0  0.43297361005E+02  0.55806538806E+02  0.33546985418E+02  0.78194830226E+02  0.00000000000E+00 0. -1.
          2    1    6    6  502    0  0.69341362285E+02 -0.36268889450E+02  0.52809220967E+03  0.53385863183E+03  0.00000000000E+00 0. -1.
          1    1    5    5  503    0 -0.18138294724E+03 -0.10511116344E+03  0.19353225092E+03  0.28531186862E+03  0.00000000000E+00 0. -1.
         -2    1    5    5    0  503 -0.17026120658E+03 -0.77418079340E+02  0.87528014104E+02  0.20650324629E+03  0.00000000000E+00 0.  1.
         -3    1    6    6    0  502  0.40828637977E+02 -0.59631860955E+02  0.12417701239E+04  0.12438713668E+04  0.00000000000E+00 0.  1.
<mgrwt>
<rscale>  0 0.13951947E+04</rscale>
<asrwt>0</asrwt>
<pdfrwt beam="1">  1        2 0.40530000E+00 0.13951947E+04</pdfrwt>
<pdfrwt beam="2">  1       -2 0.28418839E-01 0.13951947E+04</pdfrwt>
<totfact> 0.32229685E+01</totfact>
</mgrwt>
</event>
<event>
12    1  0.1442183E-007  0.1388626E+04  0.7818608E-02  0.8962093E-01
          1   -1    0    0  501    0  0.00000000000E+00  0.00000000000E+00  0.46748321227E+03  0.46748321227E+03  0.00000000000E+00 0. -1.
         -1   -1    0    0    0  501 -0.00000000000E+00 -0.00000000000E+00 -0.10312039093E+04  0.10312039093E+04  0.00000000000E+00 0.  1.
         23    2    1    2    0    0 -0.21856241635E+03 -0.30560311309E+03 -0.11580379769E+03  0.40405687342E+03  0.93212900518E+02 0.  0.
        254    2    1    2    0    0  0.21856241635E+03  0.30560311309E+03 -0.44791689937E+03  0.10946302482E+04  0.92543127184E+03 0.  0.
        -24    2    4    4    0    0 -0.14092482867E+03  0.53849309319E+03 -0.23341585047E+03  0.60894669647E+03  0.80613281430E+02 0.  0.
         24    2    4    4    0    0  0.35948724502E+03 -0.23288998009E+03 -0.21450104890E+03  0.48568355171E+03  0.80056169395E+02 0.  0.
         11    1    3    3    0    0 -0.99560813780E+02 -0.15464995545E+03 -0.89726961678E+01  0.18414525147E+03  0.00000000000E+00 0. -1.
        -11    1    3    3    0    0 -0.11900160257E+03 -0.15095315764E+03 -0.10683110152E+03  0.21991162195E+03  0.00000000000E+00 0.  1.
          2    1    6    6  502    0  0.41971540268E+02 -0.54499075043E+02 -0.55081251158E+02  0.88123229640E+02  0.00000000000E+00 0. -1.
          3    1    5    5  503    0 -0.88905084985E+02  0.30733840032E+03 -0.91522099486E+02  0.33277214598E+03  0.00000000000E+00 0. -1.
         -2    1    5    5    0  503 -0.52019743683E+02  0.23115469286E+03 -0.14189375098E+03  0.27617455048E+03  0.00000000000E+00 0.  1.
         -1    1    6    6    0  502  0.31751570475E+03 -0.17839090505E+03 -0.15941979774E+03  0.39756032207E+03  0.00000000000E+00 0.  1.
<mgrwt>
<rscale>  0 0.13886260E+04</rscale>
<asrwt>0</asrwt>
<pdfrwt beam="1">  1        1 0.71920496E-01 0.13886260E+04</pdfrwt>
<pdfrwt beam="2">  1       -1 0.15864675E+00 0.13886260E+04</pdfrwt>
<totfact> 0.14197244E+01</totfact>
</mgrwt>
</event>
<event>
12    1  0.1442183E-007  0.1322179E+04  0.7818608E-02  0.9012160E-01
         -2   -1    0    0    0  501 -0.00000000000E+00  0.00000000000E+00  0.20062876388E+03  0.20062876388E+03  0.00000000000E+00 0.  1.
          2   -1    0    0  501    0  0.00000000000E+00 -0.00000000000E+00 -0.21783480928E+04  0.21783480928E+04  0.00000000000E+00 0. -1.
         23    2    1    2    0    0  0.10622663816E+03  0.24191363857E+03 -0.11118697349E+03  0.30079347415E+03  0.91147483970E+02 0.  0.
        254    2    1    2    0    0 -0.10622663816E+03 -0.24191363857E+03 -0.18665323554E+04  0.20781833825E+04  0.87469813669E+03 0.  0.
        -24    2    4    4    0    0  0.24482435155E+03  0.14305864450E+03 -0.27840333097E+03  0.40502379955E+03  0.78301498275E+02 0.  0.
         24    2    4    4    0    0 -0.35105098971E+03 -0.38497228306E+03 -0.15881290244E+04  0.16731595829E+04  0.76607673523E+02 0.  0.
         13    1    3    3    0    0  0.12179584133E+03  0.21539259017E+03 -0.10762081785E+03  0.26983408847E+03  0.00000000000E+00 0.  1.
        -13    1    3    3    0    0 -0.15569203165E+02  0.26521048400E+02 -0.35661556327E+01  0.30959385676E+02  0.00000000000E+00 0. -1.
          2    1    6    6  502    0 -0.32413353335E+03 -0.34843952969E+03 -0.13682805197E+04  0.14486767182E+04  0.00000000000E+00 0. -1.
          3    1    5    5  503    0  0.20320475303E+03  0.12138451134E+03 -0.18472349512E+03  0.30024846528E+03  0.00000000000E+00 0. -1.
         -4    1    5    5    0  503  0.41619598515E+02  0.21674133151E+02 -0.93679835848E+02  0.10477533428E+03  0.00000000000E+00 0.  1.
         -1    1    6    6    0  502 -0.26917456361E+02 -0.36532753376E+02 -0.21984850470E+03  0.22448286470E+03  0.00000000000E+00 0.  1.
<mgrwt>
<rscale>  0 0.13221789E+04</rscale>
<asrwt>0</asrwt>
<pdfrwt beam="1">  1        2 0.33513047E+00 0.13221789E+04</pdfrwt>
<pdfrwt beam="2">  1       -2 0.30865964E-01 0.13221789E+04</pdfrwt>
<totfact> 0.50623951E+01</totfact>
</mgrwt>
</event>
<event>
12    1  0.1442183E-007  0.1833292E+04  0.7818608E-02  0.8688793E-01
         -2   -1    0    0    0  501 -0.00000000000E+00  0.00000000000E+00  0.48813031041E+03  0.48813031041E+03  0.00000000000E+00 0.  1.
          2   -1    0    0  501    0  0.00000000000E+00 -0.00000000000E+00 -0.17213427394E+04  0.17213427394E+04  0.00000000000E+00 0. -1.
         23    2    1    2    0    0 -0.27063443733E+03  0.16768747648E+03 -0.12283938643E+04  0.12722542763E+04  0.91199612222E+02 0.  0.
        254    2    1    2    0    0  0.27063443733E+03 -0.16768747648E+03 -0.48185647870E+01  0.93721877361E+03  0.88147247410E+03 0.  0.
        -24    2    4    4    0    0 -0.22099575634E+03  0.20501761320E+03 -0.36508409866E+02  0.31425328948E+03  0.80937753321E+02 0.  0.
         24    2    4    4    0    0  0.49163019367E+03 -0.37270508969E+03  0.31689845079E+02  0.62296548413E+03  0.80451332680E+02 0.  0.
         13    1    3    3    0    0 -0.20260096271E+03  0.76530363211E+02 -0.84793704417E+03  0.87515785859E+03  0.00000000000E+00 0. -1.
        -13    1    3    3    0    0 -0.68033474627E+02  0.91157113273E+02 -0.38045682008E+03  0.39709641766E+03  0.00000000000E+00 0.  1.
          4    1    6    6  502    0  0.12571397402E+03 -0.53684455932E+02  0.59546880410E+01  0.13682646814E+03  0.00000000000E+00 0. -1.
          1    1    5    5  503    0 -0.39303448610E+02  0.13391811466E+02  0.16912939196E+02  0.44834687455E+02  0.00000000000E+00 0. -1.
         -2    1    5    5    0  503 -0.18169230773E+03  0.19162580174E+03 -0.53421349062E+02  0.26941860202E+03  0.00000000000E+00 0.  1.
         -3    1    6    6    0  502  0.36591621965E+03 -0.31902063376E+03  0.25735157038E+02  0.48613901599E+03  0.00000000000E+00 0.  1.
<mgrwt>
<rscale>  0 0.18332916E+04</rscale>
<asrwt>0</asrwt>
<pdfrwt beam="1">  1        2 0.26482196E+00 0.18332916E+04</pdfrwt>
<pdfrwt beam="2">  1       -2 0.75096971E-01 0.18332916E+04</pdfrwt>
<totfact> 0.14304391E+01</totfact>
</mgrwt>
</event>
<event>
12    1  0.1442183E-007  0.1386126E+04  0.7818608E-02  0.8963923E-01
         -2   -1    0    0    0  501 -0.00000000000E+00  0.00000000000E+00  0.28416662203E+03  0.28416662203E+03  0.00000000000E+00 0.  1.
          2   -1    0    0  501    0  0.00000000000E+00 -0.00000000000E+00 -0.16903340495E+04  0.16903340495E+04  0.00000000000E+00 0. -1.
         23    2    1    2    0    0 -0.28559004124E+03  0.21312034715E+03 -0.14476287284E+03  0.39534311870E+03  0.91421759588E+02 0.  0.
        254    2    1    2    0    0  0.28559004124E+03 -0.21312034715E+03 -0.12614045546E+04  0.15791575528E+04  0.88069016807E+03 0.  0.
        -24    2    4    4    0    0 -0.20032490053E+03 -0.70078584259E+02 -0.10141489155E+02  0.22709557959E+03  0.80177794451E+02 0.  0.
         24    2    4    4    0    0  0.48591494177E+03 -0.14304176289E+03 -0.12512630654E+04  0.13520619732E+04  0.76407093077E+02 0.  0.
         13    1    3    3    0    0 -0.12914288119E+03  0.41782548038E+02 -0.58591261955E+02  0.14783978172E+03  0.00000000000E+00 0. -1.
        -13    1    3    3    0    0 -0.15644716005E+03  0.17133779911E+03 -0.86171610886E+02  0.24750333698E+03  0.00000000000E+00 0.  1.
          4    1    6    6  502    0  0.47772550646E+03 -0.14096948098E+03 -0.12465720581E+04  0.13423993259E+04  0.00000000000E+00 0. -1.
          3    1    5    5  503    0 -0.14385761720E+03 -0.86500748984E+02 -0.11696132506E+02  0.16826821779E+03  0.00000000000E+00 0. -1.
         -4    1    5    5    0  503 -0.56467283324E+02  0.16422164726E+02  0.15546433510E+01  0.58827361799E+02  0.00000000000E+00 0.  1.
         -3    1    6    6    0  502  0.81894353045E+01 -0.20722819139E+01 -0.46910072964E+01  0.96626472766E+01  0.00000000000E+00 0.  1.
<mgrwt>
<rscale>  0 0.13861263E+04</rscale>
<asrwt>0</asrwt>
<pdfrwt beam="1">  1        2 0.26005140E+00 0.13861263E+04</pdfrwt>
<pdfrwt beam="2">  1       -2 0.43717941E-01 0.13861263E+04</pdfrwt>
<totfact> 0.47990067E+01</totfact>
</mgrwt>
</event>
<event>
12    1  0.1442183E-007  0.1716535E+04  0.7818608E-02  0.8751990E-01
          2   -1    0    0  501    0  0.00000000000E+00  0.00000000000E+00  0.10648751231E+04  0.10648751231E+04  0.00000000000E+00 0. -1.
         -2   -1    0    0    0  501 -0.00000000000E+00 -0.00000000000E+00 -0.69174618158E+03  0.69174618158E+03  0.00000000000E+00 0.  1.
         23    2    1    2    0    0  0.13808336022E+03  0.10624317214E+03  0.72887082563E+03  0.75498239852E+03  0.91603032848E+02 0.  0.
        254    2    1    2    0    0 -0.13808336022E+03 -0.10624317214E+03 -0.35574188407E+03  0.10016389062E+04  0.91998564354E+03 0.  0.
        -24    2    4    4    0    0  0.24356708262E+03  0.10499960733E+03 -0.46803274100E+03  0.54400396071E+03  0.80844426815E+02 0.  0.
         24    2    4    4    0    0 -0.38165044284E+03 -0.21124277946E+03  0.11229085692E+03  0.45763494549E+03  0.80869860799E+02 0.  0.
         11    1    3    3    0    0 -0.91172403696E+01  0.15542705915E+02  0.29602662016E+02  0.34655697620E+02  0.00000000000E+00 0.  1.
        -11    1    3    3    0    0  0.14720060059E+03  0.90700466222E+02  0.69926816362E+03  0.72032670090E+03  0.00000000000E+00 0. -1.
          2    1    6    6  502    0 -0.12403595474E+03 -0.28480478632E+02  0.22268792962E+02  0.12919734854E+03  0.00000000000E+00 0. -1.
          3    1    5    5  503    0  0.24716562558E+03  0.10523822863E+03 -0.46880247287E+03  0.54031628682E+03  0.00000000000E+00 0. -1.
         -4    1    5    5    0  503 -0.35985429544E+01 -0.23862130772E+00  0.76973187883E+00  0.36876738858E+01  0.00000000000E+00 0.  1.
         -1    1    6    6    0  502 -0.25761448811E+03 -0.18276230083E+03  0.90022063959E+02  0.32843759695E+03  0.00000000000E+00 0.  1.
<mgrwt>
<rscale>  0 0.17165352E+04</rscale>
<asrwt>0</asrwt>
<pdfrwt beam="1">  1        2 0.16382694E+00 0.17165352E+04</pdfrwt>
<pdfrwt beam="2">  1       -2 0.10642249E+00 0.17165352E+04</pdfrwt>
<totfact> 0.15496966E+01</totfact>
</mgrwt>
</event>
<event>
12    1  0.1442183E-007  0.2332331E+04  0.7818608E-02  0.8465281E-01
          1   -1    0    0  501    0  0.00000000000E+00  0.00000000000E+00  0.91488024793E+03  0.91488024793E+03  0.00000000000E+00 0. -1.
         -1   -1    0    0    0  501 -0.00000000000E+00 -0.00000000000E+00 -0.14864700988E+04  0.14864700988E+04  0.00000000000E+00 0.  1.
         23    2    1    2    0    0  0.24936442293E+03 -0.18898326371E+02 -0.12286607303E+04  0.12574078752E+04  0.94486042059E+02 0.  0.
        254    2    1    2    0    0 -0.24936442293E+03  0.18898326371E+02  0.65707087949E+03  0.11439424715E+04  0.90239818002E+03 0.  0.
        -24    2    4    4    0    0 -0.32760853041E+03 -0.16565158730E+03  0.80073911374E+03  0.88450614037E+03  0.80001165696E+02 0.  0.
         24    2    4    4    0    0  0.78244107472E+02  0.18454991367E+03 -0.14366823425E+03  0.25943633114E+03  0.80534696838E+02 0.  0.
         11    1    3    3    0    0 -0.76494167847E+01 -0.51375515628E+01 -0.62966790956E+02  0.63637447910E+02  0.00000000000E+00 0. -1.
        -11    1    3    3    0    0  0.25701383972E+03 -0.13760774808E+02 -0.11656939394E+04  0.11937704273E+04  0.00000000000E+00 0.  1.
          2    1    6    6  502    0  0.12100035283E+01  0.97064563813E+02 -0.84567805127E+02  0.12874279522E+03  0.00000000000E+00 0. -1.
          3    1    5    5  503    0 -0.22091976307E+03 -0.83315731700E+02  0.43876261168E+03  0.49825664298E+03  0.00000000000E+00 0. -1.
         -4    1    5    5    0  503 -0.10668876733E+03 -0.82335855596E+02  0.36197650206E+03  0.38624949739E+03  0.00000000000E+00 0.  1.
         -1    1    6    6    0  502  0.77034103944E+02  0.87485349853E+02 -0.59100429128E+02  0.13069353592E+03  0.00000000000E+00 0.  1.
<mgrwt>
<rscale>  0 0.23323311E+04</rscale>
<asrwt>0</asrwt>
<pdfrwt beam="1">  1        1 0.14075081E+00 0.23323311E+04</pdfrwt>
<pdfrwt beam="2">  1       -1 0.22868771E+00 0.23323311E+04</pdfrwt>
<totfact> 0.15358290E+00</totfact>
</mgrwt>
</event>
<event>
12    1  0.1442183E-007  0.2167197E+04  0.7818608E-02  0.8532207E-01
         -2   -1    0    0    0  501 -0.00000000000E+00  0.00000000000E+00  0.43243487507E+03  0.43243487507E+03  0.00000000000E+00 0.  1.
          2   -1    0    0  501    0  0.00000000000E+00 -0.00000000000E+00 -0.27152879092E+04  0.27152879092E+04  0.00000000000E+00 0. -1.
         23    2    1    2    0    0  0.37179142373E+03  0.17251716140E+03  0.19545179782E+03  0.46309039179E+03  0.90886038340E+02 0.  0.
        254    2    1    2    0    0 -0.37179142373E+03 -0.17251716140E+03 -0.24783048320E+04  0.26846323925E+04  0.94724084000E+03 0.  0.
        -24    2    4    4    0    0 -0.68676186910E+03 -0.14287781254E+03 -0.17141506539E+04  0.18539099893E+04  0.81325582036E+02 0.  0.
         24    2    4    4    0    0  0.31497044537E+03 -0.29639348856E+02 -0.76415417813E+03  0.83072240317E+03  0.77995068618E+02 0.  0.
         11    1    3    3    0    0  0.12791626758E+03  0.56616912715E+02  0.20572145448E+02  0.14139045047E+03  0.00000000000E+00 0. -1.
        -11    1    3    3    0    0  0.24387515615E+03  0.11590024868E+03  0.17487965237E+03  0.32169994132E+03  0.00000000000E+00 0.  1.
          2    1    6    6  502    0  0.28553938718E+00  0.67405889571E+01 -0.59235632942E+01  0.89780662913E+01  0.00000000000E+00 0. -1.
          3    1    5    5  503    0 -0.82458490542E+02 -0.17860916580E+02 -0.28485050623E+03  0.29708286033E+03  0.00000000000E+00 0. -1.
         -4    1    5    5    0  503 -0.60430337856E+03 -0.12501689596E+03 -0.14293001476E+04  0.15568271290E+04  0.00000000000E+00 0.  1.
         -1    1    6    6    0  502  0.31468490598E+03 -0.36379937813E+02 -0.75823061483E+03  0.82174433688E+03  0.00000000000E+00 0.  1.
<mgrwt>
<rscale>  0 0.21671965E+04</rscale>
<asrwt>0</asrwt>
<pdfrwt beam="1">  1        2 0.41773660E+00 0.21671965E+04</pdfrwt>
<pdfrwt beam="2">  1       -2 0.66528443E-01 0.21671965E+04</pdfrwt>
<totfact> 0.49511563E+00</totfact>
</mgrwt>
</event>
<event>
12    1  0.1442183E-007  0.1655840E+04  0.7818608E-02  0.8786959E-01
          1   -1    0    0  501    0  0.00000000000E+00  0.00000000000E+00  0.95551829776E+03  0.95551829776E+03  0.00000000000E+00 0. -1.
         -1   -1    0    0    0  501 -0.00000000000E+00 -0.00000000000E+00 -0.71736128802E+03  0.71736128802E+03  0.00000000000E+00 0.  1.
         23    2    1    2    0    0  0.21850008633E+03  0.41480206909E+03 -0.25842281688E+03  0.54326521837E+03  0.92475407336E+02 0.  0.
        254    2    1    2    0    0 -0.21850008633E+03 -0.41480206909E+03  0.49657982661E+03  0.11296143674E+04  0.89979667181E+03 0.  0.
        -24    2    4    4    0    0  0.14155802238E+03 -0.18934197099E+03  0.62944800923E+03  0.67717477665E+03  0.80447660769E+02 0.  0.
         24    2    4    4    0    0 -0.36005810871E+03 -0.22546009810E+03 -0.13286818262E+03  0.45243959075E+03  0.81077320166E+02 0.  0.
         13    1    3    3    0    0  0.19645238663E+03  0.40966057403E+03 -0.25284887952E+03  0.51994988413E+03  0.00000000000E+00 0.  1.
        -13    1    3    3    0    0  0.22047699696E+02  0.51414950628E+01 -0.55739373560E+01  0.23315334247E+02  0.00000000000E+00 0. -1.
          2    1    6    6  502    0 -0.49882276293E+02 -0.22917055583E+02 -0.46768826187E+02  0.72116267428E+02  0.00000000000E+00 0. -1.
          1    1    5    5  503    0  0.10558255562E+03 -0.79000957013E+02  0.29403691630E+03  0.32225228534E+03  0.00000000000E+00 0. -1.
         -2    1    5    5    0  503  0.35975466766E+02 -0.11034101398E+03  0.33541109294E+03  0.35492249131E+03  0.00000000000E+00 0.  1.
         -1    1    6    6    0  502 -0.31017583242E+03 -0.20254304251E+03 -0.86099356437E+02  0.38032332333E+03  0.00000000000E+00 0.  1.
<mgrwt>
<rscale>  0 0.16558404E+04</rscale>
<asrwt>0</asrwt>
<pdfrwt beam="1">  1        1 0.14700281E+00 0.16558404E+04</pdfrwt>
<pdfrwt beam="2">  1       -1 0.11036328E+00 0.16558404E+04</pdfrwt>
<totfact> 0.11869435E+01</totfact>
</mgrwt>
</event>
<event>
12    1  0.1442183E-007  0.1364011E+04  0.7818608E-02  0.8980290E-01
          2   -1    0    0  501    0  0.00000000000E+00  0.00000000000E+00  0.37337340000E+03  0.37337340000E+03  0.00000000000E+00 0. -1.
         -2   -1    0    0    0  501 -0.00000000000E+00 -0.00000000000E+00 -0.12457533749E+04  0.12457533749E+04  0.00000000000E+00 0.  1.
         23    2    1    2    0    0 -0.34033764064E+03  0.16746586331E+02 -0.52504417075E+02  0.35574299007E+03  0.87670995101E+02 0.  0.
        254    2    1    2    0    0  0.34033764064E+03 -0.16746586331E+02 -0.81987555780E+03  0.12633837848E+04  0.89879502648E+03 0.  0.
        -24    2    4    4    0    0  0.13833987825E+03 -0.12383745815E+03 -0.96174862536E+03  0.98290859267E+03  0.81702173810E+02 0.  0.
         24    2    4    4    0    0  0.20199776239E+03  0.10709087182E+03  0.14187306756E+03  0.28047519213E+03  0.79163219124E+02 0.  0.
         13    1    3    3    0    0 -0.25866986019E+03 -0.14730192706E+02 -0.65549605842E+02  0.26725236383E+03  0.00000000000E+00 0.  1.
        -13    1    3    3    0    0 -0.81667780452E+02  0.31476779037E+02  0.13045188766E+02  0.88490626241E+02  0.00000000000E+00 0. -1.
          4    1    6    6  502    0  0.16753815661E+03  0.10643329252E+03  0.89390345340E+02  0.21768719190E+03  0.00000000000E+00 0. -1.
          3    1    5    5  503    0  0.11589278710E+03 -0.13141579151E+03 -0.76899160553E+03  0.78870104459E+03  0.00000000000E+00 0. -1.
         -4    1    5    5    0  503  0.22447091148E+02  0.75783333586E+01 -0.19275701983E+03  0.19420754808E+03  0.00000000000E+00 0.  1.
         -3    1    6    6    0  502  0.34459605783E+02  0.65757929849E+00  0.52482722219E+02  0.62788000229E+02  0.00000000000E+00 0.  1.
<mgrwt>
<rscale>  0 0.13640105E+04</rscale>
<asrwt>0</asrwt>
<pdfrwt beam="1">  1        2 0.57442062E-01 0.13640105E+04</pdfrwt>
<pdfrwt beam="2">  1       -2 0.19165437E+00 0.13640105E+04</pdfrwt>
<totfact> 0.12656915E+01</totfact>
</mgrwt>
</event>
<event>
12    1  0.1442183E-007  0.3001433E+04  0.7818608E-02  0.8243322E-01
          2   -1    0    0  501    0  0.00000000000E+00  0.00000000000E+00  0.11051007906E+04  0.11051007906E+04  0.00000000000E+00 0. -1.
         -2   -1    0    0    0  501 -0.00000000000E+00 -0.00000000000E+00 -0.20379587058E+04  0.20379587058E+04  0.00000000000E+00 0.  1.
         23    2    1    2    0    0 -0.64327029268E+03  0.38256438248E+03  0.76925836458E+03  0.10770546654E+04  0.90200579947E+02 0.  0.
        254    2    1    2    0    0  0.64327029268E+03 -0.38256438248E+03 -0.17021162798E+04  0.20660048310E+04  0.90056868445E+03 0.  0.
        -24    2    4    4    0    0  0.32424628008E+03  0.56301044541E+02 -0.72401031487E+02  0.34633781525E+03  0.80015718148E+02 0.  0.
         24    2    4    4    0    0  0.31902401261E+03 -0.43886542703E+03 -0.16297152483E+04  0.17196670157E+04  0.83088330680E+02 0.  0.
         11    1    3    3    0    0 -0.51990237624E+03  0.33778620838E+03  0.59906682732E+03  0.86213633898E+03  0.00000000000E+00 0. -1.
        -11    1    3    3    0    0 -0.12336791645E+03  0.44778174103E+02  0.17019153726E+03  0.21491832644E+03  0.00000000000E+00 0.  1.
          2    1    6    6  502    0  0.28358832308E+03 -0.34625519284E+03 -0.12710400761E+04  0.13475377066E+04  0.00000000000E+00 0. -1.
          3    1    5    5  503    0  0.21461726764E+03  0.30991234857E+02 -0.86424337948E+01  0.21701548302E+03  0.00000000000E+00 0. -1.
         -4    1    5    5    0  503  0.10962901244E+03  0.25309809684E+02 -0.63758597692E+02  0.12932233223E+03  0.00000000000E+00 0.  1.
         -1    1    6    6    0  502  0.35435689525E+02 -0.92610234184E+02 -0.35867517219E+03  0.37212930913E+03  0.00000000000E+00 0.  1.
<mgrwt>
<rscale>  0 0.30014328E+04</rscale>
<asrwt>0</asrwt>
<pdfrwt beam="1">  1        2 0.17001551E+00 0.30014328E+04</pdfrwt>
<pdfrwt beam="2">  1       -2 0.31353210E+00 0.30014328E+04</pdfrwt>
<totfact> 0.48586196E-01</totfact>
</mgrwt>
</event>
<event>
12    1  0.1442183E-007  0.1410431E+04  0.7818608E-02  0.8946302E-01
         -1   -1    0    0    0  501 -0.00000000000E+00  0.00000000000E+00  0.12827381971E+04  0.12827381971E+04  0.00000000000E+00 0.  1.
          1   -1    0    0  501    0  0.00000000000E+00 -0.00000000000E+00 -0.38770903757E+03  0.38770903757E+03  0.00000000000E+00 0. -1.
         23    2    1    2    0    0 -0.29852822401E+03 -0.29427765212E+03  0.23052557178E+03  0.48651437019E+03  0.88519806178E+02 0.  0.
        254    2    1    2    0    0  0.29852822401E+03  0.29427765212E+03  0.66450358774E+03  0.11839328645E+04  0.88567125527E+03 0.  0.
        -24    2    4    4    0    0 -0.27055505240E+03  0.29119873389E+03  0.28879985336E+03  0.49757854758E+03  0.78627709613E+02 0.  0.
         24    2    4    4    0    0  0.56908327641E+03  0.30789182383E+01  0.37570373438E+03  0.68635431690E+03  0.77869744269E+02 0.  0.
         13    1    3    3    0    0 -0.28903215047E+03 -0.29605947595E+03  0.21036838309E+03  0.46416123697E+03  0.00000000000E+00 0.  1.
        -13    1    3    3    0    0 -0.94960735404E+01  0.17818238243E+01  0.20157188684E+02  0.22353133214E+02  0.00000000000E+00 0. -1.
          2    1    6    6  502    0  0.36113520805E+03 -0.10713746375E+02  0.19523444999E+03  0.41067007843E+03  0.00000000000E+00 0. -1.
          1    1    5    5  503    0 -0.26343929749E+03  0.25679206039E+03  0.24769212224E+03  0.44350176230E+03  0.00000000000E+00 0. -1.
         -2    1    5    5    0  503 -0.71157549091E+01  0.34406673499E+02  0.41107731120E+02  0.54076785287E+02  0.00000000000E+00 0.  1.
         -1    1    6    6    0  502  0.20794806835E+03  0.13792664613E+02  0.18046928439E+03  0.27568423846E+03  0.00000000000E+00 0.  1.
<mgrwt>
<rscale>  0 0.14104314E+04</rscale>
<asrwt>0</asrwt>
<pdfrwt beam="1">  1        1 0.59647545E-01 0.14104314E+04</pdfrwt>
<pdfrwt beam="2">  1       -1 0.19734434E+00 0.14104314E+04</pdfrwt>
<totfact> 0.95664977E+00</totfact>
</mgrwt>
</event>
<event>
12    1  0.1442183E-007  0.1717084E+04  0.7818608E-02  0.8751680E-01
         -2   -1    0    0    0  501 -0.00000000000E+00  0.00000000000E+00  0.49810035252E+03  0.49810035252E+03  0.00000000000E+00 0.  1.
          2   -1    0    0  501    0  0.00000000000E+00 -0.00000000000E+00 -0.14798110954E+04  0.14798110954E+04  0.00000000000E+00 0. -1.
         23    2    1    2    0    0 -0.27403407314E+03  0.58958655382E+02  0.28100287752E+03  0.40641860302E+03  0.87422350833E+02 0.  0.
        254    2    1    2    0    0  0.27403407314E+03 -0.58958655382E+02 -0.12627136204E+04  0.15714928449E+04  0.89250953951E+03 0.  0.
        -24    2    4    4    0    0  0.39418130253E+03  0.24718718705E+03 -0.31983986050E+03  0.56969648751E+03  0.76000965887E+02 0.  0.
         24    2    4    4    0    0 -0.12014722940E+03 -0.30614584244E+03 -0.94287375988E+03  0.10017963574E+04  0.80152236231E+02 0.  0.
         13    1    3    3    0    0 -0.16913730770E+03  0.33485264093E+02  0.22885540287E+03  0.28653706076E+03  0.00000000000E+00 0.  1.
        -13    1    3    3    0    0 -0.10489676544E+03  0.25473391289E+02  0.52147474653E+02  0.11988154227E+03  0.00000000000E+00 0. -1.
          2    1    6    6  502    0 -0.43755361863E+02 -0.33328942715E+02 -0.14124523616E+03  0.15157693377E+03  0.00000000000E+00 0. -1.
          1    1    5    5  503    0  0.46935287318E+01  0.14131670270E+02 -0.82842071869E+00  0.14913738548E+02  0.00000000000E+00 0. -1.
         -2    1    5    5    0  503  0.38948777380E+03  0.23305551678E+03 -0.31901143978E+03  0.55478274897E+03  0.00000000000E+00 0.  1.
         -1    1    6    6    0  502 -0.76391867532E+02 -0.27281689972E+03 -0.80162852372E+03  0.85021942359E+03  0.00000000000E+00 0.  1.
<mgrwt>
<rscale>  0 0.17170841E+04</rscale>
<asrwt>0</asrwt>
<pdfrwt beam="1">  1        2 0.22766324E+00 0.17170841E+04</pdfrwt>
<pdfrwt beam="2">  1       -2 0.76630825E-01 0.17170841E+04</pdfrwt>
<totfact> 0.18850725E+01</totfact>
</mgrwt>
</event>
<event>
12    1  0.1442183E-007  0.1734498E+04  0.7818608E-02  0.8741930E-01
          1   -1    0    0  501    0  0.00000000000E+00  0.00000000000E+00  0.69057627505E+03  0.69057627505E+03  0.00000000000E+00 0. -1.
         -1   -1    0    0    0  501 -0.00000000000E+00 -0.00000000000E+00 -0.10891207261E+04  0.10891207261E+04  0.00000000000E+00 0.  1.
         23    2    1    2    0    0  0.19014537177E+03  0.52479159287E+03 -0.48515359716E+03  0.74520567729E+03  0.91629745566E+02 0.  0.
        254    2    1    2    0    0 -0.19014537177E+03 -0.52479159287E+03  0.86609146134E+02  0.10344913238E+04  0.86666583903E+03 0.  0.
        -24    2    4    4    0    0 -0.44159277953E+03 -0.29016103183E+03 -0.20985294677E+03  0.57391732822E+03  0.78391536809E+02 0.  0.
         24    2    4    4    0    0  0.25144740776E+03 -0.23463056104E+03  0.29646209290E+03  0.46057399562E+03  0.77209674708E+02 0.  0.
         11    1    3    3    0    0  0.72812002680E+02  0.22490247910E+03 -0.14763732232E+03  0.27871040846E+03  0.00000000000E+00 0. -1.
        -11    1    3    3    0    0  0.11733336909E+03  0.29988911377E+03 -0.33751627484E+03  0.46649526883E+03  0.00000000000E+00 0.  1.
          4    1    6    6  502    0  0.25139634909E+03 -0.23937729957E+03  0.28880055494E+03  0.45156104396E+03  0.00000000000E+00 0. -1.
          3    1    5    5  503    0 -0.36103440617E+03 -0.26355743636E+03 -0.15603914221E+03  0.47345177010E+03  0.00000000000E+00 0. -1.
         -4    1    5    5    0  503 -0.80558373352E+02 -0.26603595464E+02 -0.53813804552E+02  0.10046555812E+03  0.00000000000E+00 0.  1.
         -3    1    6    6    0  502  0.51058667983E-01  0.47467385320E+01  0.76615379611E+01  0.90129516590E+01  0.00000000000E+00 0.  1.
<mgrwt>
<rscale>  0 0.17344981E+04</rscale>
<asrwt>0</asrwt>
<pdfrwt beam="1">  1        1 0.10624250E+00 0.17344981E+04</pdfrwt>
<pdfrwt beam="2">  1       -1 0.16755703E+00 0.17344981E+04</pdfrwt>
<totfact> 0.67685080E+00</totfact>
</mgrwt>
</event>
<event>
12    1  0.1442183E-007  0.1687422E+04  0.7818608E-02  0.8768571E-01
         -2   -1    0    0    0  501 -0.00000000000E+00  0.00000000000E+00  0.19008393654E+04  0.19008393654E+04  0.00000000000E+00 0.  1.
          2   -1    0    0  501    0  0.00000000000E+00 -0.00000000000E+00 -0.37449161197E+03  0.37449161197E+03  0.00000000000E+00 0. -1.
         23    2    1    2    0    0 -0.16402936773E+03 -0.53178242925E+03  0.24351689663E+03  0.61425527977E+03  0.91164051268E+02 0.  0.
        254    2    1    2    0    0  0.16402936773E+03  0.53178242925E+03  0.12828308568E+04  0.16610756976E+04  0.89655969154E+03 0.  0.
        -24    2    4    4    0    0  0.42306208396E+03  0.16977169857E+03  0.23555116827E+03  0.52038530251E+03  0.86674988734E+02 0.  0.
         24    2    4    4    0    0 -0.25903271623E+03  0.36201073068E+03  0.10472796886E+04  0.11406903951E+04  0.78931072889E+02 0.  0.
         11    1    3    3    0    0 -0.57306713401E+02 -0.29843426691E+03  0.16566514082E+03  0.34610982354E+03  0.00000000000E+00 0.  1.
        -11    1    3    3    0    0 -0.10672265433E+03 -0.23334816234E+03  0.77851755811E+02  0.26814545623E+03  0.00000000000E+00 0. -1.
          2    1    6    6  502    0 -0.96035245356E+02  0.19991433268E+03  0.53891186695E+03  0.58276454002E+03  0.00000000000E+00 0. -1.
          1    1    5    5  503    0  0.32769060878E+03  0.15678360617E+03  0.21446774601E+03  0.42185145291E+03  0.00000000000E+00 0. -1.
         -2    1    5    5    0  503  0.95371475180E+02  0.12988092404E+02  0.21083422268E+02  0.98533849599E+02  0.00000000000E+00 0.  1.
         -1    1    6    6    0  502 -0.16299747087E+03  0.16209639800E+03  0.50836782161E+03  0.55792585511E+03  0.00000000000E+00 0.  1.
<mgrwt>
<rscale>  0 0.16874222E+04</rscale>
<asrwt>0</asrwt>
<pdfrwt beam="1">  1        2 0.57614095E-01 0.16874222E+04</pdfrwt>
<pdfrwt beam="2">  1       -2 0.29243682E+00 0.16874222E+04</pdfrwt>
<totfact> 0.28899796E+00</totfact>
</mgrwt>
</event>
<event>
12    1  0.1442183E-007  0.1200487E+04  0.7818608E-02  0.9112430E-01
         -2   -1    0    0    0  501 -0.00000000000E+00  0.00000000000E+00  0.41444749029E+03  0.41444749029E+03  0.00000000000E+00 0.  1.
          2   -1    0    0  501    0  0.00000000000E+00 -0.00000000000E+00 -0.86933195215E+03  0.86933195215E+03  0.00000000000E+00 0. -1.
         23    2    1    2    0    0 -0.11568676251E+03  0.19331596649E+03 -0.19644579179E+03  0.31198004974E+03  0.89365051361E+02 0.  0.
        254    2    1    2    0    0  0.11568676251E+03 -0.19331596649E+03 -0.25843867007E+03  0.97179939270E+03  0.90931239052E+03 0.  0.
        -24    2    4    4    0    0  0.46575000940E+03 -0.13205508520E+03  0.51264368113E+02  0.49352441162E+03  0.81096810334E+02 0.  0.
         24    2    4    4    0    0 -0.35006324689E+03 -0.61260881289E+02 -0.30970303818E+03  0.47827498108E+03  0.80832006460E+02 0.  0.
         13    1    3    3    0    0 -0.92314000999E+02  0.15615278215E+03 -0.10267558733E+03  0.20844146034E+03  0.00000000000E+00 0. -1.
        -13    1    3    3    0    0 -0.23372761512E+02  0.37163184336E+02 -0.93770204463E+02  0.10353858940E+03  0.00000000000E+00 0.  1.
          4    1    6    6  502    0 -0.19415524125E+03 -0.73347207988E+01 -0.20723632513E+03  0.28407208643E+03  0.00000000000E+00 0. -1.
          3    1    5    5  503    0  0.19924150809E+03 -0.81384235649E+02  0.55294581010E+02  0.22221175272E+03  0.00000000000E+00 0. -1.
         -4    1    5    5    0  503  0.26650850131E+03 -0.50670849552E+02 -0.40302128967E+01  0.27131265890E+03  0.00000000000E+00 0.  1.
         -3    1    6    6    0  502 -0.15590800564E+03 -0.53926160490E+02 -0.10246671306E+03  0.19420289465E+03  0.00000000000E+00 0.  1.
<mgrwt>
<rscale>  0 0.12004873E+04</rscale>
<asrwt>0</asrwt>
<pdfrwt beam="1">  1        2 0.13374338E+00 0.12004873E+04</pdfrwt>
<pdfrwt beam="2">  1       -2 0.63761152E-01 0.12004873E+04</pdfrwt>
<totfact> 0.69107280E+01</totfact>
</mgrwt>
</event>
<event>
12    1  0.1442183E-007  0.1419476E+04  0.7818608E-02  0.8939840E-01
         -2   -1    0    0    0  501 -0.00000000000E+00  0.00000000000E+00  0.16807510667E+03  0.16807510667E+03  0.00000000000E+00 0.  1.
          2   -1    0    0  501    0  0.00000000000E+00 -0.00000000000E+00 -0.29970404513E+04  0.29970404513E+04  0.00000000000E+00 0. -1.
         23    2    1    2    0    0  0.68295743977E+02 -0.19463933886E+03 -0.16069816913E+04  0.16227645494E+04  0.91792406533E+02 0.  0.
        254    2    1    2    0    0 -0.68295743977E+02  0.19463933886E+03 -0.12219836533E+04  0.15423510085E+04  0.91817961401E+03 0.  0.
        -24    2    4    4    0    0 -0.40524605855E+03 -0.11997281903E+03 -0.35542836099E+03  0.55783279214E+03  0.78931989132E+02 0.  0.
         24    2    4    4    0    0  0.33695031458E+03  0.31461215789E+03 -0.86655529235E+03  0.98451821639E+03  0.76431140956E+02 0.  0.
         13    1    3    3    0    0  0.32384666987E+02 -0.39322164183E+02 -0.18535147798E+03  0.19222426913E+03  0.00000000000E+00 0.  1.
        -13    1    3    3    0    0  0.35911076990E+02 -0.15531717468E+03 -0.14216302133E+04  0.14305402803E+04  0.00000000000E+00 0. -1.
          2    1    6    6  502    0  0.32127732068E+03  0.27004460019E+03 -0.78987699882E+03  0.89445451318E+03  0.00000000000E+00 0. -1.
          1    1    5    5  503    0 -0.26474945053E+03 -0.38513540588E+02 -0.22111440068E+03  0.34708376879E+03  0.00000000000E+00 0. -1.
         -2    1    5    5    0  503 -0.14049660802E+03 -0.81459278442E+02 -0.13431396031E+03  0.21074902335E+03  0.00000000000E+00 0.  1.
         -1    1    6    6    0  502  0.15672993897E+02  0.44567557702E+02 -0.76678293532E+02  0.90063703211E+02  0.00000000000E+00 0.  1.
<mgrwt>
<rscale>  0 0.14194758E+04</rscale>
<asrwt>0</asrwt>
<pdfrwt beam="1">  1        2 0.46108310E+00 0.14194758E+04</pdfrwt>
<pdfrwt beam="2">  1       -2 0.25857711E-01 0.14194758E+04</pdfrwt>
<totfact> 0.23130856E+01</totfact>
</mgrwt>
</event>
<event>
12    1  0.1442183E-007  0.1264966E+04  0.7818608E-02  0.9057819E-01
          4   -1    0    0  501    0  0.00000000000E+00  0.00000000000E+00  0.37181451471E+03  0.37181451471E+03  0.00000000000E+00 0. -1.
         -4   -1    0    0    0  501 -0.00000000000E+00 -0.00000000000E+00 -0.10758980845E+04  0.10758980845E+04  0.00000000000E+00 0.  1.
         23    2    1    2    0    0 -0.25207619457E+03  0.11634326857E+03 -0.30618759782E+03  0.42302407372E+03  0.90113028320E+02 0.  0.
        254    2    1    2    0    0  0.25207619457E+03 -0.11634326857E+03 -0.39789597198E+03  0.10246885255E+04  0.90254484974E+03 0.  0.
        -24    2    4    4    0    0 -0.25564637460E+03  0.12029491877E+03  0.56715061232E+02  0.29895952155E+03  0.79588070882E+02 0.  0.
         24    2    4    4    0    0  0.50772256917E+03 -0.23663818734E+03 -0.45461103321E+03  0.72572900396E+03  0.78940209800E+02 0.  0.
         13    1    3    3    0    0  0.60630245425E+01  0.17800577679E+01  0.21030604564E+00  0.63224284016E+01  0.00000000000E+00 0. -1.
        -13    1    3    3    0    0 -0.25813921911E+03  0.11456321080E+03 -0.30639790387E+03  0.41670164532E+03  0.00000000000E+00 0.  1.
          2    1    6    6  502    0  0.13534869031E+03 -0.75279520315E+02 -0.84260378128E+02  0.17631246544E+03  0.00000000000E+00 0. -1.
          3    1    5    5  503    0 -0.42663703937E+02  0.42771598785E+02 -0.13064367542E+02  0.61808405540E+02  0.00000000000E+00 0. -1.
         -4    1    5    5    0  503 -0.21298267066E+03  0.77523319982E+02  0.69779428773E+02  0.23715111601E+03  0.00000000000E+00 0.  1.
         -1    1    6    6    0  502  0.37237387886E+03 -0.16135866702E+03 -0.37035065508E+03  0.54941653852E+03  0.00000000000E+00 0.  1.
<mgrwt>
<rscale>  0 0.12649657E+04</rscale>
<asrwt>0</asrwt>
<pdfrwt beam="1">  1        4 0.57202233E-01 0.12649657E+04</pdfrwt>
<pdfrwt beam="2">  1       -4 0.16552278E+00 0.12649657E+04</pdfrwt>
<totfact> 0.12980698E+00</totfact>
</mgrwt>
</event>
<event>
12    1  0.1442183E-007  0.1972505E+04  0.7818608E-02  0.8619585E-01
          2   -1    0    0  501    0  0.00000000000E+00  0.00000000000E+00  0.11836042429E+04  0.11836042429E+04  0.00000000000E+00 0.  1.
         -2   -1    0    0    0  501 -0.00000000000E+00 -0.00000000000E+00 -0.82180660475E+03  0.82180660475E+03  0.00000000000E+00 0. -1.
         23    2    1    2    0    0 -0.65469378580E+03  0.37897090474E+03 -0.39983707583E+02  0.76274316994E+03  0.89081685058E+02 0.  0.
        254    2    1    2    0    0  0.65469378580E+03 -0.37897090474E+03  0.40178134574E+03  0.12426676777E+04  0.90030650760E+03 0.  0.
        -24    2    4    4    0    0  0.71429595574E+03 -0.49054961968E+03  0.63282626955E+02  0.87246883524E+03  0.79621202235E+02 0.  0.
         24    2    4    4    0    0 -0.59602169935E+02  0.11157871494E+03  0.33849871878E+03  0.37019884246E+03  0.80396343546E+02 0.  0.
         11    1    3    3    0    0 -0.31682689461E+03  0.13696483596E+03 -0.36931636419E+02  0.34713483433E+03  0.00000000000E+00 0.  1.
        -11    1    3    3    0    0 -0.33786689119E+03  0.24200606878E+03 -0.30520711644E+01  0.41560833561E+03  0.00000000000E+00 0. -1.
          4    1    6    6  502    0 -0.58763346752E+02  0.41321005867E+02  0.22981424288E+03  0.24078027884E+03  0.00000000000E+00 0. -1.
          3    1    5    5  503    0  0.22831232043E+03 -0.16062131767E+03 -0.16713569661E+02  0.27965168828E+03  0.00000000000E+00 0. -1.
         -4    1    5    5    0  503  0.48598363531E+03 -0.32992830201E+03  0.79996196617E+02  0.59281714696E+03  0.00000000000E+00 0.  1.
         -3    1    6    6    0  502 -0.83882318237E+00  0.70257709071E+02  0.10868447590E+03  0.12941856362E+03  0.00000000000E+00 0.  1.
<mgrwt>
<rscale>  0 0.19725048E+04</rscale>
<asrwt>0</asrwt>
<pdfrwt beam="1">  1        2 0.18209296E+00 0.19725048E+04</pdfrwt>
<pdfrwt beam="2">  1       -2 0.12643178E+00 0.19725048E+04</pdfrwt>
<totfact> 0.84068876E+00</totfact>
</mgrwt>
</event>
<event>
12    1  0.1442183E-007  0.1394847E+04  0.7818608E-02  0.8957557E-01
         -1   -1    0    0    0  501 -0.00000000000E+00  0.00000000000E+00  0.40311370585E+03  0.40311370585E+03  0.00000000000E+00 0.  1.
          1   -1    0    0  501    0  0.00000000000E+00 -0.00000000000E+00 -0.12066059858E+04  0.12066059858E+04  0.00000000000E+00 0. -1.
         23    2    1    2    0    0 -0.33920701242E+03  0.70280161225E+02 -0.12171555893E+02  0.35797296719E+03  0.89419238011E+02 0.  0.
        254    2    1    2    0    0  0.33920701242E+03 -0.70280161225E+02 -0.79132072411E+03  0.12517467245E+04  0.90591427606E+03 0.  0.
        -24    2    4    4    0    0  0.10080089157E+03 -0.22013708310E+03 -0.90331468273E+03  0.93859478492E+03  0.79759633512E+02 0.  0.
         24    2    4    4    0    0  0.23840612086E+03  0.14985692187E+03  0.11199395862E+03  0.31315193959E+03  0.78910804095E+02 0.  0.
         11    1    3    3    0    0 -0.32497723457E+03  0.68964511425E+02  0.91093484430E+01  0.33233911454E+03  0.00000000000E+00 0.  1.
        -11    1    3    3    0    0 -0.14229777849E+02  0.13156497999E+01 -0.21280904336E+02  0.25633852644E+02  0.00000000000E+00 0. -1.
          4    1    6    6  502    0  0.17562093338E+03  0.10021451663E+03  0.11581525904E+03  0.23302110593E+03  0.00000000000E+00 0. -1.
          1    1    5    5  503    0  0.42780474844E+02 -0.14508793911E+03 -0.66730164405E+03  0.68423107446E+03  0.00000000000E+00 0. -1.
         -2    1    5    5    0  503  0.58020416723E+02 -0.75049143988E+02 -0.23601303868E+03  0.25436371046E+03  0.00000000000E+00 0.  1.
         -3    1    6    6    0  502  0.62785187475E+02  0.49642405244E+02 -0.38213004148E+01  0.80130833651E+02  0.00000000000E+00 0.  1.
<mgrwt>
<rscale>  0 0.13948468E+04</rscale>
<asrwt>0</asrwt>
<pdfrwt beam="1">  1        1 0.18563169E+00 0.13948468E+04</pdfrwt>
<pdfrwt beam="2">  1       -1 0.62017493E-01 0.13948468E+04</pdfrwt>
<totfact> 0.27182933E+01</totfact>
</mgrwt>
</event>
<event>
12    1  0.1442183E-007  0.1286133E+04  0.7818608E-02  0.9040635E-01
          1   -1    0    0  501    0  0.00000000000E+00  0.00000000000E+00  0.12302674015E+04  0.12302674015E+04  0.00000000000E+00 0.  1.
         -1   -1    0    0    0  501 -0.00000000000E+00 -0.00000000000E+00 -0.33613378207E+03  0.33613378207E+03  0.00000000000E+00 0. -1.
         23    2    1    2    0    0 -0.15425198043E+03  0.49806016533E+01 -0.10747833431E+03  0.21011213376E+03  0.93685839635E+02 0.  0.
        254    2    1    2    0    0  0.15425198043E+03 -0.49806016533E+01  0.10016119537E+04  0.13562890498E+04  0.90137395175E+03 0.  0.
        -24    2    4    4    0    0 -0.32470188922E+03  0.69404503619E+02  0.70218082573E+03  0.78095765759E+03  0.81170493022E+02 0.  0.
         24    2    4    4    0    0  0.47895386965E+03 -0.74385105272E+02  0.29943112796E+03  0.57533139218E+03  0.80107785491E+02 0.  0.
         11    1    3    3    0    0  0.42130240869E+00 -0.20225830277E+02 -0.26215835554E+00  0.20231916200E+02  0.00000000000E+00 0.  1.
        -11    1    3    3    0    0 -0.15467328284E+03  0.25206431930E+02 -0.10721617595E+03  0.18988021756E+03  0.00000000000E+00 0. -1.
          2    1    6    6  502    0  0.46760748130E+03 -0.61835835278E+02  0.27620978646E+03  0.54660065242E+03  0.00000000000E+00 0. -1.
          3    1    5    5  503    0 -0.24222313204E+03  0.53560475890E+02  0.43357744953E+03  0.49952995408E+03  0.00000000000E+00 0. -1.
         -4    1    5    5    0  503 -0.82478757173E+02  0.15844027729E+02  0.26860337620E+03  0.28142770352E+03  0.00000000000E+00 0.  1.
         -1    1    6    6    0  502  0.11346388355E+02 -0.12549269994E+02  0.23221341503E+02  0.28730739762E+02  0.00000000000E+00 0.  1.
<mgrwt>
<rscale>  0 0.12861329E+04</rscale>
<asrwt>0</asrwt>
<pdfrwt beam="1">  1        1 0.18927191E+00 0.12861329E+04</pdfrwt>
<pdfrwt beam="2">  1       -1 0.51712890E-01 0.12861329E+04</pdfrwt>
<totfact> 0.37584082E+01</totfact>
</mgrwt>
</event>
<event>
12    1  0.1442183E-007  0.2059918E+04  0.7818608E-02  0.8579108E-01
          2   -1    0    0  501    0  0.00000000000E+00  0.00000000000E+00  0.14428070605E+04  0.14428070605E+04  0.00000000000E+00 0. -1.
         -2   -1    0    0    0  501 -0.00000000000E+00 -0.00000000000E+00 -0.73524439946E+03  0.73524439946E+03  0.00000000000E+00 0.  1.
         23    2    1    2    0    0 -0.25045621223E+03 -0.64674912242E+02 -0.54914074370E+03  0.61380274507E+03  0.91033482537E+02 0.  0.
        254    2    1    2    0    0  0.25045621223E+03  0.64674912242E+02  0.12567034048E+04  0.15642487149E+04  0.89479575102E+03 0.  0.
        -24    2    4    4    0    0  0.24816917382E+02  0.42678806151E+03  0.34707454057E+03  0.55650418189E+03  0.80450226286E+02 0.  0.
         24    2    4    4    0    0  0.22563929484E+03 -0.36211314927E+03  0.90962886418E+03  0.10077445330E+04  0.78008646984E+02 0.  0.
         13    1    3    3    0    0 -0.21533100972E+03 -0.34226347281E+02 -0.37712904789E+03  0.43562048317E+03  0.00000000000E+00 0.  1.
        -13    1    3    3    0    0 -0.35125202510E+02 -0.30448564961E+02 -0.17201169581E+03  0.17818226190E+03  0.00000000000E+00 0. -1.
          2    1    6    6  502    0  0.45171431457E+02 -0.13259236602E+03  0.33770176751E+03  0.36560043425E+03  0.00000000000E+00 0. -1.
          1    1    5    5  503    0  0.11942060180E+02  0.18964878458E+03  0.10379040754E+03  0.21652187647E+03  0.00000000000E+00 0. -1.
         -2    1    5    5    0  503  0.12874857203E+02  0.23713927693E+03  0.24328413303E+03  0.33998230541E+03  0.00000000000E+00 0.  1.
         -1    1    6    6    0  502  0.18046786339E+03 -0.22952078325E+03  0.57192709667E+03  0.64214409876E+03  0.00000000000E+00 0.  1.
<mgrwt>
<rscale>  0 0.20599183E+04</rscale>
<asrwt>0</asrwt>
<pdfrwt beam="1">  1        2 0.22197032E+00 0.20599183E+04</pdfrwt>
<pdfrwt beam="2">  1       -2 0.11311452E+00 0.20599183E+04</pdfrwt>
<totfact> 0.77652289E+00</totfact>
</mgrwt>
</event>
<event>
12    1  0.1442183E-007  0.1410846E+04  0.7818608E-02  0.8946005E-01
          2   -1    0    0  501    0  0.00000000000E+00  0.00000000000E+00  0.54222127141E+03  0.54222127141E+03  0.00000000000E+00 0.  1.
         -2   -1    0    0    0  501 -0.00000000000E+00 -0.00000000000E+00 -0.91774701360E+03  0.91774701360E+03  0.00000000000E+00 0. -1.
         23    2    1    2    0    0 -0.42724919247E+02 -0.21323806934E+03 -0.48393950904E+03  0.53758373821E+03  0.86619479552E+02 0.  0.
        254    2    1    2    0    0  0.42724919247E+02  0.21323806934E+03  0.10841376685E+03  0.92238454680E+03  0.88979987322E+03 0.  0.
        -24    2    4    4    0    0  0.40349053032E+03  0.23883703467E+03 -0.11487917453E+03  0.48957635541E+03  0.81486476427E+02 0.  0.
         24    2    4    4    0    0 -0.36076561108E+03 -0.25598965336E+02  0.22329294137E+03  0.43280819139E+03  0.81584678130E+02 0.  0.
         11    1    3    3    0    0  0.26735427034E+02 -0.62239177259E+02 -0.14880346505E+03  0.16349608392E+03  0.00000000000E+00 0.  1.
        -11    1    3    3    0    0 -0.69460346281E+02 -0.15099889208E+03 -0.33513604399E+03  0.37408765429E+03  0.00000000000E+00 0. -1.
          2    1    6    6  502    0 -0.14920266226E+03 -0.39211528018E+00  0.13823634071E+03  0.20339831384E+03  0.00000000000E+00 0. -1.
          1    1    5    5  503    0  0.16781687908E+03  0.97886053914E+02 -0.89179488675E+02  0.21376895391E+03  0.00000000000E+00 0. -1.
         -2    1    5    5    0  503  0.23567365124E+03  0.14095098076E+03 -0.25699685850E+02  0.27580740150E+03  0.00000000000E+00 0.  1.
         -1    1    6    6    0  502 -0.21156294882E+03 -0.25206850056E+02  0.85056600666E+02  0.22940987755E+03  0.00000000000E+00 0.  1.
<mgrwt>
<rscale>  0 0.14108465E+04</rscale>
<asrwt>0</asrwt>
<pdfrwt beam="1">  1        2 0.83418658E-01 0.14108465E+04</pdfrwt>
<pdfrwt beam="2">  1       -2 0.14119185E+00 0.14108465E+04</pdfrwt>
<totfact> 0.19116703E+01</totfact>
</mgrwt>
</event>
<event>
12    1  0.1442183E-007  0.1946906E+04  0.7818608E-02  0.8631854E-01
         -2   -1    0    0    0  501 -0.00000000000E+00  0.00000000000E+00  0.26995256823E+03  0.26995256823E+03  0.00000000000E+00 0.  1.
          2   -1    0    0  501    0  0.00000000000E+00 -0.00000000000E+00 -0.35102869152E+04  0.35102869152E+04  0.00000000000E+00 0. -1.
         23    2    1    2    0    0  0.24119685609E+03  0.65976377492E+03 -0.71355332881E+03  0.10056335274E+04  0.93146530949E+02 0.  0.
        254    2    1    2    0    0 -0.24119685609E+03 -0.65976377492E+03 -0.25267810182E+04  0.27746059561E+04  0.90573270647E+03 0.  0.
        -24    2    4    4    0    0 -0.60025608867E+02  0.20308856579E+03 -0.83526563494E+03  0.86546399952E+03  0.80692095479E+02 0.  0.
         24    2    4    4    0    0 -0.18117124723E+03 -0.86285234071E+03 -0.16915153832E+04  0.19091419566E+04  0.79129867043E+02 0.  0.
         11    1    3    3    0    0  0.20815641239E+03  0.62953829814E+03 -0.65620727689E+03  0.93287488502E+03  0.00000000000E+00 0.  1.
        -11    1    3    3    0    0  0.33040443704E+02  0.30225476778E+02 -0.57346051920E+02  0.72758642356E+02  0.00000000000E+00 0. -1.
          2    1    6    6  502    0 -0.44422646254E+02 -0.33141278453E+03 -0.70491662425E+03  0.78020205869E+03  0.00000000000E+00 0. -1.
          3    1    5    5  503    0 -0.88509627230E+01  0.69634351188E+01 -0.16095289732E+03  0.16134641033E+03  0.00000000000E+00 0. -1.
         -4    1    5    5    0  503 -0.51174646144E+02  0.19612513068E+03 -0.67431273762E+03  0.70411758919E+03  0.00000000000E+00 0.  1.
         -1    1    6    6    0  502 -0.13674860097E+03 -0.53143955618E+03 -0.98659875899E+03  0.11289398979E+04  0.00000000000E+00 0.  1.
<mgrwt>
<rscale>  0 0.19469062E+04</rscale>
<asrwt>0</asrwt>
<pdfrwt beam="1">  1        2 0.54004411E+00 0.19469062E+04</pdfrwt>
<pdfrwt beam="2">  1       -2 0.41531167E-01 0.19469062E+04</pdfrwt>
<totfact> 0.41241463E+00</totfact>
</mgrwt>
</event>
<event>
12    1  0.1442183E-007  0.1677976E+04  0.7818608E-02  0.8774026E-01
          1   -1    0    0  501    0  0.00000000000E+00  0.00000000000E+00  0.12049890985E+04  0.12049890985E+04  0.00000000000E+00 0. -1.
         -1   -1    0    0    0  501 -0.00000000000E+00 -0.00000000000E+00 -0.58415545081E+03  0.58415545081E+03  0.00000000000E+00 0.  1.
         23    2    1    2    0    0 -0.11728606612E+03 -0.31467419097E+03  0.71985466096E+03  0.79956087741E+03  0.91274289978E+02 0.  0.
        254    2    1    2    0    0  0.11728606612E+03  0.31467419097E+03 -0.99021013324E+02  0.98958367185E+03  0.92557809760E+03 0.  0.
        -24    2    4    4    0    0  0.32579816275E+03  0.41885257199E+03 -0.34760377275E+03  0.63929029056E+03  0.79257635917E+02 0.  0.
         24    2    4    4    0    0 -0.20851209664E+03 -0.10417838103E+03  0.24858275943E+03  0.35029338130E+03  0.81127277656E+02 0.  0.
         13    1    3    3    0    0  0.89680897575E+01 -0.29768121568E+02  0.33106636448E+02  0.45416044219E+02  0.00000000000E+00 0.  1.
        -13    1    3    3    0    0 -0.12625415588E+03 -0.28490606940E+03  0.68674802452E+03  0.75414483319E+03  0.00000000000E+00 0. -1.
          4    1    6    6  502    0 -0.20918263714E+03 -0.11188002067E+03  0.23112159291E+03  0.33119738135E+03  0.00000000000E+00 0. -1.
          3    1    5    5  503    0  0.24400147359E+03  0.27137666486E+03 -0.20590459105E+03  0.41902113785E+03  0.00000000000E+00 0. -1.
         -4    1    5    5    0  503  0.81796689167E+02  0.14747590713E+03 -0.14169918170E+03  0.22026915271E+03  0.00000000000E+00 0.  1.
         -1    1    6    6    0  502  0.67054050308E+00  0.77016396435E+01  0.17461166518E+02  0.19095999946E+02  0.00000000000E+00 0.  1.
<mgrwt>
<rscale>  0 0.16779761E+04</rscale>
<asrwt>0</asrwt>
<pdfrwt beam="1">  1        1 0.18538294E+00 0.16779761E+04</pdfrwt>
<pdfrwt beam="2">  1       -1 0.89870070E-01 0.16779761E+04</pdfrwt>
<totfact> 0.12242988E+01</totfact>
</mgrwt>
</event>
<event>
12    1  0.1442183E-007  0.1929708E+04  0.7818608E-02  0.8640209E-01
          2   -1    0    0  501    0  0.00000000000E+00  0.00000000000E+00  0.52392528774E+03  0.52392528774E+03  0.00000000000E+00 0. -1.
         -2   -1    0    0    0  501 -0.00000000000E+00 -0.00000000000E+00 -0.17768616893E+04  0.17768616893E+04  0.00000000000E+00 0.  1.
         23    2    1    2    0    0  0.41766820909E+03 -0.13903094733E+03 -0.11283653894E+04  0.12142596198E+04  0.86264913517E+02 0.  0.
        254    2    1    2    0    0 -0.41766820909E+03  0.13903094733E+03 -0.12457101224E+03  0.10865273572E+04  0.98551886016E+03 0.  0.
        -24    2    4    4    0    0  0.25587134453E+03  0.83758068406E+02 -0.27092309590E+03  0.39043728690E+03  0.80971551408E+02 0.  0.
         24    2    4    4    0    0 -0.67353955361E+03  0.55272878925E+02  0.14635208365E+03  0.69609007033E+03  0.80073917113E+02 0.  0.
         13    1    3    3    0    0  0.72076034787E+01 -0.17825360732E+02 -0.32158965980E+02  0.37468548491E+02  0.00000000000E+00 0. -1.
        -13    1    3    3    0    0  0.41046060561E+03 -0.12120558660E+03 -0.10962064234E+04  0.11767910714E+04  0.00000000000E+00 0.  1.
          4    1    6    6  502    0 -0.64953915587E+03  0.40944149571E+02  0.15002924079E+03  0.66789693179E+03  0.00000000000E+00 0. -1.
          3    1    5    5  503    0  0.18990297107E+03  0.30788727986E+02 -0.21752234529E+03  0.29039121008E+03  0.00000000000E+00 0. -1.
         -4    1    5    5    0  503  0.65968373452E+02  0.52969340421E+02 -0.53400750606E+02  0.10004607681E+03  0.00000000000E+00 0.  1.
         -3    1    6    6    0  502 -0.24000397739E+02  0.14328729354E+02 -0.36771571374E+01  0.28193138547E+02  0.00000000000E+00 0.  1.
<mgrwt>
<rscale>  0 0.19297075E+04</rscale>
<asrwt>0</asrwt>
<pdfrwt beam="1">  1        2 0.80603892E-01 0.19297075E+04</pdfrwt>
<pdfrwt beam="2">  1       -2 0.27336333E+00 0.19297075E+04</pdfrwt>
<totfact> 0.25192883E+00</totfact>
</mgrwt>
</event>
<event>
12    1  0.1442183E-007  0.1722794E+04  0.7818608E-02  0.8748470E-01
         -2   -1    0    0    0  501 -0.00000000000E+00  0.00000000000E+00  0.14744134661E+04  0.14744134661E+04  0.00000000000E+00 0.  1.
          2   -1    0    0  501    0  0.00000000000E+00 -0.00000000000E+00 -0.50325396486E+03  0.50325396486E+03  0.00000000000E+00 0. -1.
         23    2    1    2    0    0  0.30511669917E+03  0.49244864579E+03  0.68829634122E+02  0.59134625375E+03  0.96700591672E+02 0.  0.
        254    2    1    2    0    0 -0.30511669917E+03 -0.49244864579E+03  0.90232986712E+03  0.13863211772E+04  0.87868387286E+03 0.  0.
        -24    2    4    4    0    0 -0.29864870578E+01  0.19136302823E+03  0.48221088765E+03  0.52493619702E+03  0.80012143435E+02 0.  0.
         24    2    4    4    0    0 -0.30213021211E+03 -0.68381167402E+03  0.42011897947E+03  0.86138498019E+03  0.81259193835E+02 0.  0.
         11    1    3    3    0    0  0.16717500817E+03  0.23250789142E+03 -0.10518115951E+02  0.28656244292E+03  0.00000000000E+00 0. -1.
        -11    1    3    3    0    0  0.13794169100E+03  0.25994075437E+03  0.79347750073E+02  0.30478381082E+03  0.00000000000E+00 0.  1.
          4    1    6    6  502    0 -0.26275625314E+03 -0.62363715291E+03  0.40236934456E+03  0.78731520784E+03  0.00000000000E+00 0. -1.
          3    1    5    5  503    0 -0.23873634947E+02  0.14942170354E+03  0.42411673934E+03  0.45030190376E+03  0.00000000000E+00 0. -1.
         -4    1    5    5    0  503  0.20887147889E+02  0.41941324692E+02  0.58094148301E+02  0.74634293262E+02  0.00000000000E+00 0.  1.
         -3    1    6    6    0  502 -0.39373958975E+02 -0.60174521111E+02  0.17749634910E+02  0.74069772349E+02  0.00000000000E+00 0.  1.
<mgrwt>
<rscale>  0 0.17227936E+04</rscale>
<asrwt>0</asrwt>
<pdfrwt beam="1">  1        2 0.77423688E-01 0.17227936E+04</pdfrwt>
<pdfrwt beam="2">  1       -2 0.22683284E+00 0.17227936E+04</pdfrwt>
<totfact> 0.51924844E+00</totfact>
</mgrwt>
</event>
<event>
12    1  0.1442183E-007  0.1666294E+04  0.7818608E-02  0.8780825E-01
         -1   -1    0    0    0  501 -0.00000000000E+00  0.00000000000E+00  0.57711462783E+03  0.57711462783E+03  0.00000000000E+00 0.  1.
          1   -1    0    0  501    0  0.00000000000E+00 -0.00000000000E+00 -0.12027664234E+04  0.12027664234E+04  0.00000000000E+00 0. -1.
         23    2    1    2    0    0  0.26584741128E+03  0.31395158305E+02 -0.77680017683E+03  0.82552492461E+03  0.80077364987E+02 0.  0.
        254    2    1    2    0    0 -0.26584741128E+03 -0.31395158305E+02  0.15114838128E+03  0.95435612659E+03  0.90348728887E+03 0.  0.
        -24    2    4    4    0    0 -0.10040663308E+02  0.15209877003E+03  0.46890523355E+03  0.49959914264E+03  0.80575024107E+02 0.  0.
         24    2    4    4    0    0 -0.25580674797E+03 -0.18349392833E+03 -0.31775685227E+03  0.45475698395E+03  0.82020626926E+02 0.  0.
         13    1    3    3    0    0  0.35593851774E+02  0.33753324414E+02 -0.14484984356E+03  0.15293033176E+03  0.00000000000E+00 0.  1.
        -13    1    3    3    0    0  0.23025355950E+03 -0.23581661095E+01 -0.63195033327E+03  0.67259459285E+03  0.00000000000E+00 0. -1.
          4    1    6    6  502    0 -0.46801174119E+02 -0.73701254180E+02 -0.10863107900E+03  0.13936619422E+03  0.00000000000E+00 0. -1.
          3    1    5    5  503    0 -0.11183119287E+02  0.62468754969E+02  0.89292857189E+02  0.10954734981E+03  0.00000000000E+00 0. -1.
         -4    1    5    5    0  503  0.11424559792E+01  0.89630015059E+02  0.37961237636E+03  0.39005179284E+03  0.00000000000E+00 0.  1.
         -3    1    6    6    0  502 -0.20900557385E+03 -0.10979267415E+03 -0.20912577327E+03  0.31539078973E+03  0.00000000000E+00 0.  1.
<mgrwt>
<rscale>  0 0.16662942E+04</rscale>
<asrwt>0</asrwt>
<pdfrwt beam="1">  1        1 0.18504099E+00 0.16662942E+04</pdfrwt>
<pdfrwt beam="2">  1       -1 0.88786867E-01 0.16662942E+04</pdfrwt>
<totfact> 0.12634248E+01</totfact>
</mgrwt>
</event>
<event>
12    1  0.1442183E-007  0.1393412E+04  0.7818608E-02  0.8958601E-01
         -4   -1    0    0    0  501 -0.00000000000E+00  0.00000000000E+00  0.55145176699E+03  0.55145176699E+03  0.00000000000E+00 0.  1.
          4   -1    0    0  501    0  0.00000000000E+00 -0.00000000000E+00 -0.88022038136E+03  0.88022038136E+03  0.00000000000E+00 0. -1.
         23    2    1    2    0    0 -0.11810531806E+03 -0.37018750149E+03 -0.17013594214E+03  0.43403904355E+03  0.91956512040E+02 0.  0.
        254    2    1    2    0    0  0.11810531806E+03  0.37018750149E+03 -0.15863267222E+03  0.99763310480E+03  0.90505239334E+03 0.  0.
        -24    2    4    4    0    0  0.20510206235E+02  0.62980069274E+03  0.60219164937E+02  0.63734039742E+03  0.74208174940E+02 0.  0.
         24    2    4    4    0    0  0.97595111821E+02 -0.25961319125E+03 -0.21885183716E+03  0.36029270738E+03  0.70646255645E+02 0.  0.
         11    1    3    3    0    0 -0.45337424155E+02 -0.15940329824E+03 -0.12232099384E+03  0.20597892866E+03  0.00000000000E+00 0. -1.
        -11    1    3    3    0    0 -0.72767893900E+02 -0.21078420325E+03 -0.47814948302E+02  0.22806011489E+03  0.00000000000E+00 0.  1.
          2    1    6    6  502    0  0.97063767362E+02 -0.22991053382E+03 -0.16619850311E+03  0.29983690722E+03  0.00000000000E+00 0. -1.
          3    1    5    5  503    0  0.41200201840E+02  0.48963269607E+03  0.64566180602E+02  0.49558695036E+03  0.00000000000E+00 0. -1.
         -4    1    5    5    0  503 -0.20689995605E+02  0.14016799667E+03 -0.43470156654E+01  0.14175344707E+03  0.00000000000E+00 0.  1.
         -1    1    6    6    0  502  0.53134445868E+00 -0.29702657427E+02 -0.52653334054E+02  0.60455800153E+02  0.00000000000E+00 0.  1.
<mgrwt>
<rscale>  0 0.13934118E+04</rscale>
<asrwt>0</asrwt>
<pdfrwt beam="1">  1        4 0.13541852E+00 0.13934118E+04</pdfrwt>
<pdfrwt beam="2">  1       -4 0.84838733E-01 0.13934118E+04</pdfrwt>
<totfact> 0.91974666E-01</totfact>
</mgrwt>
</event>
<event>
12    1  0.1442183E-007  0.1589311E+04  0.7818608E-02  0.8827141E-01
         -2   -1    0    0    0  501 -0.00000000000E+00  0.00000000000E+00  0.13391225593E+04  0.13391225593E+04  0.00000000000E+00 0.  1.
          2   -1    0    0  501    0  0.00000000000E+00 -0.00000000000E+00 -0.47156075628E+03  0.47156075628E+03  0.00000000000E+00 0. -1.
         23    2    1    2    0    0 -0.19639251327E+03 -0.46554429474E+03  0.11853025347E+03  0.52797716208E+03  0.96999758035E+02 0.  0.
        254    2    1    2    0    0  0.19639251327E+03  0.46554429474E+03  0.74903154959E+03  0.12827061535E+04  0.91048630107E+03 0.  0.
        -24    2    4    4    0    0 -0.25780193066E+03  0.51083222305E+03  0.41280883868E+03  0.71004525311E+03  0.79634971063E+02 0.  0.
         24    2    4    4    0    0  0.45419444393E+03 -0.45287928317E+02  0.33622271091E+03  0.57266090043E+03  0.80939521888E+02 0.  0.
         13    1    3    3    0    0 -0.21938112025E+02 -0.14348488438E+03  0.79290645040E+01  0.14536871351E+03  0.00000000000E+00 0.  1.
        -13    1    3    3    0    0 -0.17445440125E+03 -0.32205941036E+03  0.11060118897E+03  0.38260844857E+03  0.00000000000E+00 0. -1.
          2    1    6    6  502    0  0.20798684731E+03 -0.64169991296E+01  0.19996076585E+03  0.28858969907E+03  0.00000000000E+00 0. -1.
          3    1    5    5  503    0 -0.76334904665E+02  0.21833161181E+03  0.13583401992E+03  0.26822861770E+03  0.00000000000E+00 0. -1.
         -4    1    5    5    0  503 -0.18146702600E+03  0.29250061125E+03  0.27697481876E+03  0.44181663542E+03  0.00000000000E+00 0.  1.
         -1    1    6    6    0  502  0.24620759662E+03 -0.38870929188E+02  0.13626194506E+03  0.28407120136E+03  0.00000000000E+00 0.  1.
<mgrwt>
<rscale>  0 0.15893114E+04</rscale>
<asrwt>0</asrwt>
<pdfrwt beam="1">  1        2 0.72547809E-01 0.15893114E+04</pdfrwt>
<pdfrwt beam="2">  1       -2 0.20601885E+00 0.15893114E+04</pdfrwt>
<totfact> 0.76774538E+00</totfact>
</mgrwt>
</event>
<event>
12    1  0.1442183E-007  0.1929032E+04  0.7818608E-02  0.8640539E-01
          2   -1    0    0  501    0  0.00000000000E+00  0.00000000000E+00  0.39728236707E+04  0.39728236707E+04  0.00000000000E+00 0. -1.
         -2   -1    0    0    0  501 -0.00000000000E+00 -0.00000000000E+00 -0.23416376928E+03  0.23416376928E+03  0.00000000000E+00 0.  1.
         23    2    1    2    0    0  0.37958372464E+03  0.62210210421E+03  0.18796437735E+04  0.20181301373E+04  0.93240032633E+02 0.  0.
        254    2    1    2    0    0 -0.37958372464E+03 -0.62210210421E+03  0.18590161279E+04  0.21888573027E+04  0.89669420407E+03 0.  0.
        -24    2    4    4    0    0 -0.41276707890E+02 -0.31233996641E+03  0.59916027517E+02  0.33054194986E+03  0.80050165719E+02 0.  0.
         24    2    4    4    0    0 -0.33830701675E+03 -0.30976213780E+03  0.17991001004E+04  0.18583153529E+04  0.78552910271E+02 0.  0.
         11    1    3    3    0    0  0.83234329908E+02  0.74136323469E+02  0.30542940062E+03  0.32513269122E+03  0.00000000000E+00 0. -1.
        -11    1    3    3    0    0  0.29634939473E+03  0.54796578074E+03  0.15742143729E+04  0.16929974461E+04  0.00000000000E+00 0.  1.
          2    1    6    6  502    0 -0.16481154613E+03 -0.20351651169E+03  0.99868425562E+03  0.10324495429E+04  0.00000000000E+00 0. -1.
          1    1    5    5  503    0 -0.49318859972E+02 -0.29720025164E+03  0.39437252620E+02  0.30383488347E+03  0.00000000000E+00 0. -1.
         -4    1    5    5    0  503  0.80421520817E+01 -0.15139714770E+02  0.20478774896E+02  0.26707066381E+02  0.00000000000E+00 0.  1.
         -1    1    6    6    0  502 -0.17349547061E+03 -0.10624562611E+03  0.80041584481E+03  0.82586580993E+03  0.00000000000E+00 0.  1.
<mgrwt>
<rscale>  0 0.19290323E+04</rscale>
<asrwt>0</asrwt>
<pdfrwt beam="1">  1        2 0.61120359E+00 0.19290323E+04</pdfrwt>
<pdfrwt beam="2">  1       -2 0.36025198E-01 0.19290323E+04</pdfrwt>
<totfact> 0.24651545E+00</totfact>
</mgrwt>
</event>
<event>
12    1  0.1442183E-007  0.1412094E+04  0.7818608E-02  0.8945111E-01
          1   -1    0    0  501    0  0.00000000000E+00  0.00000000000E+00  0.18134999238E+04  0.18134999238E+04  0.00000000000E+00 0. -1.
         -1   -1    0    0    0  501 -0.00000000000E+00 -0.00000000000E+00 -0.27488407660E+03  0.27488407660E+03  0.00000000000E+00 0.  1.
         23    2    1    2    0    0 -0.70350191104E+02 -0.36607382979E+03  0.71139791435E+03  0.80843421934E+03  0.92302200498E+02 0.  0.
        254    2    1    2    0    0  0.70350191104E+02  0.36607382979E+03  0.82721793281E+03  0.12799497810E+04  0.90278609611E+03 0.  0.
        -24    2    4    4    0    0  0.35194911736E+03  0.35028824394E+03  0.84803646387E+03  0.98605808993E+03  0.81084385710E+02 0.  0.
         24    2    4    4    0    0 -0.28159892626E+03  0.15785585847E+02 -0.20818531063E+02  0.29389169109E+03  0.79948576374E+02 0.  0.
         13    1    3    3    0    0 -0.90157513472E+02 -0.32947753540E+03  0.64950157289E+03  0.73385020048E+03  0.00000000000E+00 0. -1.
        -13    1    3    3    0    0  0.19807322368E+02 -0.36596294388E+02  0.61896341462E+02  0.74584018856E+02  0.00000000000E+00 0.  1.
          4    1    6    6  502    0 -0.33317494972E+02 -0.10628355551E+02 -0.26922876512E+02  0.44134552140E+02  0.00000000000E+00 0. -1.
          3    1    5    5  503    0  0.52002726356E+02  0.26169327361E+02  0.66489084874E+02  0.88373727150E+02  0.00000000000E+00 0. -1.
         -4    1    5    5    0  503  0.29994639101E+03  0.32411891658E+03  0.78154737900E+03  0.89768436278E+03  0.00000000000E+00 0.  1.
         -3    1    6    6    0  502 -0.24828143129E+03  0.26413941398E+02  0.61043454496E+01  0.24975713895E+03  0.00000000000E+00 0.  1.
<mgrwt>
<rscale>  0 0.14120938E+04</rscale>
<asrwt>0</asrwt>
<pdfrwt beam="1">  1        1 0.27899998E+00 0.14120938E+04</pdfrwt>
<pdfrwt beam="2">  1       -1 0.42289859E-01 0.14120938E+04</pdfrwt>
<totfact> 0.21368266E+01</totfact>
</mgrwt>
</event>
<event>
12    1  0.1442183E-007  0.2095601E+04  0.7818608E-02  0.8563183E-01
         -1   -1    0    0    0  501 -0.00000000000E+00  0.00000000000E+00  0.15777369790E+04  0.15777369790E+04  0.00000000000E+00 0.  1.
          1   -1    0    0  501    0  0.00000000000E+00 -0.00000000000E+00 -0.69586139393E+03  0.69586139393E+03  0.00000000000E+00 0. -1.
         23    2    1    2    0    0  0.61094062528E+03  0.37901923452E+03 -0.13195689128E+03  0.73673407213E+03  0.91980672551E+02 0.  0.
        254    2    1    2    0    0 -0.61094062528E+03 -0.37901923452E+03  0.10138324763E+04  0.15368643008E+04  0.90398648286E+03 0.  0.
        -24    2    4    4    0    0  0.11810801512E+03 -0.27225639548E+03  0.35702124559E+02  0.30950910900E+03  0.80300677079E+02 0.  0.
         24    2    4    4    0    0 -0.72904864040E+03 -0.10676283904E+03  0.97813035178E+03  0.12273551918E+04  0.82167863876E+02 0.  0.
         13    1    3    3    0    0 -0.20148695422E+01  0.47510390232E+01 -0.54239034359E+01  0.74867081922E+01  0.00000000000E+00 0.  1.
        -13    1    3    3    0    0  0.61295549482E+03  0.37426819550E+03 -0.12653298785E+03  0.72924736394E+03  0.00000000000E+00 0. -1.
          4    1    6    6  502    0 -0.31514297447E+03 -0.80327492682E+01  0.44136697395E+03  0.54238770737E+03  0.00000000000E+00 0. -1.
          3    1    5    5  503    0 -0.15284018411E+01 -0.99020778798E+01 -0.13689913981E+02  0.16964695792E+02  0.00000000000E+00 0. -1.
         -4    1    5    5    0  503  0.11963641696E+03 -0.26235431760E+03  0.49392038539E+02  0.29254441321E+03  0.00000000000E+00 0.  1.
         -1    1    6    6    0  502 -0.41390566593E+03 -0.98730089775E+02  0.53676337784E+03  0.68496748441E+03  0.00000000000E+00 0.  1.
<mgrwt>
<rscale>  0 0.20956013E+04</rscale>
<asrwt>0</asrwt>
<pdfrwt beam="1">  1        1 0.10705560E+00 0.20956013E+04</pdfrwt>
<pdfrwt beam="2">  1       -1 0.24272876E+00 0.20956013E+04</pdfrwt>
<totfact> 0.19675366E+00</totfact>
</mgrwt>
</event>
<event>
12    1  0.1442183E-007  0.2147033E+04  0.7818608E-02  0.8540803E-01
          2   -1    0    0  501    0  0.00000000000E+00  0.00000000000E+00  0.11544369032E+04  0.11544369032E+04  0.00000000000E+00 0. -1.
         -2   -1    0    0    0  501 -0.00000000000E+00 -0.00000000000E+00 -0.99826861547E+03  0.99826861547E+03  0.00000000000E+00 0.  1.
         23    2    1    2    0    0  0.70383408458E+03  0.15972793939E+03 -0.44725551444E+03  0.85395417496E+03  0.91130700042E+02 0.  0.
        254    2    1    2    0    0 -0.70383408458E+03 -0.15972793939E+03  0.60342380222E+03  0.12987513438E+04  0.89539898067E+03 0.  0.
        -24    2    4    4    0    0 -0.82533017007E+03 -0.22714836430E+03  0.70241022595E+03  0.11102077739E+04  0.80093112515E+02 0.  0.
         24    2    4    4    0    0  0.12149608549E+03  0.67420424909E+02 -0.98986423735E+02  0.18854356986E+03  0.80271745747E+02 0.  0.
         13    1    3    3    0    0  0.43518500896E+03  0.60414304228E+02 -0.29892564047E+03  0.53140607703E+03  0.00000000000E+00 0. -1.
        -13    1    3    3    0    0  0.26864907562E+03  0.99313635166E+02 -0.14832987397E+03  0.32254809793E+03  0.00000000000E+00 0.  1.
          2    1    6    6  502    0  0.95057960470E+02  0.85810229519E+02 -0.82831665943E+02  0.15251392140E+03  0.00000000000E+00 0. -1.
          3    1    5    5  503    0 -0.77959291761E+03 -0.23031727680E+03  0.65204624635E+03  0.10421014694E+04  0.00000000000E+00 0. -1.
         -4    1    5    5    0  503 -0.45737252463E+02  0.31689124985E+01  0.50363979605E+02  0.68106304487E+02  0.00000000000E+00 0.  1.
         -1    1    6    6    0  502  0.26438125021E+02 -0.18389804611E+02 -0.16154757791E+02  0.36029648452E+02  0.00000000000E+00 0.  1.
<mgrwt>
<rscale>  0 0.21470334E+04</rscale>
<asrwt>0</asrwt>
<pdfrwt beam="1">  1        2 0.17760568E+00 0.21470334E+04</pdfrwt>
<pdfrwt beam="2">  1       -2 0.15357979E+00 0.21470334E+04</pdfrwt>
<totfact> 0.52120128E+00</totfact>
</mgrwt>
</event>
<event>
12    1  0.1442183E-007  0.2882768E+04  0.7818608E-02  0.8278023E-01
         -2   -1    0    0    0  501 -0.00000000000E+00  0.00000000000E+00  0.78880303447E+03  0.78880303447E+03  0.00000000000E+00 0.  1.
          2   -1    0    0  501    0  0.00000000000E+00 -0.00000000000E+00 -0.26338490023E+04  0.26338490023E+04  0.00000000000E+00 0. -1.
         23    2    1    2    0    0 -0.97822271505E+03 -0.60304057634E+02  0.20311948708E+03  0.10054584188E+04  0.95565926963E+02 0.  0.
        254    2    1    2    0    0  0.97822271505E+03  0.60304057634E+02 -0.20481654549E+04  0.24171936180E+04  0.82902774156E+03 0.  0.
        -24    2    4    4    0    0  0.66016644741E+03 -0.19964369837E+03 -0.18028291627E+04  0.19319530398E+04  0.81069188070E+02 0.  0.
         24    2    4    4    0    0  0.31805626764E+03  0.25994775600E+03 -0.24533629219E+03  0.48524057818E+03  0.80844896021E+02 0.  0.
         13    1    3    3    0    0 -0.57104817620E+03 -0.63730292516E+02  0.15706318377E+03  0.59567307596E+03  0.00000000000E+00 0. -1.
        -13    1    3    3    0    0 -0.40717453885E+03  0.34262348828E+01  0.46056303306E+02  0.40978534289E+03  0.00000000000E+00 0.  1.
          2    1    6    6  502    0  0.13848703694E+03  0.68167986541E+02 -0.70755220703E+02  0.16979939648E+03  0.00000000000E+00 0. -1.
          3    1    5    5  503    0  0.63522904410E+03 -0.20587282188E+03 -0.17532083843E+04  0.18760701469E+04  0.00000000000E+00 0. -1.
         -4    1    5    5    0  503  0.24937403314E+02  0.62291235096E+01 -0.49620778407E+02  0.55882892852E+02  0.00000000000E+00 0.  1.
         -1    1    6    6    0  502  0.17956923069E+03  0.19177976946E+03 -0.17458107149E+03  0.31544118170E+03  0.00000000000E+00 0.  1.
<mgrwt>
<rscale>  0 0.28827682E+04</rscale>
<asrwt>0</asrwt>
<pdfrwt beam="1">  1        2 0.40520754E+00 0.28827682E+04</pdfrwt>
<pdfrwt beam="2">  1       -2 0.12135431E+00 0.28827682E+04</pdfrwt>
<totfact> 0.12967921E+00</totfact>
</mgrwt>
</event>
<event>
12    1  0.1442183E-007  0.2129266E+04  0.7818608E-02  0.8548460E-01
          2   -1    0    0  501    0  0.00000000000E+00  0.00000000000E+00  0.39745058339E+04  0.39745058339E+04  0.00000000000E+00 0.  1.
         -2   -1    0    0    0  501 -0.00000000000E+00 -0.00000000000E+00 -0.28517853849E+03  0.28517853849E+03  0.00000000000E+00 0. -1.
         23    2    1    2    0    0  0.53827984414E+03 -0.42097598680E+03  0.26012279925E+04  0.26910147566E+04  0.90594586167E+02 0.  0.
        254    2    1    2    0    0 -0.53827984414E+03  0.42097598680E+03  0.10880993029E+04  0.15686696158E+04  0.89988793667E+03 0.  0.
        -24    2    4    4    0    0 -0.17284451549E+03  0.23834024785E+03  0.11098979254E+04  0.11511999966E+04  0.81894609557E+02 0.  0.
         24    2    4    4    0    0 -0.36543532865E+03  0.18263573895E+03 -0.21798622437E+02  0.41746961928E+03  0.83107824618E+02 0.  0.
         11    1    3    3    0    0  0.32869869342E+03 -0.21379663929E+03  0.15974665556E+04  0.16448863883E+04  0.00000000000E+00 0. -1.
        -11    1    3    3    0    0  0.20958115072E+03 -0.20717934751E+03  0.10037614369E+04  0.10461283683E+04  0.00000000000E+00 0.  1.
          4    1    6    6  502    0 -0.15743779226E+03  0.12509536156E+03 -0.11482363347E+02  0.20141338730E+03  0.00000000000E+00 0. -1.
          3    1    5    5  503    0 -0.17464557877E+03  0.24364699545E+03  0.10946323088E+04  0.11349382485E+04  0.00000000000E+00 0. -1.
         -4    1    5    5    0  503  0.18010632793E+01 -0.53067475991E+01  0.15265616613E+02  0.16261748048E+02  0.00000000000E+00 0.  1.
         -3    1    6    6    0  502 -0.20799753639E+03  0.57540377390E+02 -0.10316259090E+02  0.21605623198E+03  0.00000000000E+00 0.  1.
<mgrwt>
<rscale>  0 0.21292663E+04</rscale>
<asrwt>0</asrwt>
<pdfrwt beam="1">  1        2 0.61146240E+00 0.21292663E+04</pdfrwt>
<pdfrwt beam="2">  1       -2 0.43873624E-01 0.21292663E+04</pdfrwt>
<totfact> 0.16378756E+00</totfact>
</mgrwt>
</event>
<event>
12    1  0.1442183E-007  0.1861991E+04  0.7818608E-02  0.8674011E-01
         -1   -1    0    0    0  501 -0.00000000000E+00  0.00000000000E+00  0.41202040285E+03  0.41202040285E+03  0.00000000000E+00 0.  1.
          1   -1    0    0  501    0  0.00000000000E+00 -0.00000000000E+00 -0.21036632349E+04  0.21036632349E+04  0.00000000000E+00 0. -1.
         23    2    1    2    0    0  0.33414192590E+03 -0.62199044593E+03 -0.56909685586E+03  0.91106481156E+03  0.87435221998E+02 0.  0.
        254    2    1    2    0    0 -0.33414192590E+03  0.62199044593E+03 -0.11225459762E+04  0.16046188262E+04  0.90342081401E+03 0.  0.
        -24    2    4    4    0    0 -0.56665409798E+03  0.12601116700E+03 -0.66754689139E+03  0.88811519735E+03  0.78447884508E+02 0.  0.
         24    2    4    4    0    0  0.23251217209E+03  0.49597927893E+03 -0.45499908477E+03  0.71650362881E+03  0.79346881836E+02 0.  0.
         11    1    3    3    0    0  0.20762214123E+03 -0.35811286623E+03 -0.38514831892E+03  0.56541224435E+03  0.00000000000E+00 0. -1.
        -11    1    3    3    0    0  0.12651978466E+03 -0.26387757970E+03 -0.18394853693E+03  0.34565256721E+03  0.00000000000E+00 0.  1.
          2    1    6    6  502    0  0.19371592019E+03  0.32860684253E+03 -0.32311556250E+03  0.49991197368E+03  0.00000000000E+00 0. -1.
          1    1    5    5  503    0 -0.35461312599E+03  0.64309941697E+02 -0.35909086541E+03  0.50875582291E+03  0.00000000000E+00 0. -1.
         -2    1    5    5    0  503 -0.21204097199E+03  0.61701225302E+02 -0.30845602598E+03  0.37935937443E+03  0.00000000000E+00 0.  1.
         -1    1    6    6    0  502  0.38796251898E+02  0.16737243640E+03 -0.13188352227E+03  0.21659165514E+03  0.00000000000E+00 0.  1.
<mgrwt>
<rscale>  0 0.18619905E+04</rscale>
<asrwt>0</asrwt>
<pdfrwt beam="1">  1        1 0.32364049E+00 0.18619905E+04</pdfrwt>
<pdfrwt beam="2">  1       -1 0.63387756E-01 0.18619905E+04</pdfrwt>
<totfact> 0.60043725E+00</totfact>
</mgrwt>
</event>
<event>
12    1  0.1442183E-007  0.1695434E+04  0.7818608E-02  0.8763973E-01
          2   -1    0    0  501    0  0.00000000000E+00  0.00000000000E+00  0.15982636967E+04  0.15982636967E+04  0.00000000000E+00 0. -1.
         -2   -1    0    0    0  501 -0.00000000000E+00 -0.00000000000E+00 -0.44962821642E+03  0.44962821642E+03  0.00000000000E+00 0.  1.
         23    2    1    2    0    0 -0.22017968801E+02  0.30816502978E+02  0.11406823673E+04  0.11451407899E+04  0.93577335887E+02 0.  0.
        254    2    1    2    0    0  0.22017968801E+02 -0.30816502978E+02  0.79531130346E+01  0.90275112328E+03  0.90192122204E+03 0.  0.
        -24    2    4    4    0    0  0.42422714625E+03  0.13502789251E+03  0.65363009757E+02  0.45684262173E+03  0.78940829824E+02 0.  0.
         24    2    4    4    0    0 -0.40220917745E+03 -0.16584439548E+03 -0.57409896723E+02  0.44590850155E+03  0.79132228383E+02 0.  0.
         11    1    3    3    0    0  0.20888404336E+01  0.36509092121E+02  0.15920365309E+03  0.16334956449E+03  0.00000000000E+00 0.  1.
        -11    1    3    3    0    0 -0.24106809234E+02 -0.56925891432E+01  0.98147871419E+03  0.98179122538E+03  0.00000000000E+00 0. -1.
          4    1    6    6  502    0 -0.11824899597E+03 -0.21793284688E+02  0.92540253505E+01  0.12059605836E+03  0.00000000000E+00 0. -1.
          1    1    5    5  503    0  0.32574389488E+01  0.52176770487E+01 -0.81613471268E+01  0.10219718647E+02  0.00000000000E+00 0. -1.
         -2    1    5    5    0  503  0.42096970730E+03  0.12981021546E+03  0.73524356884E+02  0.44662290309E+03  0.00000000000E+00 0.  1.
         -3    1    6    6    0  502 -0.28396018148E+03 -0.14405111080E+03 -0.66663922073E+02  0.32531244319E+03  0.00000000000E+00 0.  1.
<mgrwt>
<rscale>  0 0.16954344E+04</rscale>
<asrwt>0</asrwt>
<pdfrwt beam="1">  1        2 0.24588672E+00 0.16954344E+04</pdfrwt>
<pdfrwt beam="2">  1       -2 0.69173573E-01 0.16954344E+04</pdfrwt>
<totfact> 0.20295126E+01</totfact>
</mgrwt>
</event>
<event>
12    1  0.1442183E-007  0.1676715E+04  0.7818608E-02  0.8774757E-01
          1   -1    0    0  501    0  0.00000000000E+00  0.00000000000E+00  0.61293808969E+03  0.61293808969E+03  0.00000000000E+00 0. -1.
         -1   -1    0    0    0  501 -0.00000000000E+00 -0.00000000000E+00 -0.11466791091E+04  0.11466791091E+04  0.00000000000E+00 0.  1.
         23    2    1    2    0    0  0.44762781458E+03 -0.14813597522E+03  0.19607915675E+03  0.52286391878E+03  0.11235975398E+03 0.  0.
        254    2    1    2    0    0 -0.44762781458E+03  0.14813597522E+03 -0.72982017619E+03  0.12367532800E+04  0.88011718457E+03 0.  0.
        -24    2    4    4    0    0 -0.48005766301E+03 -0.24625556963E+03 -0.22278208331E+03  0.58900076719E+03  0.78694864664E+02 0.  0.
         24    2    4    4    0    0  0.32429848434E+02  0.39439154484E+03 -0.50703809289E+03  0.64775251285E+03  0.76806930375E+02 0.  0.
         11    1    3    3    0    0  0.14436001395E+03 -0.13336005938E+02  0.17601000117E+02  0.14603923406E+03  0.00000000000E+00 0.  1.
        -11    1    3    3    0    0  0.30326780063E+03 -0.13479996928E+03  0.17847815663E+03  0.37682468472E+03  0.00000000000E+00 0. -1.
          4    1    6    6  502    0 -0.20384077117E+02  0.46407006295E+02 -0.54069379722E+02  0.74112203156E+02  0.00000000000E+00 0. -1.
          1    1    5    5  503    0 -0.33804411362E+03 -0.21239923549E+03 -0.16111005220E+03  0.43051562912E+03  0.00000000000E+00 0. -1.
         -2    1    5    5    0  503 -0.14201354939E+03 -0.33856334133E+02 -0.61672031104E+02  0.15848513807E+03  0.00000000000E+00 0.  1.
         -3    1    6    6    0  502  0.52813925551E+02  0.34798453855E+03 -0.45296871317E+03  0.57364030970E+03  0.00000000000E+00 0.  1.
<mgrwt>
<rscale>  0 0.16767150E+04</rscale>
<asrwt>0</asrwt>
<pdfrwt beam="1">  1        1 0.94298167E-01 0.16767150E+04</pdfrwt>
<pdfrwt beam="2">  1       -1 0.17641217E+00 0.16767150E+04</pdfrwt>
<totfact> 0.69926648E+00</totfact>
</mgrwt>
</event>
<event>
12    1  0.1442183E-007  0.2313791E+04  0.7818608E-02  0.8472503E-01
         -2   -1    0    0    0  501 -0.00000000000E+00  0.00000000000E+00  0.10189970290E+04  0.10189970290E+04  0.00000000000E+00 0.  1.
          2   -1    0    0  501    0  0.00000000000E+00 -0.00000000000E+00 -0.13134551797E+04  0.13134551797E+04  0.00000000000E+00 0. -1.
         23    2    1    2    0    0  0.13961622610E+03  0.15045013131E+03 -0.10936660022E+04  0.11167744249E+04  0.94614264723E+02 0.  0.
        254    2    1    2    0    0 -0.13961622610E+03 -0.15045013131E+03  0.79920785151E+03  0.12156777839E+04  0.89275492256E+03 0.  0.
        -24    2    4    4    0    0 -0.84585694862E+02  0.23429268274E+03  0.77519183818E+03  0.81818070358E+03  0.80308634492E+02 0.  0.
         24    2    4    4    0    0 -0.55030531236E+02 -0.38474281405E+03  0.24016013327E+02  0.39749708031E+03  0.79823352676E+02 0.  0.
         13    1    3    3    0    0  0.11869367120E+03  0.94456443248E+02 -0.57488783188E+03  0.59456389606E+03  0.00000000000E+00 0.  1.
        -13    1    3    3    0    0  0.20922554895E+02  0.55993688059E+02 -0.51877817030E+03  0.52221052880E+03  0.00000000000E+00 0. -1.
          2    1    6    6  502    0 -0.53261049307E+02 -0.11218308642E+03  0.94125923872E+01  0.12454068069E+03  0.00000000000E+00 0. -1.
          1    1    5    5  503    0  0.14684335158E+02  0.30481204062E+02  0.12953634418E+03  0.13388203002E+03  0.00000000000E+00 0. -1.
         -2    1    5    5    0  503 -0.99270030020E+02  0.20381147868E+03  0.64565549401E+03  0.68429867356E+03  0.00000000000E+00 0.  1.
         -1    1    6    6    0  502 -0.17694819286E+01 -0.27255972763E+03  0.14603420940E+02  0.27295639962E+03  0.00000000000E+00 0.  1.
<mgrwt>
<rscale>  0 0.23137908E+04</rscale>
<asrwt>0</asrwt>
<pdfrwt beam="1">  1        2 0.20207003E+00 0.23137908E+04</pdfrwt>
<pdfrwt beam="2">  1       -2 0.15676877E+00 0.23137908E+04</pdfrwt>
<totfact> 0.39149699E+00</totfact>
</mgrwt>
</event>
<event>
12    1  0.1442183E-007  0.2599910E+04  0.7818608E-02  0.8368232E-01
         -2   -1    0    0    0  501 -0.00000000000E+00  0.00000000000E+00  0.44549519925E+03  0.44549519925E+03  0.00000000000E+00 0.  1.
          2   -1    0    0  501    0  0.00000000000E+00 -0.00000000000E+00 -0.37932684084E+04  0.37932684084E+04  0.00000000000E+00 0. -1.
         23    2    1    2    0    0  0.77147898687E+03  0.83944061503E+03 -0.14835635871E+04  0.18733193593E+04  0.92326223968E+02 0.  0.
        254    2    1    2    0    0 -0.77147898687E+03 -0.83944061503E+03 -0.18642096220E+04  0.23654442484E+04  0.90565368865E+03 0.  0.
        -24    2    4    4    0    0 -0.19804183715E+03 -0.37371177552E+03 -0.14544405515E+04  0.15167667677E+04  0.79391746827E+02 0.  0.
         24    2    4    4    0    0 -0.57343714972E+03 -0.46572883951E+03 -0.40976907058E+03  0.84867748063E+03  0.81297344941E+02 0.  0.
         11    1    3    3    0    0  0.24442570132E+02  0.24120027272E+02 -0.75488767408E+02  0.82932315505E+02  0.00000000000E+00 0. -1.
        -11    1    3    3    0    0  0.74703641674E+03  0.81532058776E+03 -0.14080748197E+04  0.17903870438E+04  0.00000000000E+00 0.  1.
          2    1    6    6  502    0 -0.76722766804E+02 -0.57943869340E+02 -0.23897536170E+02  0.99070516174E+02  0.00000000000E+00 0. -1.
          3    1    5    5  503    0 -0.19840610686E+02 -0.11028562531E+03 -0.40131016752E+03  0.41666103674E+03  0.00000000000E+00 0. -1.
         -4    1    5    5    0  503 -0.17820122646E+03 -0.26342615020E+03 -0.10531303840E+04  0.11001057310E+04  0.00000000000E+00 0.  1.
         -1    1    6    6    0  502 -0.49671438292E+03 -0.40778497017E+03 -0.38587153441E+03  0.74960696446E+03  0.00000000000E+00 0.  1.
<mgrwt>
<rscale>  0 0.25999099E+04</rscale>
<asrwt>0</asrwt>
<pdfrwt beam="1">  1        2 0.58357978E+00 0.25999099E+04</pdfrwt>
<pdfrwt beam="2">  1       -2 0.68537720E-01 0.25999099E+04</pdfrwt>
<totfact> 0.85702941E-01</totfact>
</mgrwt>
</event>
<event>
12    1  0.1442183E-007  0.1979770E+04  0.7818608E-02  0.8616138E-01
          2   -1    0    0  501    0  0.00000000000E+00  0.00000000000E+00  0.85009770608E+03  0.85009770608E+03  0.00000000000E+00 0. -1.
         -2   -1    0    0    0  501 -0.00000000000E+00 -0.00000000000E+00 -0.11526584395E+04  0.11526584395E+04  0.00000000000E+00 0.  1.
         23    2    1    2    0    0 -0.31982017000E+03 -0.32847242280E+03 -0.75532666358E+03  0.88792578847E+03  0.87833725966E+02 0.  0.
        254    2    1    2    0    0  0.31982017000E+03  0.32847242280E+03  0.45276593014E+03  0.11148303571E+04  0.90976407052E+03 0.  0.
        -24    2    4    4    0    0  0.54083970470E+03  0.31352602544E+03  0.57082718484E+03  0.85033499771E+03  0.80123520703E+02 0.  0.
         24    2    4    4    0    0 -0.22101953470E+03  0.14946397361E+02 -0.11806125470E+03  0.26449535942E+03  0.83344500610E+02 0.  0.
         13    1    3    3    0    0 -0.43701253658E+02 -0.71336483392E+02 -0.88694086638E+02  0.12192347780E+03  0.00000000000E+00 0. -1.
        -13    1    3    3    0    0 -0.27611891634E+03 -0.25713593941E+03 -0.66663257695E+03  0.76600231067E+03  0.00000000000E+00 0.  1.
          4    1    6    6  502    0 -0.68610727373E+02  0.14672237074E+02  0.24396012936E+01  0.70204402325E+02  0.00000000000E+00 0. -1.
          1    1    5    5  503    0  0.53125783193E+02  0.24709194119E+02  0.88175457015E+02  0.10586691803E+03  0.00000000000E+00 0. -1.
         -2    1    5    5    0  503  0.48771392151E+03  0.28881683133E+03  0.48265172783E+03  0.74446807968E+03  0.00000000000E+00 0.  1.
         -3    1    6    6    0  502 -0.15240880733E+03  0.27416028735E+00 -0.12050085599E+03  0.19429095710E+03  0.00000000000E+00 0.  1.
<mgrwt>
<rscale>  0 0.19797700E+04</rscale>
<asrwt>0</asrwt>
<pdfrwt beam="1">  1        2 0.13078426E+00 0.19797700E+04</pdfrwt>
<pdfrwt beam="2">  1       -2 0.17733207E+00 0.19797700E+04</pdfrwt>
<totfact> 0.55857264E+00</totfact>
</mgrwt>
</event>
<event>
12    1  0.1442183E-007  0.1809142E+04  0.7818608E-02  0.8701453E-01
         -4   -1    0    0    0  501 -0.00000000000E+00  0.00000000000E+00  0.36976911071E+03  0.36976911071E+03  0.00000000000E+00 0. -1.
          4   -1    0    0  501    0  0.00000000000E+00 -0.00000000000E+00 -0.22128647062E+04  0.22128647062E+04  0.00000000000E+00 0.  1.
         23    2    1    2    0    0  0.62208830796E+02  0.25550210242E+03  0.19448116347E+03  0.34013130178E+03  0.93354788519E+02 0.  0.
        254    2    1    2    0    0 -0.62208830796E+02 -0.25550210242E+03 -0.20375767590E+04  0.22425025151E+04  0.89885884249E+03 0.  0.
        -24    2    4    4    0    0 -0.44065276232E+03 -0.15104633491E+02 -0.13073870641E+04  0.13820763945E+04  0.80443880360E+02 0.  0.
         24    2    4    4    0    0  0.37844393153E+03 -0.24039746892E+03 -0.73018969484E+03  0.86042612063E+03  0.78392386386E+02 0.  0.
         13    1    3    3    0    0  0.39300230992E+02  0.64162310830E+02  0.14863191310E+02  0.76695663130E+02  0.00000000000E+00 0.  1.
        -13    1    3    3    0    0  0.22908599804E+02  0.19133979159E+03  0.17961797216E+03  0.26343563865E+03  0.00000000000E+00 0. -1.
          4    1    6    6  502    0  0.25519358164E+03 -0.20360583748E+03 -0.52979509327E+03  0.62230373776E+03  0.00000000000E+00 0. -1.
          3    1    5    5  503    0 -0.42087274244E+03 -0.25735264102E+02 -0.12729114480E+04  0.13409324083E+04  0.00000000000E+00 0. -1.
         -4    1    5    5    0  503 -0.19780019882E+02  0.10630630611E+02 -0.34475616105E+02  0.41143986190E+02  0.00000000000E+00 0.  1.
         -3    1    6    6    0  502  0.12325034988E+03 -0.36791631447E+02 -0.20039460156E+03  0.23812238287E+03  0.00000000000E+00 0.  1.
<mgrwt>
<rscale>  0 0.18091424E+04</rscale>
<asrwt>0</asrwt>
<pdfrwt beam="1">  1        4 0.34044072E+00 0.18091424E+04</pdfrwt>
<pdfrwt beam="2">  1       -4 0.56887556E-01 0.18091424E+04</pdfrwt>
<totfact> 0.95396072E-02</totfact>
</mgrwt>
</event>
<event>
12    1  0.1442183E-007  0.1313592E+04  0.7818608E-02  0.9018855E-01
         -2   -1    0    0    0  501 -0.00000000000E+00  0.00000000000E+00  0.25261392718E+03  0.25261392718E+03  0.00000000000E+00 0.  1.
          2   -1    0    0  501    0  0.00000000000E+00 -0.00000000000E+00 -0.17076696948E+04  0.17076696948E+04  0.00000000000E+00 0. -1.
         23    2    1    2    0    0  0.29418794403E+03 -0.31226266746E+02 -0.12037237439E+03  0.33193382496E+03  0.90382130393E+02 0.  0.
        254    2    1    2    0    0 -0.29418794403E+03  0.31226266746E+02 -0.13346833932E+04  0.16283497970E+04  0.88465907281E+03 0.  0.
        -24    2    4    4    0    0 -0.32964223472E+03  0.41680531563E+03 -0.76807776082E+03  0.93750806518E+03  0.81161884893E+02 0.  0.
         24    2    4    4    0    0  0.35454290689E+02 -0.38557904888E+03 -0.56660563239E+03  0.69084173182E+03  0.79323048945E+02 0.  0.
         11    1    3    3    0    0  0.62808757679E+02 -0.51142752373E+01 -0.69077364890E+02  0.93502824517E+02  0.00000000000E+00 0. -1.
        -11    1    3    3    0    0  0.23137918635E+03 -0.26111991509E+02 -0.51295009498E+02  0.23843100045E+03  0.00000000000E+00 0.  1.
          2    1    6    6  502    0 -0.20107553462E+02 -0.38921249043E+02 -0.54029517045E+02  0.69558364310E+02  0.00000000000E+00 0. -1.
          3    1    5    5  503    0 -0.17180612803E+03  0.26164350218E+03 -0.39861026939E+03  0.50681832517E+03  0.00000000000E+00 0. -1.
         -4    1    5    5    0  503 -0.15783610669E+03  0.15516181345E+03 -0.36946749143E+03  0.43068974001E+03  0.00000000000E+00 0.  1.
         -1    1    6    6    0  502  0.55561844152E+02 -0.34665779984E+03 -0.51257611535E+03  0.62128336751E+03  0.00000000000E+00 0.  1.
<mgrwt>
<rscale>  0 0.13135922E+04</rscale>
<asrwt>0</asrwt>
<pdfrwt beam="1">  1        2 0.26271842E+00 0.13135922E+04</pdfrwt>
<pdfrwt beam="2">  1       -2 0.38863680E-01 0.13135922E+04</pdfrwt>
<totfact> 0.59494403E+01</totfact>
</mgrwt>
</event>
<event>
12    1  0.1442183E-007  0.1918576E+04  0.7818608E-02  0.8645665E-01
          1   -1    0    0  501    0  0.00000000000E+00  0.00000000000E+00  0.17565999450E+04  0.17565999450E+04  0.00000000000E+00 0. -1.
         -1   -1    0    0    0  501 -0.00000000000E+00 -0.00000000000E+00 -0.52387182942E+03  0.52387182942E+03  0.00000000000E+00 0.  1.
         23    2    1    2    0    0 -0.51336891314E+03 -0.16641953883E+03  0.10841413246E+04  0.12150802984E+04  0.99068743985E+02 0.  0.
        254    2    1    2    0    0  0.51336891314E+03  0.16641953883E+03  0.14858679094E+03  0.10653914760E+04  0.90649757790E+03 0.  0.
        -24    2    4    4    0    0  0.30835575008E+03  0.15696784268E+03  0.52230054818E+03  0.63165050376E+03  0.80388581447E+02 0.  0.
         24    2    4    4    0    0  0.20501316306E+03  0.94516961518E+01 -0.37371375723E+03  0.43374097221E+03  0.79683919589E+02 0.  0.
         13    1    3    3    0    0 -0.45773157670E+03 -0.15241533828E+03  0.10240339071E+04  0.11319867820E+04  0.00000000000E+00 0. -1.
        -13    1    3    3    0    0 -0.55637336438E+02 -0.14004200554E+02  0.60107417489E+02  0.83093516451E+02  0.00000000000E+00 0.  1.
          4    1    6    6  502    0  0.40906286352E+02 -0.59840584177E+00 -0.15387815194E+03  0.15922364145E+03  0.00000000000E+00 0. -1.
          1    1    5    5  503    0  0.12341460371E+03  0.87778330915E+02  0.16912507709E+03  0.22702310783E+03  0.00000000000E+00 0. -1.
         -2    1    5    5    0  503  0.18494114637E+03  0.69189511768E+02  0.35317547109E+03  0.40462739593E+03  0.00000000000E+00 0.  1.
         -3    1    6    6    0  502  0.16410687671E+03  0.10050101994E+02 -0.21983560530E+03  0.27451733076E+03  0.00000000000E+00 0.  1.
<mgrwt>
<rscale>  0 0.19185757E+04</rscale>
<asrwt>0</asrwt>
<pdfrwt beam="1">  1        1 0.27024614E+00 0.19185757E+04</pdfrwt>
<pdfrwt beam="2">  1       -1 0.80595667E-01 0.19185757E+04</pdfrwt>
<totfact> 0.62538217E+00</totfact>
</mgrwt>
</event>
<event>
12    1  0.1442183E-007  0.1983859E+04  0.7818608E-02  0.8614205E-01
         -2   -1    0    0    0  501 -0.00000000000E+00  0.00000000000E+00  0.38611963473E+03  0.38611963473E+03  0.00000000000E+00 0.  1.
          2   -1    0    0  501    0  0.00000000000E+00 -0.00000000000E+00 -0.25482359616E+04  0.25482359616E+04  0.00000000000E+00 0. -1.
         23    2    1    2    0    0 -0.68898742678E+03  0.16869393553E+03 -0.36022869630E+03  0.79976362743E+03  0.81828039067E+02 0.  0.
        254    2    1    2    0    0  0.68898742678E+03 -0.16869393553E+03 -0.18018876306E+04  0.21345919689E+04  0.89806598999E+03 0.  0.
        -24    2    4    4    0    0  0.47008342994E+03  0.68883354130E+01 -0.21889228153E+03  0.52494986761E+03  0.81441097255E+02 0.  0.
         24    2    4    4    0    0  0.21890399684E+03 -0.17558227094E+03 -0.15829953490E+04  0.16096421013E+04  0.79531914907E+02 0.  0.
         13    1    3    3    0    0 -0.52317379156E+03  0.95644827005E+02 -0.24994943780E+03  0.58765080666E+03  0.00000000000E+00 0.  1.
        -13    1    3    3    0    0 -0.16581363522E+03  0.73049108524E+02 -0.11027925850E+03  0.21211282077E+03  0.00000000000E+00 0. -1.
          2    1    6    6  502    0  0.19892980838E+02 -0.29659680150E+02 -0.98488994784E+02  0.10476406544E+03  0.00000000000E+00 0. -1.
          1    1    5    5  503    0  0.16797360097E+03  0.39161293347E+02 -0.64502614623E+02  0.18414484737E+03  0.00000000000E+00 0. -1.
         -2    1    5    5    0  503  0.30210982897E+03 -0.32272957934E+02 -0.15438966691E+03  0.34080502024E+03  0.00000000000E+00 0.  1.
         -1    1    6    6    0  502  0.19901101601E+03 -0.14592259079E+03 -0.14845063543E+04  0.15048780359E+04  0.00000000000E+00 0.  1.
<mgrwt>
<rscale>  0 0.19838588E+04</rscale>
<asrwt>0</asrwt>
<pdfrwt beam="1">  1        2 0.39203632E+00 0.19838588E+04</pdfrwt>
<pdfrwt beam="2">  1       -2 0.59403018E-01 0.19838588E+04</pdfrwt>
<totfact> 0.80361951E+00</totfact>
</mgrwt>
</event>
<event>
12    1  0.1442183E-007  0.1555948E+04  0.7818608E-02  0.8848077E-01
         -2   -1    0    0    0  501 -0.00000000000E+00  0.00000000000E+00  0.11684435705E+04  0.11684435705E+04  0.00000000000E+00 0.  1.
          2   -1    0    0  501    0  0.00000000000E+00 -0.00000000000E+00 -0.51799130486E+03  0.51799130486E+03  0.00000000000E+00 0. -1.
         23    2    1    2    0    0 -0.24370597732E+03 -0.21420883248E+03 -0.21314345142E+03  0.39871652347E+03  0.90921438102E+02 0.  0.
        254    2    1    2    0    0  0.24370597732E+03  0.21420883248E+03  0.86359571705E+03  0.12877183519E+04  0.89841135564E+03 0.  0.
        -24    2    4    4    0    0 -0.16991679168E+03  0.32620196281E+03  0.72252780103E+02  0.38416659186E+03  0.84166914141E+02 0.  0.
         24    2    4    4    0    0  0.41362276900E+03 -0.11199313032E+03  0.79134293695E+03  0.90355176001E+03  0.80968406714E+02 0.  0.
         13    1    3    3    0    0 -0.13863508072E+03 -0.80771948786E+02 -0.64188340192E+02  0.17281185241E+03  0.00000000000E+00 0.  1.
        -13    1    3    3    0    0 -0.10507089659E+03 -0.13343688370E+03 -0.14895511123E+03  0.22590467106E+03  0.00000000000E+00 0. -1.
          4    1    6    6  502    0  0.12239623471E+03 -0.69360116891E+02  0.22680257772E+03  0.26689150108E+03  0.00000000000E+00 0. -1.
          3    1    5    5  503    0 -0.84548728923E+02  0.16837509226E+03  0.79705236461E+02  0.20457659684E+03  0.00000000000E+00 0. -1.
         -4    1    5    5    0  503 -0.85368062758E+02  0.15782687054E+03 -0.74524563582E+01  0.17958999502E+03  0.00000000000E+00 0.  1.
         -3    1    6    6    0  502  0.29122653428E+03 -0.42633013433E+02  0.56454035923E+03  0.63666025893E+03  0.00000000000E+00 0.  1.
<mgrwt>
<rscale>  0 0.15559481E+04</rscale>
<asrwt>0</asrwt>
<pdfrwt beam="1">  1        2 0.79690970E-01 0.15559481E+04</pdfrwt>
<pdfrwt beam="2">  1       -2 0.17976055E+00 0.15559481E+04</pdfrwt>
<totfact> 0.10337006E+01</totfact>
</mgrwt>
</event>
<event>
12    1  0.1442183E-007  0.1363883E+04  0.7818608E-02  0.8980385E-01
         -1   -1    0    0    0  501 -0.00000000000E+00  0.00000000000E+00  0.46486384354E+03  0.46486384354E+03  0.00000000000E+00 0.  1.
          1   -1    0    0  501    0  0.00000000000E+00 -0.00000000000E+00 -0.10003885465E+04  0.10003885465E+04  0.00000000000E+00 0. -1.
         23    2    1    2    0    0 -0.25620047996E+03 -0.19276423914E+03  0.61545052385E+02  0.33784460816E+03  0.86916327398E+02 0.  0.
        254    2    1    2    0    0  0.25620047996E+03  0.19276423914E+03 -0.59706975534E+03  0.11274077819E+04  0.90097684546E+03 0.  0.
        -24    2    4    4    0    0 -0.20619905285E+03  0.17297564933E+02 -0.58504163946E+03  0.62614523692E+03  0.83467854114E+02 0.  0.
         24    2    4    4    0    0  0.46239953282E+03  0.17546667421E+03 -0.12028115887E+02  0.50126254495E+03  0.80731540874E+02 0.  0.
         11    1    3    3    0    0 -0.17578579015E+03 -0.81718203891E+02  0.21671996689E+02  0.19505943788E+03  0.00000000000E+00 0. -1.
        -11    1    3    3    0    0 -0.80414689809E+02 -0.11104603525E+03  0.39873055696E+02  0.14278517028E+03  0.00000000000E+00 0.  1.
          4    1    6    6  502    0  0.16182947266E+03  0.10059730115E+03  0.92981902769E+01  0.19077487141E+03  0.00000000000E+00 0. -1.
          1    1    5    5  503    0 -0.94220921755E+02  0.20705093015E+02 -0.38466478515E+03  0.39657695332E+03  0.00000000000E+00 0. -1.
         -2    1    5    5    0  503 -0.11197813110E+03 -0.34075280826E+01 -0.20037685431E+03  0.22956828360E+03  0.00000000000E+00 0.  1.
         -3    1    6    6    0  502  0.30057006015E+03  0.74869373057E+02 -0.21326306164E+02  0.31048767353E+03  0.00000000000E+00 0.  1.
<mgrwt>
<rscale>  0 0.13638834E+04</rscale>
<asrwt>0</asrwt>
<pdfrwt beam="1">  1        1 0.15390593E+00 0.13638834E+04</pdfrwt>
<pdfrwt beam="2">  1       -1 0.71517514E-01 0.13638834E+04</pdfrwt>
<totfact> 0.29189021E+01</totfact>
</mgrwt>
</event>
<event>
12    1  0.1442183E-007  0.1424960E+04  0.7818608E-02  0.8935946E-01
         -1   -1    0    0    0  501 -0.00000000000E+00  0.00000000000E+00  0.24564784759E+03  0.24564784759E+03  0.00000000000E+00 0.  1.
          1   -1    0    0  501    0  0.00000000000E+00 -0.00000000000E+00 -0.20664870803E+04  0.20664870803E+04  0.00000000000E+00 0. -1.
         23    2    1    2    0    0 -0.24699702038E+03 -0.14780591109E+03 -0.10483918967E+04  0.10898000486E+04  0.75395367625E+02 0.  0.
        254    2    1    2    0    0  0.24699702038E+03  0.14780591109E+03 -0.77244733596E+03  0.12223348792E+04  0.90253728717E+03 0.  0.
        -24    2    4    4    0    0  0.50806836024E+03 -0.15668705413E+03 -0.45801670777E+03  0.70648867011E+03  0.81625025499E+02 0.  0.
         24    2    4    4    0    0 -0.26107133985E+03  0.30449296522E+03 -0.31443062819E+03  0.51584620913E+03  0.79727543356E+02 0.  0.
         11    1    3    3    0    0 -0.81773062055E+02 -0.62142611271E+02 -0.25575375827E+03  0.27560573775E+03  0.00000000000E+00 0.  1.
        -11    1    3    3    0    0 -0.16522395833E+03 -0.85663299821E+02 -0.79263813847E+03  0.81419431089E+03  0.00000000000E+00 0. -1.
          2    1    6    6  502    0 -0.12266291404E+02  0.41888699750E+02 -0.57253760964E+02  0.71993876240E+02  0.00000000000E+00 0. -1.
          3    1    5    5  503    0  0.15284118024E+03 -0.36380661110E+02 -0.18431907274E+03  0.24219310365E+03  0.00000000000E+00 0. -1.
         -4    1    5    5    0  503  0.35522718000E+03 -0.12030639302E+03 -0.27369763503E+03  0.46429556645E+03  0.00000000000E+00 0.  1.
         -1    1    6    6    0  502 -0.24880504845E+03  0.26260426547E+03 -0.25717686723E+03  0.44385233289E+03  0.00000000000E+00 0.  1.
<mgrwt>
<rscale>  0 0.14249605E+04</rscale>
<asrwt>0</asrwt>
<pdfrwt beam="1">  1        1 0.31792109E+00 0.14249605E+04</pdfrwt>
<pdfrwt beam="2">  1       -1 0.37791976E-01 0.14249605E+04</pdfrwt>
<totfact> 0.17675837E+01</totfact>
</mgrwt>
</event>
<event>
12    1  0.1442183E-007  0.2152102E+04  0.7818608E-02  0.8538633E-01
         -2   -1    0    0    0  501 -0.00000000000E+00  0.00000000000E+00  0.80566446796E+03  0.80566446796E+03  0.00000000000E+00 0.  1.
          2   -1    0    0  501    0  0.00000000000E+00 -0.00000000000E+00 -0.14371815004E+04  0.14371815004E+04  0.00000000000E+00 0. -1.
         23    2    1    2    0    0 -0.44097703766E+03 -0.17288735037E+03 -0.10363345158E+04  0.11431245754E+04  0.91617589448E+02 0.  0.
        254    2    1    2    0    0  0.44097703766E+03  0.17288735037E+03  0.40481748328E+03  0.10997213930E+04  0.90617832889E+03 0.  0.
        -24    2    4    4    0    0 -0.12049255139E+03 -0.16206918633E+03 -0.12863654178E+03  0.25226711218E+03  0.79413222495E+02 0.  0.
         24    2    4    4    0    0  0.56146958906E+03  0.33495653670E+03  0.53345402506E+03  0.84745428081E+03  0.78495734234E+02 0.  0.
         13    1    3    3    0    0 -0.43676399115E+01 -0.13777827477E+02 -0.61786384381E+02  0.63454409644E+02  0.00000000000E+00 0.  1.
        -13    1    3    3    0    0 -0.43660939775E+03 -0.15910952290E+03 -0.97454813139E+03  0.10796701658E+04  0.00000000000E+00 0. -1.
          4    1    6    6  502    0  0.18100925363E+03  0.13223117507E+03  0.14356482080E+03  0.26619596415E+03  0.00000000000E+00 0. -1.
          1    1    5    5  503    0 -0.70391441643E+02 -0.11936435153E+03 -0.44723622804E+02  0.14561251976E+03  0.00000000000E+00 0. -1.
         -2    1    5    5    0  503 -0.50101109750E+02 -0.42704834795E+02 -0.83912918977E+02  0.10665459242E+03  0.00000000000E+00 0.  1.
         -3    1    6    6    0  502  0.38046033542E+03  0.20272536163E+03  0.38988920426E+03  0.58125831665E+03  0.00000000000E+00 0.  1.
<mgrwt>
<rscale>  0 0.21521023E+04</rscale>
<asrwt>0</asrwt>
<pdfrwt beam="1">  1        2 0.22110484E+00 0.21521023E+04</pdfrwt>
<pdfrwt beam="2">  1       -2 0.12394838E+00 0.21521023E+04</pdfrwt>
<totfact> 0.61939702E+00</totfact>
</mgrwt>
</event>
<event>
12    1  0.1442183E-007  0.1747928E+04  0.7818608E-02  0.8734492E-01
          2   -1    0    0  501    0  0.00000000000E+00  0.00000000000E+00  0.69272282730E+03  0.69272282730E+03  0.00000000000E+00 0.  1.
         -2   -1    0    0    0  501 -0.00000000000E+00 -0.00000000000E+00 -0.11026239142E+04  0.11026239142E+04  0.00000000000E+00 0. -1.
         23    2    1    2    0    0 -0.18221057057E+03  0.43543317398E+03 -0.59186237170E+03  0.76249496767E+03  0.91075615143E+02 0.  0.
        254    2    1    2    0    0  0.18221057057E+03 -0.43543317398E+03  0.18196128480E+03  0.10328517738E+04  0.90048327941E+03 0.  0.
        -24    2    4    4    0    0  0.22284175501E+03  0.21868437332E+03 -0.63669459108E+02  0.32843693612E+03  0.79597224037E+02 0.  0.
         24    2    4    4    0    0 -0.40631184444E+02 -0.65411754730E+03  0.24563074390E+03  0.70441483770E+03  0.79656402043E+02 0.  0.
         11    1    3    3    0    0 -0.17590989408E+03  0.33774793224E+03 -0.44109787891E+03  0.58273947468E+03  0.00000000000E+00 0. -1.
        -11    1    3    3    0    0 -0.63006764806E+01  0.97685241740E+02 -0.15076449279E+03  0.17975549300E+03  0.00000000000E+00 0.  1.
          2    1    6    6  502    0 -0.15463728098E+02 -0.60004032456E+03  0.22957643543E+03  0.64264520359E+03  0.00000000000E+00 0. -1.
          1    1    5    5  503    0  0.15142470174E+03  0.19091786705E+03 -0.33001733757E+02  0.24590279926E+03  0.00000000000E+00 0. -1.
         -2    1    5    5    0  503  0.71417053269E+02  0.27766506274E+02 -0.30667725352E+02  0.82534136856E+02  0.00000000000E+00 0.  1.
         -1    1    6    6    0  502 -0.25167456347E+02 -0.54077222739E+02  0.16054308470E+02  0.61769634114E+02  0.00000000000E+00 0.  1.
<mgrwt>
<rscale>  0 0.17479276E+04</rscale>
<asrwt>0</asrwt>
<pdfrwt beam="1">  1        2 0.10657274E+00 0.17479276E+04</pdfrwt>
<pdfrwt beam="2">  1       -2 0.16963445E+00 0.17479276E+04</pdfrwt>
<totfact> 0.84331636E+00</totfact>
</mgrwt>
</event>
<event>
12    1  0.1442183E-007  0.1552012E+04  0.7818608E-02  0.8850583E-01
         -2   -1    0    0    0  501 -0.00000000000E+00  0.00000000000E+00  0.44879696544E+03  0.44879696544E+03  0.00000000000E+00 0.  1.
          2   -1    0    0  501    0  0.00000000000E+00 -0.00000000000E+00 -0.13417775195E+04  0.13417775195E+04  0.00000000000E+00 0. -1.
         23    2    1    2    0    0 -0.79726681415E+02  0.22414394735E+03 -0.81287689272E+03  0.85184983363E+03  0.91007930830E+02 0.  0.
        254    2    1    2    0    0  0.79726681415E+02 -0.22414394735E+03 -0.80103661375E+02  0.93872465135E+03  0.90453884473E+03 0.  0.
        -24    2    4    4    0    0  0.32242584641E+03 -0.16273845367E+03  0.30007776096E+03  0.47645643364E+03  0.80757908582E+02 0.  0.
         24    2    4    4    0    0 -0.24269916500E+03 -0.61405493675E+02 -0.38018142234E+03  0.46226821771E+03  0.80501378066E+02 0.  0.
         13    1    3    3    0    0 -0.58870775776E+02  0.22152343792E+03 -0.77862842801E+03  0.81166534403E+03  0.00000000000E+00 0. -1.
        -13    1    3    3    0    0 -0.20855905639E+02  0.26205094281E+01 -0.34248464713E+02  0.40184489606E+02  0.00000000000E+00 0.  1.
          2    1    6    6  502    0 -0.56255573078E+02  0.19761763205E+02 -0.86565414889E+02  0.10511321440E+03  0.00000000000E+00 0. -1.
          3    1    5    5  503    0  0.89900674731E+02 -0.80797608358E+02  0.72579144199E+02  0.14098977625E+03  0.00000000000E+00 0. -1.
         -4    1    5    5    0  503  0.23252517168E+03 -0.81940845313E+02  0.22749861676E+03  0.33546665740E+03  0.00000000000E+00 0.  1.
         -1    1    6    6    0  502 -0.18644359192E+03 -0.81167256880E+02 -0.29361600745E+03  0.35715500331E+03  0.00000000000E+00 0.  1.
<mgrwt>
<rscale>  0 0.15520125E+04</rscale>
<asrwt>0</asrwt>
<pdfrwt beam="1">  1        2 0.20642731E+00 0.15520125E+04</pdfrwt>
<pdfrwt beam="2">  1       -2 0.69045686E-01 0.15520125E+04</pdfrwt>
<totfact> 0.28817918E+01</totfact>
</mgrwt>
</event>
<event>
12    1  0.1442183E-007  0.2423722E+04  0.7818608E-02  0.8430675E-01
         -1   -1    0    0    0  501 -0.00000000000E+00  0.00000000000E+00  0.69122575835E+03  0.69122575835E+03  0.00000000000E+00 0. -1.
          1   -1    0    0  501    0  0.00000000000E+00 -0.00000000000E+00 -0.21246419821E+04  0.21246419821E+04  0.00000000000E+00 0.  1.
         23    2    1    2    0    0 -0.70787186696E+03 -0.69381884524E+03 -0.23893500757E+03  0.10236802560E+04  0.91455774336E+02 0.  0.
        254    2    1    2    0    0  0.70787186696E+03  0.69381884524E+03 -0.11944812161E+04  0.17921874844E+04  0.89592602010E+03 0.  0.
        -24    2    4    4    0    0  0.53850579256E+03  0.90034129959E+03 -0.87361611648E+03  0.13670797301E+04  0.71406758428E+02 0.  0.
         24    2    4    4    0    0  0.16936607441E+03 -0.20652245434E+03 -0.32086509965E+03  0.42510775429E+03  0.80161083269E+02 0.  0.
         11    1    3    3    0    0 -0.48736879514E+03 -0.42647767520E+03 -0.13120386693E+03  0.66077681907E+03  0.00000000000E+00 0.  1.
        -11    1    3    3    0    0 -0.22050307182E+03 -0.26734117005E+03 -0.10773114064E+03  0.36290343695E+03  0.00000000000E+00 0. -1.
          2    1    6    6  502    0  0.16927003650E+03 -0.21315724409E+03 -0.31222005847E+03  0.41420975468E+03  0.00000000000E+00 0. -1.
          1    1    5    5  503    0  0.30029191850E+03  0.56379935581E+03 -0.54974076321E+03  0.84276915977E+03  0.00000000000E+00 0. -1.
         -2    1    5    5    0  503  0.23821387405E+03  0.33654194378E+03 -0.32387535327E+03  0.52431057034E+03  0.00000000000E+00 0.  1.
         -1    1    6    6    0  502  0.96037906792E-01  0.66347897465E+01 -0.86450411835E+01  0.10897999602E+02  0.00000000000E+00 0.  1.
<mgrwt>
<rscale>  0 0.24237222E+04</rscale>
<asrwt>0</asrwt>
<pdfrwt beam="1">  1        1 0.32686799E+00 0.24237222E+04</pdfrwt>
<pdfrwt beam="2">  1       -1 0.10634243E+00 0.24237222E+04</pdfrwt>
<totfact> 0.18117678E+00</totfact>
</mgrwt>
</event>
<event>
12    1  0.1442183E-007  0.1450261E+04  0.7818608E-02  0.8918220E-01
         -2   -1    0    0    0  501 -0.00000000000E+00  0.00000000000E+00  0.23356056401E+03  0.23356056401E+03  0.00000000000E+00 0. -1.
          2   -1    0    0  501    0  0.00000000000E+00 -0.00000000000E+00 -0.22512956775E+04  0.22512956775E+04  0.00000000000E+00 0.  1.
         23    2    1    2    0    0  0.84473525017E+02  0.31188938500E+03 -0.11910228740E+03  0.35577075669E+03  0.89312437825E+02 0.  0.
        254    2    1    2    0    0 -0.84473525017E+02 -0.31188938500E+03 -0.18986328260E+04  0.21290854848E+04  0.90762747228E+03 0.  0.
        -24    2    4    4    0    0  0.62909229966E+02 -0.44800683533E+03 -0.38155395867E+03  0.59668778619E+03  0.76060469990E+02 0.  0.
         24    2    4    4    0    0 -0.14738275498E+03  0.13611745033E+03 -0.15170788674E+04  0.15323976986E+04  0.80403855971E+02 0.  0.
         11    1    3    3    0    0  0.79717970855E+02  0.31170491000E+03 -0.10124677200E+03  0.33729188344E+03  0.00000000000E+00 0. -1.
        -11    1    3    3    0    0  0.47555541622E+01  0.18447500030E+00 -0.17855515403E+02  0.18478873254E+02  0.00000000000E+00 0.  1.
          2    1    6    6  502    0 -0.12250438242E+03  0.14431456930E+03 -0.12905316383E+04  0.13043411855E+04  0.00000000000E+00 0. -1.
          1    1    5    5  503    0  0.51456338624E+02 -0.44055446322E+03 -0.36042812392E+03  0.57152814660E+03  0.00000000000E+00 0. -1.
         -2    1    5    5    0  503  0.11452891342E+02 -0.74523721061E+01 -0.21125834753E+02  0.25159639586E+02  0.00000000000E+00 0.  1.
         -1    1    6    6    0  502 -0.24878372562E+02 -0.81971189701E+01 -0.22654722906E+03  0.22805651312E+03  0.00000000000E+00 0.  1.
<mgrwt>
<rscale>  0 0.14502605E+04</rscale>
<asrwt>0</asrwt>
<pdfrwt beam="1">  1        2 0.34635319E+00 0.14502605E+04</pdfrwt>
<pdfrwt beam="2">  1       -2 0.35932394E-01 0.14502605E+04</pdfrwt>
<totfact> 0.34176960E+01</totfact>
</mgrwt>
</event>
<event>
12    1  0.1442183E-007  0.1129811E+04  0.7818608E-02  0.9176614E-01
          2   -1    0    0  501    0  0.00000000000E+00  0.00000000000E+00  0.30329016860E+03  0.30329016860E+03  0.00000000000E+00 0. -1.
         -2   -1    0    0    0  501 -0.00000000000E+00 -0.00000000000E+00 -0.10521872754E+04  0.10521872754E+04  0.00000000000E+00 0.  1.
         23    2    1    2    0    0  0.56733378097E+02 -0.14759107721E+03 -0.73452203833E+02  0.19617585823E+03  0.89932968610E+02 0.  0.
        254    2    1    2    0    0 -0.56733378097E+02  0.14759107721E+03 -0.67544490296E+03  0.11593015858E+04  0.92884473814E+03 0.  0.
        -24    2    4    4    0    0 -0.23581354523E+02  0.35424009564E+03  0.78096031848E+02  0.37306790054E+03  0.83896022436E+02 0.  0.
         24    2    4    4    0    0 -0.33152023574E+02 -0.20664901843E+03 -0.75354093481E+03  0.78623368523E+03  0.80849204515E+02 0.  0.
         13    1    3    3    0    0  0.57022106827E+02 -0.10597521660E+03 -0.10618520352E+02  0.12080985132E+03  0.00000000000E+00 0. -1.
        -13    1    3    3    0    0 -0.28872872904E+00 -0.41615860603E+02 -0.62833683481E+02  0.75366006911E+02  0.00000000000E+00 0.  1.
          2    1    6    6  502    0 -0.21022747908E+02 -0.18927261754E+03 -0.73056400816E+03  0.75497672130E+03  0.00000000000E+00 0. -1.
          1    1    5    5  503    0 -0.16798154747E+02  0.22602235795E+03  0.90557622701E+02  0.24406754664E+03  0.00000000000E+00 0. -1.
         -2    1    5    5    0  503 -0.67831997767E+01  0.12821773769E+03 -0.12461590853E+02  0.12900035390E+03  0.00000000000E+00 0.  1.
         -1    1    6    6    0  502 -0.12129275666E+02 -0.17376400888E+02 -0.22976926646E+02  0.31256963930E+02  0.00000000000E+00 0.  1.
<mgrwt>
<rscale>  0 0.11298107E+04</rscale>
<asrwt>0</asrwt>
<pdfrwt beam="1">  1        2 0.46660025E-01 0.11298107E+04</pdfrwt>
<pdfrwt beam="2">  1       -2 0.16187497E+00 0.11298107E+04</pdfrwt>
<totfact> 0.26199163E+01</totfact>
</mgrwt>
</event>
<event>
12    1  0.1442183E-007  0.3216184E+04  0.7818608E-02  0.8184556E-01
          1   -1    0    0  501    0  0.00000000000E+00  0.00000000000E+00  0.21279991502E+04  0.21279991502E+04  0.00000000000E+00 0. -1.
         -1   -1    0    0    0  501 -0.00000000000E+00 -0.00000000000E+00 -0.12152070215E+04  0.12152070215E+04  0.00000000000E+00 0.  1.
         23    2    1    2    0    0 -0.90803800009E+03  0.64699081794E+02  0.16320551691E+04  0.18713298190E+04  0.97735540414E+02 0.  0.
        254    2    1    2    0    0  0.90803800009E+03 -0.64699081794E+02 -0.71926304038E+03  0.14718763528E+04  0.90573820485E+03 0.  0.
        -24    2    4    4    0    0  0.54183797286E+03 -0.42592475565E+03 -0.64267481197E+03  0.94570876124E+03  0.79585556739E+02 0.  0.
         24    2    4    4    0    0  0.36620002723E+03  0.36122567385E+03 -0.76588228414E+02  0.52616759151E+03  0.80000813920E+02 0.  0.
         11    1    3    3    0    0 -0.26922123835E+03  0.32535417944E+02  0.40206960699E+03  0.48497278013E+03  0.00000000000E+00 0.  1.
        -11    1    3    3    0    0 -0.63881676174E+03  0.32163663850E+02  0.12299855621E+04  0.13863570389E+04  0.00000000000E+00 0. -1.
          2    1    6    6  502    0  0.34537514346E+02  0.70736953064E+02 -0.23147044496E+02  0.82050850666E+02  0.00000000000E+00 0. -1.
          3    1    5    5  503    0  0.18627105542E+03 -0.12320478744E+03 -0.16479198711E+03  0.27754769815E+03  0.00000000000E+00 0. -1.
         -4    1    5    5    0  503  0.35556691745E+03 -0.30271996820E+03 -0.47788282486E+03  0.66816106309E+03  0.00000000000E+00 0.  1.
         -1    1    6    6    0  502  0.33166251289E+03  0.29048872079E+03 -0.53441183917E+02  0.44411674084E+03  0.00000000000E+00 0.  1.
<mgrwt>
<rscale>  0 0.32161838E+04</rscale>
<asrwt>0</asrwt>
<pdfrwt beam="1">  1        1 0.32738448E+00 0.32161838E+04</pdfrwt>
<pdfrwt beam="2">  1       -1 0.18695493E+00 0.32161838E+04</pdfrwt>
<totfact> 0.37832618E-01</totfact>
</mgrwt>
</event>
<event>
12    1  0.1442183E-007  0.3711050E+04  0.7818608E-02  0.8065517E-01
          2   -1    0    0  501    0  0.00000000000E+00  0.00000000000E+00  0.31817493376E+04  0.31817493376E+04  0.00000000000E+00 0. -1.
         -2   -1    0    0    0  501 -0.00000000000E+00 -0.00000000000E+00 -0.10821004964E+04  0.10821004964E+04  0.00000000000E+00 0.  1.
         23    2    1    2    0    0  0.37968195891E+03 -0.13435287102E+04 -0.21412163217E+03  0.14156773168E+04  0.95217681623E+02 0.  0.
        254    2    1    2    0    0 -0.37968195891E+03  0.13435287102E+04  0.23137704733E+04  0.28481725173E+04  0.89962497738E+03 0.  0.
        -24    2    4    4    0    0  0.11205814709E+03  0.81934689856E+03  0.17288579832E+04  0.19181364221E+04  0.80068965277E+02 0.  0.
         24    2    4    4    0    0 -0.49174010600E+03  0.52418181160E+03  0.58491249010E+03  0.93003609514E+03  0.79180892482E+02 0.  0.
         11    1    3    3    0    0  0.15558000061E+02 -0.12432301014E+03  0.45131392488E+00  0.12529351899E+03  0.00000000000E+00 0. -1.
        -11    1    3    3    0    0  0.36412395885E+03 -0.12192057000E+04 -0.21457294609E+03  0.12903837978E+04  0.00000000000E+00 0.  1.
          4    1    6    6  502    0 -0.51177842701E+02  0.30936097683E+02  0.68624604360E+02  0.91024996825E+02  0.00000000000E+00 0. -1.
          1    1    5    5  503    0  0.56400225718E+02  0.17658192111E+03  0.40770857433E+03  0.44787101035E+03  0.00000000000E+00 0. -1.
         -2    1    5    5    0  503  0.55657921368E+02  0.64276497745E+03  0.13211494089E+04  0.14702654118E+04  0.00000000000E+00 0.  1.
         -3    1    6    6    0  502 -0.44056226330E+03  0.49324571391E+03  0.51628788574E+03  0.83901109831E+03  0.00000000000E+00 0.  1.
<mgrwt>
<rscale>  0 0.37110497E+04</rscale>
<asrwt>0</asrwt>
<pdfrwt beam="1">  1        2 0.48949990E+00 0.37110497E+04</pdfrwt>
<pdfrwt beam="2">  1       -2 0.16647700E+00 0.37110497E+04</pdfrwt>
<totfact> 0.24291415E-01</totfact>
</mgrwt>
</event>
<event>
12    1  0.1442183E-007  0.1206467E+04  0.7818608E-02  0.9107215E-01
         -2   -1    0    0    0  501 -0.00000000000E+00  0.00000000000E+00  0.15458565792E+03  0.15458565792E+03  0.00000000000E+00 0.  1.
          2   -1    0    0  501    0  0.00000000000E+00 -0.00000000000E+00 -0.23539744866E+04  0.23539744866E+04  0.00000000000E+00 0. -1.
         23    2    1    2    0    0 -0.47241579332E+01  0.19229324751E+03 -0.14261590211E+03  0.25692226743E+03  0.93116836624E+02 0.  0.
        254    2    1    2    0    0  0.47241579332E+01 -0.19229324751E+03 -0.20567729266E+04  0.22516378771E+04  0.89585671139E+03 0.  0.
        -24    2    4    4    0    0  0.11886343986E+03  0.29878883039E+03 -0.40719774315E+03  0.52494266361E+03  0.79696396063E+02 0.  0.
         24    2    4    4    0    0 -0.11413928193E+03 -0.49108207790E+03 -0.16495751834E+04  0.17266952135E+04  0.78668237449E+02 0.  0.
         11    1    3    3    0    0 -0.73910334063E+01  0.70170099267E+02 -0.10966667267E+03  0.13040417670E+03  0.00000000000E+00 0. -1.
        -11    1    3    3    0    0  0.26668754731E+01  0.12212314825E+03 -0.32949229430E+02  0.12651809073E+03  0.00000000000E+00 0.  1.
          2    1    6    6  502    0 -0.97636136573E+02 -0.46729712399E+03 -0.15950992586E+04  0.16650048235E+04  0.00000000000E+00 0. -1.
          1    1    5    5  503    0  0.96291867164E+02  0.13518565803E+03 -0.19579557541E+03  0.25667721591E+03  0.00000000000E+00 0. -1.
         -2    1    5    5    0  503  0.22571572695E+02  0.16360317236E+03 -0.21140216775E+03  0.26826544770E+03  0.00000000000E+00 0.  1.
         -1    1    6    6    0  502 -0.16503145353E+02 -0.23784953910E+02 -0.54475924760E+02  0.61690389993E+02  0.00000000000E+00 0.  1.
<mgrwt>
<rscale>  0 0.12064671E+04</rscale>
<asrwt>0</asrwt>
<pdfrwt beam="1">  1        2 0.36214988E+00 0.12064671E+04</pdfrwt>
<pdfrwt beam="2">  1       -2 0.23782412E-01 0.12064671E+04</pdfrwt>
<totfact> 0.65714844E+01</totfact>
</mgrwt>
</event>
<event>
12    1  0.1442183E-007  0.2447012E+04  0.7818608E-02  0.8422110E-01
          1   -1    0    0  501    0  0.00000000000E+00  0.00000000000E+00  0.10006160317E+04  0.10006160317E+04  0.00000000000E+00 0. -1.
         -1   -1    0    0    0  501 -0.00000000000E+00 -0.00000000000E+00 -0.14960448727E+04  0.14960448727E+04  0.00000000000E+00 0.  1.
         23    2    1    2    0    0 -0.78187399321E+03 -0.21765259182E+03 -0.90335579232E+03  0.12178035695E+04  0.91072796923E+02 0.  0.
        254    2    1    2    0    0  0.78187399321E+03  0.21765259182E+03  0.40792695125E+03  0.12788573349E+04  0.90020669486E+03 0.  0.
        -24    2    4    4    0    0  0.22386192226E+03  0.51910776108E+03  0.21955769377E+03  0.61231900885E+03  0.84510116864E+02 0.  0.
         24    2    4    4    0    0  0.55801207095E+03 -0.30145516926E+03  0.18836925747E+03  0.66653832605E+03  0.80855875035E+02 0.  0.
         11    1    3    3    0    0 -0.69860207310E+02 -0.42718562452E+02 -0.11533154058E+03  0.14144500131E+03  0.00000000000E+00 0. -1.
        -11    1    3    3    0    0 -0.71201378590E+03 -0.17493402937E+03 -0.78802425174E+03  0.10763585682E+04  0.00000000000E+00 0.  1.
          2    1    6    6  502    0  0.47944895176E+03 -0.28646233071E+03  0.17615554171E+03  0.58563020681E+03  0.00000000000E+00 0. -1.
          1    1    5    5  503    0  0.19215008102E+03  0.35261077627E+03  0.14209167671E+03  0.42596485508E+03  0.00000000000E+00 0. -1.
         -4    1    5    5    0  503  0.31711841243E+02  0.16649698481E+03  0.77466017068E+02  0.18635415377E+03  0.00000000000E+00 0.  1.
         -1    1    6    6    0  502  0.78563119197E+02 -0.14992838551E+02  0.12213715767E+02  0.80908119238E+02  0.00000000000E+00 0.  1.
<mgrwt>
<rscale>  0 0.24470116E+04</rscale>
<asrwt>0</asrwt>
<pdfrwt beam="1">  1        1 0.15394093E+00 0.24470116E+04</pdfrwt>
<pdfrwt beam="2">  1       -1 0.23016075E+00 0.24470116E+04</pdfrwt>
<totfact> 0.12700959E+00</totfact>
</mgrwt>
</event>
<event>
12    1  0.1442183E-007  0.1623435E+04  0.7818608E-02  0.8806279E-01
         -1   -1    0    0    0  501 -0.00000000000E+00  0.00000000000E+00  0.14811805562E+04  0.14811805562E+04  0.00000000000E+00 0.  1.
          1   -1    0    0  501    0  0.00000000000E+00 -0.00000000000E+00 -0.44483810121E+03  0.44483810121E+03  0.00000000000E+00 0. -1.
         23    2    1    2    0    0  0.52854156255E+03  0.53008046493E+02  0.19642500163E+03  0.57371906939E+03  0.91677439848E+02 0.  0.
        254    2    1    2    0    0 -0.52854156255E+03 -0.53008046493E+02  0.83991745334E+03  0.13522995880E+04  0.91710785132E+03 0.  0.
        -24    2    4    4    0    0  0.78426418456E+02 -0.35795180082E+03  0.26442433117E+03  0.45840838619E+03  0.77057295501E+02 0.  0.
         24    2    4    4    0    0 -0.60696798101E+03  0.30494375433E+03  0.57549312218E+03  0.89389120182E+03  0.80301455440E+02 0.  0.
         13    1    3    3    0    0  0.45650950104E+02  0.25672290020E+02  0.38225259963E+02  0.64840159002E+02  0.00000000000E+00 0.  1.
        -13    1    3    3    0    0  0.48289061245E+03  0.27335756473E+02  0.15819974166E+03  0.50887891038E+03  0.00000000000E+00 0. -1.
          4    1    6    6  502    0 -0.58283455103E+03  0.27280697943E+03  0.53538537398E+03  0.83711245396E+03  0.00000000000E+00 0. -1.
          3    1    5    5  503    0  0.52282012019E+02 -0.26556122616E+03  0.23370654358E+03  0.35759603204E+03  0.00000000000E+00 0. -1.
         -4    1    5    5    0  503  0.26144406437E+02 -0.92390574659E+02  0.30717787591E+02  0.10081235414E+03  0.00000000000E+00 0.  1.
         -3    1    6    6    0  502 -0.24133429975E+02  0.32136774895E+02  0.40107748197E+02  0.56778747859E+02  0.00000000000E+00 0.  1.
<mgrwt>
<rscale>  0 0.16234353E+04</rscale>
<asrwt>0</asrwt>
<pdfrwt beam="1">  1        1 0.68436632E-01 0.16234353E+04</pdfrwt>
<pdfrwt beam="2">  1       -1 0.22787393E+00 0.16234353E+04</pdfrwt>
<totfact> 0.48570160E+00</totfact>
</mgrwt>
</event>
<event>
12    1  0.1442183E-007  0.1366838E+04  0.7818608E-02  0.8978179E-01
         -1   -1    0    0    0  501 -0.00000000000E+00  0.00000000000E+00  0.13305205598E+04  0.13305205598E+04  0.00000000000E+00 0.  1.
          1   -1    0    0  501    0  0.00000000000E+00 -0.00000000000E+00 -0.35103657216E+03  0.35103657216E+03  0.00000000000E+00 0. -1.
         23    2    1    2    0    0 -0.21363893668E+03 -0.13885558367E+03  0.62161958873E+03  0.67787969761E+03  0.90484821622E+02 0.  0.
        254    2    1    2    0    0  0.21363893668E+03  0.13885558367E+03  0.35786439890E+03  0.10036774344E+04  0.90242949633E+03 0.  0.
        -24    2    4    4    0    0  0.26126306242E+03 -0.10245763182E+03 -0.22348844761E+03  0.36761145628E+03  0.80219339768E+02 0.  0.
         24    2    4    4    0    0 -0.47624125737E+02  0.24131321548E+03  0.58135284651E+03  0.63606597807E+03  0.78157987449E+02 0.  0.
         13    1    3    3    0    0  0.69606954282E+01 -0.12984800499E+02  0.19958849936E+02  0.24807499181E+02  0.00000000000E+00 0. -1.
        -13    1    3    3    0    0 -0.22059963211E+03 -0.12587078317E+03  0.60166073880E+03  0.65307219842E+03  0.00000000000E+00 0.  1.
          2    1    6    6  502    0  0.17884834394E+02  0.22224967610E+02  0.82664797456E+02  0.87448757710E+02  0.00000000000E+00 0. -1.
          1    1    5    5  503    0  0.20593407220E+03 -0.87459739673E+02 -0.21381523319E+03  0.30947536590E+03  0.00000000000E+00 0. -1.
         -2    1    5    5    0  503  0.55328990220E+02 -0.14997892143E+02 -0.96732144203E+01  0.58136090380E+02  0.00000000000E+00 0.  1.
         -1    1    6    6    0  502 -0.65508960130E+02  0.21908824787E+03  0.49868804905E+03  0.54861722036E+03  0.00000000000E+00 0.  1.
<mgrwt>
<rscale>  0 0.13668378E+04</rscale>
<asrwt>0</asrwt>
<pdfrwt beam="1">  1        1 0.54005627E-01 0.13668378E+04</pdfrwt>
<pdfrwt beam="2">  1       -1 0.20469547E+00 0.13668378E+04</pdfrwt>
<totfact> 0.97443323E+00</totfact>
</mgrwt>
</event>
<event>
12    1  0.1442183E-007  0.1441344E+04  0.7818608E-02  0.8924423E-01
          2   -1    0    0  501    0  0.00000000000E+00  0.00000000000E+00  0.14399565628E+04  0.14399565628E+04  0.00000000000E+00 0. -1.
         -2   -1    0    0    0  501 -0.00000000000E+00 -0.00000000000E+00 -0.36068326885E+03  0.36068326885E+03  0.00000000000E+00 0.  1.
         23    2    1    2    0    0 -0.11045308792E+03 -0.42901861908E+03  0.21976653591E+03  0.50310312650E+03  0.92512515054E+02 0.  0.
        254    2    1    2    0    0  0.11045308792E+03  0.42901861908E+03  0.85950675808E+03  0.12975367052E+04  0.86521255998E+03 0.  0.
        -24    2    4    4    0    0  0.67632920140E-01 -0.25874211435E+03  0.22797722390E+03  0.35404060478E+03  0.80147669345E+02 0.  0.
         24    2    4    4    0    0  0.11038545500E+03  0.68776073344E+03  0.63152953418E+03  0.94349610040E+03  0.78457401209E+02 0.  0.
         13    1    3    3    0    0 -0.51793752078E+01 -0.24666551157E+01 -0.66992865703E+01  0.88199067769E+01  0.00000000000E+00 0. -1.
        -13    1    3    3    0    0 -0.10527371271E+03 -0.42655196397E+03  0.22646582248E+03  0.49428321973E+03  0.00000000000E+00 0.  1.
          2    1    6    6  502    0  0.11020217867E+03  0.52291885626E+03  0.50990158802E+03  0.73863947896E+03  0.00000000000E+00 0. -1.
          3    1    5    5  503    0  0.38697185451E+02 -0.10015957870E+03  0.98333484051E+02  0.14559837724E+03  0.00000000000E+00 0. -1.
         -4    1    5    5    0  503 -0.38629552531E+02 -0.15858253565E+03  0.12964373985E+03  0.20844222754E+03  0.00000000000E+00 0.  1.
         -1    1    6    6    0  502  0.18327632376E+00  0.16484187718E+03  0.12162794616E+03  0.20485662144E+03  0.00000000000E+00 0.  1.
<mgrwt>
<rscale>  0 0.14413442E+04</rscale>
<asrwt>0</asrwt>
<pdfrwt beam="1">  1        2 0.22153178E+00 0.14413442E+04</pdfrwt>
<pdfrwt beam="2">  1       -2 0.55489734E-01 0.14413442E+04</pdfrwt>
<totfact> 0.40656759E+01</totfact>
</mgrwt>
</event>
<event>
12    1  0.1442183E-007  0.2022956E+04  0.7818608E-02  0.8595963E-01
          1   -1    0    0  501    0  0.00000000000E+00  0.00000000000E+00  0.27084197403E+04  0.27084197403E+04  0.00000000000E+00 0. -1.
         -1   -1    0    0    0  501 -0.00000000000E+00 -0.00000000000E+00 -0.37774334410E+03  0.37774334410E+03  0.00000000000E+00 0.  1.
         23    2    1    2    0    0 -0.65078476273E+03 -0.34841202056E+03  0.14273720175E+04  0.16095402281E+04  0.91198278584E+02 0.  0.
        254    2    1    2    0    0  0.65078476273E+03  0.34841202056E+03  0.90330437874E+03  0.14766228564E+04  0.90528697979E+03 0.  0.
        -24    2    4    4    0    0  0.45018546052E+03 -0.23951406078E+03  0.25781478026E+03  0.57713593995E+03  0.81138758186E+02 0.  0.
         24    2    4    4    0    0  0.20059930221E+03  0.58792608134E+03  0.64548959848E+03  0.89948691641E+03  0.80763443899E+02 0.  0.
         11    1    3    3    0    0 -0.34650657752E+03 -0.21189795726E+03  0.86733614135E+03  0.95772623157E+03  0.00000000000E+00 0. -1.
        -11    1    3    3    0    0 -0.30427818521E+03 -0.13651406330E+03  0.56003587615E+03  0.65181399651E+03  0.00000000000E+00 0.  1.
          2    1    6    6  502    0  0.17697697013E+03  0.42251475282E+03  0.44709478254E+03  0.64010413909E+03  0.00000000000E+00 0. -1.
          1    1    5    5  503    0  0.38602292237E+03 -0.17564857536E+03  0.22984173968E+03  0.48238298469E+03  0.00000000000E+00 0. -1.
         -2    1    5    5    0  503  0.64162538150E+02 -0.63865485422E+02  0.27973040583E+02  0.94752955255E+02  0.00000000000E+00 0.  1.
         -1    1    6    6    0  502  0.23622332086E+02  0.16541132853E+03  0.19839481594E+03  0.25938277732E+03  0.00000000000E+00 0.  1.
<mgrwt>
<rscale>  0 0.20229558E+04</rscale>
<asrwt>0</asrwt>
<pdfrwt beam="1">  1        1 0.41667995E+00 0.20229558E+04</pdfrwt>
<pdfrwt beam="2">  1       -1 0.58114362E-01 0.20229558E+04</pdfrwt>
<totfact> 0.26909406E+00</totfact>
</mgrwt>
</event>
<event>
12    1  0.1442183E-007  0.1982759E+04  0.7818608E-02  0.8614724E-01
          2   -1    0    0  501    0  0.00000000000E+00  0.00000000000E+00  0.99958349858E+03  0.99958349858E+03  0.00000000000E+00 0. -1.
         -2   -1    0    0    0  501 -0.00000000000E+00 -0.00000000000E+00 -0.98324259569E+03  0.98324259569E+03  0.00000000000E+00 0.  1.
         23    2    1    2    0    0  0.13880867937E+03 -0.10897506875E+03 -0.75903930958E+03  0.78486811914E+03  0.93455207817E+02 0.  0.
        254    2    1    2    0    0 -0.13880867937E+03  0.10897506875E+03  0.77538021247E+03  0.11979579751E+04  0.89596061364E+03 0.  0.
        -24    2    4    4    0    0  0.34275949958E+03  0.78149387578E+02  0.11892019113E+03  0.37934893243E+03  0.78563346080E+02 0.  0.
         24    2    4    4    0    0 -0.48156817895E+03  0.30825681170E+02  0.65646002134E+03  0.81860904270E+03  0.79516486119E+02 0.  0.
         13    1    3    3    0    0  0.15906440748E+02 -0.67522255085E+02 -0.23580436533E+03  0.24579659985E+03  0.00000000000E+00 0. -1.
        -13    1    3    3    0    0  0.12290223863E+03 -0.41452813663E+02 -0.52323494425E+03  0.53907151929E+03  0.00000000000E+00 0.  1.
          4    1    6    6  502    0 -0.46884448629E+03  0.40758644039E+02  0.61713857449E+03  0.77610336909E+03  0.00000000000E+00 0. -1.
          3    1    5    5  503    0  0.22428645278E+03  0.56774432441E+02  0.11627141686E+03  0.25893395192E+03  0.00000000000E+00 0. -1.
         -4    1    5    5    0  503  0.11847304680E+03  0.21374955137E+02  0.26487742630E+01  0.12041498050E+03  0.00000000000E+00 0.  1.
         -3    1    6    6    0  502 -0.12723692664E+02 -0.99329628689E+01  0.39321446849E+02  0.42505673606E+02  0.00000000000E+00 0.  1.
<mgrwt>
<rscale>  0 0.19827588E+04</rscale>
<asrwt>0</asrwt>
<pdfrwt beam="1">  1        2 0.15378208E+00 0.19827588E+04</pdfrwt>
<pdfrwt beam="2">  1       -2 0.15126809E+00 0.19827588E+04</pdfrwt>
<totfact> 0.68694461E+00</totfact>
</mgrwt>
</event>
<event>
12    1  0.1442183E-007  0.1514353E+04  0.7818608E-02  0.8874964E-01
         -2   -1    0    0    0  501 -0.00000000000E+00  0.00000000000E+00  0.73572164740E+03  0.73572164740E+03  0.00000000000E+00 0.  1.
          2   -1    0    0  501    0  0.00000000000E+00 -0.00000000000E+00 -0.77925662348E+03  0.77925662348E+03  0.00000000000E+00 0. -1.
         23    2    1    2    0    0 -0.42599023621E+03  0.22998646455E+03 -0.19260366946E+02  0.49276358040E+03  0.89908449057E+02 0.  0.
        254    2    1    2    0    0  0.42599023621E+03 -0.22998646455E+03 -0.24274609134E+02  0.10222146905E+04  0.89998453407E+03 0.  0.
        -24    2    4    4    0    0 -0.24158838373E+03  0.99762042697E+02  0.23717749484E+01  0.27295806696E+03  0.78632491295E+02 0.  0.
         24    2    4    4    0    0  0.66757861994E+03 -0.32974850725E+03 -0.26646384082E+02  0.74925662351E+03  0.79247500047E+02 0.  0.
         13    1    3    3    0    0 -0.48754600785E+02  0.27996203028E+02  0.26985656893E+02  0.62362041015E+02  0.00000000000E+00 0.  1.
        -13    1    3    3    0    0 -0.37723563542E+03  0.20199026152E+03 -0.46246023838E+02  0.43040153938E+03  0.00000000000E+00 0. -1.
          2    1    6    6  502    0  0.30570478593E+03 -0.19032275870E+03 -0.30869962388E+02  0.36142927827E+03  0.00000000000E+00 0. -1.
          1    1    5    5  503    0 -0.12178271388E+03  0.90663561774E+02  0.12751990881E+02  0.15235985070E+03  0.00000000000E+00 0. -1.
         -2    1    5    5    0  503 -0.11980566985E+03  0.90984809226E+01 -0.10380215932E+02  0.12059821626E+03  0.00000000000E+00 0.  1.
         -1    1    6    6    0  502  0.36187383401E+03 -0.13942574855E+03  0.42235783059E+01  0.38782734524E+03  0.00000000000E+00 0.  1.
<mgrwt>
<rscale>  0 0.15143526E+04</rscale>
<asrwt>0</asrwt>
<pdfrwt beam="1">  1        2 0.11988563E+00 0.15143526E+04</pdfrwt>
<pdfrwt beam="2">  1       -2 0.11318795E+00 0.15143526E+04</pdfrwt>
<totfact> 0.21101349E+01</totfact>
</mgrwt>
</event>
<event>
12    1  0.1442183E-007  0.1556594E+04  0.7818608E-02  0.8847667E-01
         -2   -1    0    0    0  501 -0.00000000000E+00  0.00000000000E+00  0.44026583481E+03  0.44026583481E+03  0.00000000000E+00 0.  1.
          2   -1    0    0  501    0  0.00000000000E+00 -0.00000000000E+00 -0.13758639639E+04  0.13758639639E+04  0.00000000000E+00 0. -1.
         23    2    1    2    0    0 -0.57282094051E+02  0.13815565459E+03 -0.83960750803E+03  0.85768757227E+03  0.91208447537E+02 0.  0.
        254    2    1    2    0    0  0.57282094051E+02 -0.13815565459E+03 -0.95990621100E+02  0.95844222647E+03  0.94182221196E+03 0.  0.
        -24    2    4    4    0    0  0.18924771494E+02 -0.50634464694E+03 -0.22228966041E+03  0.55915974447E+03  0.80646625777E+02 0.  0.
         24    2    4    4    0    0  0.38357322557E+02  0.36818899235E+03  0.12629903931E+03  0.39928248200E+03  0.80253565763E+02 0.  0.
         11    1    3    3    0    0 -0.30642684345E+02  0.10892459407E+03 -0.76426354842E+03  0.77259453320E+03  0.00000000000E+00 0. -1.
        -11    1    3    3    0    0 -0.26639409706E+02  0.29231060513E+02 -0.75343959612E+02  0.85093039070E+02  0.00000000000E+00 0.  1.
          4    1    6    6  502    0  0.22830970103E+00 -0.29977918123E+01  0.68648014338E+01  0.74942898126E+01  0.00000000000E+00 0. -1.
          1    1    5    5  503    0 -0.98997615253E+01 -0.35067646088E+03 -0.18460185034E+03  0.39642127673E+03  0.00000000000E+00 0. -1.
         -2    1    5    5    0  503  0.28824533019E+02 -0.15566818605E+03 -0.37687810068E+02  0.16273846774E+03  0.00000000000E+00 0.  1.
         -3    1    6    6    0  502  0.38129012856E+02  0.37118678416E+03  0.11943423788E+03  0.39178819218E+03  0.00000000000E+00 0.  1.
<mgrwt>
<rscale>  0 0.15565936E+04</rscale>
<asrwt>0</asrwt>
<pdfrwt beam="1">  1        2 0.21167137E+00 0.15565936E+04</pdfrwt>
<pdfrwt beam="2">  1       -2 0.67733207E-01 0.15565936E+04</pdfrwt>
<totfact> 0.28705306E+01</totfact>
</mgrwt>
</event>
<event>
12    1  0.1442183E-007  0.1351408E+04  0.7818608E-02  0.8989763E-01
          1   -1    0    0  501    0  0.00000000000E+00  0.00000000000E+00  0.12836740897E+04  0.12836740897E+04  0.00000000000E+00 0. -1.
         -1   -1    0    0    0  501 -0.00000000000E+00 -0.00000000000E+00 -0.35567889428E+03  0.35567889428E+03  0.00000000000E+00 0.  1.
         23    2    1    2    0    0 -0.30066287727E+03 -0.15771290413E+03  0.46832625982E+03  0.58592264103E+03  0.93296997505E+02 0.  0.
        254    2    1    2    0    0  0.30066287727E+03  0.15771290413E+03  0.45966893562E+03  0.10534303430E+04  0.88495673974E+03 0.  0.
        -24    2    4    4    0    0  0.37706738864E+03 -0.20603539790E+03  0.50826815494E+03  0.67032540355E+03  0.79807446779E+02 0.  0.
         24    2    4    4    0    0 -0.76404511373E+02  0.36374830203E+03 -0.48599219323E+02  0.38310493941E+03  0.79101415237E+02 0.  0.
         11    1    3    3    0    0 -0.43557233602E+02 -0.24723274831E+02  0.13749605439E+03  0.14633399431E+03  0.00000000000E+00 0.  1.
        -11    1    3    3    0    0 -0.25710564366E+03 -0.13298962929E+03  0.33083020543E+03  0.43958864673E+03  0.00000000000E+00 0. -1.
          2    1    6    6  502    0 -0.73094359263E+02  0.30361331152E+03 -0.68431032615E+02  0.31969772366E+03  0.00000000000E+00 0. -1.
          1    1    5    5  503    0  0.27255305352E+03 -0.17518802914E+03  0.33831251513E+03  0.46843502264E+03  0.00000000000E+00 0. -1.
         -2    1    5    5    0  503  0.10451433511E+03 -0.30847368760E+02  0.16995563980E+03  0.20189038091E+03  0.00000000000E+00 0.  1.
         -1    1    6    6    0  502 -0.33101521106E+01  0.60134990510E+02  0.19831813292E+02  0.63407215749E+02  0.00000000000E+00 0.  1.
<mgrwt>
<rscale>  0 0.13514078E+04</rscale>
<asrwt>0</asrwt>
<pdfrwt beam="1">  1        1 0.19748832E+00 0.13514078E+04</pdfrwt>
<pdfrwt beam="2">  1       -1 0.54719830E-01 0.13514078E+04</pdfrwt>
<totfact> 0.30686332E+01</totfact>
</mgrwt>
</event>
<event>
12    1  0.1442183E-007  0.1764704E+04  0.7818608E-02  0.8725298E-01
         -2   -1    0    0    0  501 -0.00000000000E+00  0.00000000000E+00  0.36197599028E+03  0.36197599028E+03  0.00000000000E+00 0.  1.
          2   -1    0    0  501    0  0.00000000000E+00 -0.00000000000E+00 -0.21508196639E+04  0.21508196639E+04  0.00000000000E+00 0. -1.
         23    2    1    2    0    0  0.15729193911E+03 -0.55520021666E+03 -0.23310546141E+03  0.62887626100E+03  0.90328073240E+02 0.  0.
        254    2    1    2    0    0 -0.15729193911E+03  0.55520021666E+03 -0.15557382122E+04  0.18839193932E+04  0.89210025246E+03 0.  0.
        -24    2    4    4    0    0  0.58738857800E+02  0.53320940592E+03 -0.15613921975E+04  0.16529175556E+04  0.80176849600E+02 0.  0.
         24    2    4    4    0    0 -0.21603079691E+03  0.21990810741E+02  0.56539853173E+01  0.23100183757E+03  0.78593768455E+02 0.  0.
         11    1    3    3    0    0  0.11906935153E+03 -0.36814994462E+03 -0.11208031107E+03  0.40283233277E+03  0.00000000000E+00 0.  1.
        -11    1    3    3    0    0  0.38222587586E+02 -0.18705027204E+03 -0.12102515034E+03  0.22604392822E+03  0.00000000000E+00 0. -1.
          2    1    6    6  502    0 -0.18352792152E+03  0.98336872947E+01 -0.24005015538E+02  0.18535220569E+03  0.00000000000E+00 0. -1.
          3    1    5    5  503    0  0.70462696417E+02  0.28490254240E+03 -0.81685003265E+03  0.86797374735E+03  0.00000000000E+00 0. -1.
         -4    1    5    5    0  503 -0.11723838617E+02  0.24830686352E+03 -0.74454216490E+03  0.78494380829E+03  0.00000000000E+00 0.  1.
         -1    1    6    6    0  502 -0.32502875395E+02  0.12157123447E+02  0.29659000855E+02  0.45649631884E+02  0.00000000000E+00 0.  1.
<mgrwt>
<rscale>  0 0.17647040E+04</rscale>
<asrwt>0</asrwt>
<pdfrwt beam="1">  1        2 0.33089533E+00 0.17647040E+04</pdfrwt>
<pdfrwt beam="2">  1       -2 0.55688614E-01 0.17647040E+04</pdfrwt>
<totfact> 0.15786996E+01</totfact>
</mgrwt>
</event>
<event>
12    1  0.1442183E-007  0.2092991E+04  0.7818608E-02  0.8564337E-01
          2   -1    0    0  501    0  0.00000000000E+00  0.00000000000E+00  0.19436710957E+04  0.19436710957E+04  0.00000000000E+00 0. -1.
         -2   -1    0    0    0  501 -0.00000000000E+00 -0.00000000000E+00 -0.56344545668E+03  0.56344545668E+03  0.00000000000E+00 0.  1.
         23    2    1    2    0    0  0.37052732160E+03 -0.11109609787E+03  0.14736334845E+04  0.15262427137E+04  0.90489423137E+02 0.  0.
        254    2    1    2    0    0 -0.37052732160E+03  0.11109609787E+03 -0.93407845392E+02  0.98087383869E+03  0.89652418976E+03 0.  0.
        -24    2    4    4    0    0 -0.22058331133E+02  0.15023179535E+03  0.36265298846E+03  0.40000469633E+03  0.73691279977E+02 0.  0.
         24    2    4    4    0    0 -0.34846899047E+03 -0.39135697482E+02 -0.45606083385E+03  0.58086914235E+03  0.80344484738E+02 0.  0.
         11    1    3    3    0    0  0.81304644413E+02 -0.53989939776E+02  0.27219628314E+03  0.28916461636E+03  0.00000000000E+00 0.  1.
        -11    1    3    3    0    0  0.28922267719E+03 -0.57106158094E+02  0.12014372013E+04  0.12370780974E+04  0.00000000000E+00 0. -1.
          2    1    6    6  502    0 -0.31809451802E+03 -0.10920112201E+02 -0.40234249675E+03  0.51301350464E+03  0.00000000000E+00 0. -1.
          1    1    5    5  503    0 -0.14585785112E+02  0.14730986445E+03  0.27785070518E+03  0.31482368980E+03  0.00000000000E+00 0. -1.
         -2    1    5    5    0  503 -0.74725460212E+01  0.29219308973E+01  0.84802283280E+02  0.85181006531E+02  0.00000000000E+00 0.  1.
         -1    1    6    6    0  502 -0.30374472447E+02 -0.28215585281E+02 -0.53718337100E+02  0.67855637716E+02  0.00000000000E+00 0.  1.
<mgrwt>
<rscale>  0 0.20929908E+04</rscale>
<asrwt>0</asrwt>
<pdfrwt beam="1">  1        2 0.29902632E+00 0.20929908E+04</pdfrwt>
<pdfrwt beam="2">  1       -2 0.86683917E-01 0.20929908E+04</pdfrwt>
<totfact> 0.76278794E+00</totfact>
</mgrwt>
</event>
<event>
12    1  0.1442183E-007  0.1641102E+04  0.7818608E-02  0.8795688E-01
          1   -1    0    0  501    0  0.00000000000E+00  0.00000000000E+00  0.98174671621E+03  0.98174671621E+03  0.00000000000E+00 0. -1.
         -1   -1    0    0    0  501 -0.00000000000E+00 -0.00000000000E+00 -0.68582247008E+03  0.68582247008E+03  0.00000000000E+00 0.  1.
         23    2    1    2    0    0  0.55076035719E+02  0.20000522608E+02  0.68824351725E+03  0.69672560569E+03  0.91181357608E+02 0.  0.
        254    2    1    2    0    0 -0.55076035719E+02 -0.20000522608E+02 -0.39231927112E+03  0.97084358060E+03  0.88610916759E+03 0.  0.
        -24    2    4    4    0    0 -0.46309130549E+01 -0.31391002215E+02  0.27898654314E+03  0.29217059781E+03  0.80767113324E+02 0.  0.
         24    2    4    4    0    0 -0.50445122664E+02  0.11390479607E+02 -0.67130581426E+03  0.67867298280E+03  0.85270557045E+02 0.  0.
         11    1    3    3    0    0 -0.21785663646E+02  0.57544115536E+01  0.29053910117E+03  0.29141156069E+03  0.00000000000E+00 0.  1.
        -11    1    3    3    0    0  0.76861699365E+02  0.14246111054E+02  0.39770441607E+03  0.40531404500E+03  0.00000000000E+00 0. -1.
          2    1    6    6  502    0 -0.16919333442E+02 -0.13674459492E+01 -0.58451449690E+03  0.58476091767E+03  0.00000000000E+00 0. -1.
          3    1    5    5  503    0 -0.17028983901E+02  0.23879827411E+02  0.11480525897E+03  0.11849253114E+03  0.00000000000E+00 0. -1.
         -4    1    5    5    0  503  0.12398070846E+02 -0.55270829627E+02  0.16418128417E+03  0.17367806666E+03  0.00000000000E+00 0.  1.
         -1    1    6    6    0  502 -0.33525789221E+02  0.12757925557E+02 -0.86791317362E+02  0.93912065129E+02  0.00000000000E+00 0.  1.
<mgrwt>
<rscale>  0 0.16411020E+04</rscale>
<asrwt>0</asrwt>
<pdfrwt beam="1">  1        1 0.15103796E+00 0.16411020E+04</pdfrwt>
<pdfrwt beam="2">  1       -1 0.10551115E+00 0.16411020E+04</pdfrwt>
<totfact> 0.12591989E+01</totfact>
</mgrwt>
</event>
<event>
12    1  0.1561091E-007  0.2029972E+04  0.7818608E-02  0.8592734E-01
          2   -1    0    0  501    0  0.00000000000E+00  0.00000000000E+00  0.22302374825E+04  0.22302374825E+04  0.00000000000E+00 0.  1.
         -2   -1    0    0    0  501 -0.00000000000E+00 -0.00000000000E+00 -0.46192253903E+03  0.46192253903E+03  0.00000000000E+00 0. -1.
         23    2    1    2    0    0  0.35466019521E+03  0.25789837379E+03 -0.21332316583E+03  0.49634340237E+03  0.92490944014E+02 0.  0.
        254    2    1    2    0    0 -0.35466019521E+03 -0.25789837379E+03  0.19816381093E+04  0.21958166191E+04  0.83810834829E+03 0.  0.
        -24    2    4    4    0    0 -0.59038838487E+03 -0.62815455870E+02  0.15434192564E+04  0.16553854544E+04  0.75191589556E+02 0.  0.
         24    2    4    4    0    0  0.23572818966E+03 -0.19508291792E+03  0.43821885290E+03  0.54043116476E+03  0.80030972385E+02 0.  0.
         13    1    3    3    0    0  0.29468442310E+03  0.20560774807E+03 -0.21109355272E+03  0.41674205846E+03  0.00000000000E+00 0. -1.
        -13    1    3    3    0    0  0.59975772111E+02  0.52290625714E+02 -0.22296131086E+01  0.79601343911E+02  0.00000000000E+00 0.  1.
          2    1    6    6  502    0  0.17976565865E+03 -0.16217189314E+03  0.28454277264E+03  0.37360407441E+03  0.00000000000E+00 0. -1.
          1    1    5    5  503    0 -0.55243808473E+03 -0.55021575543E+02  0.14840494617E+04  0.15844929839E+04  0.00000000000E+00 0. -1.
         -2    1    5    5    0  503 -0.37950300136E+02 -0.77938803275E+01  0.59369794613E+02  0.70892470428E+02  0.00000000000E+00 0.  1.
         -1    1    6    6    0  502  0.55962531009E+02 -0.32911024773E+02  0.15367608027E+03  0.16682709035E+03  0.00000000000E+00 0.  1.
<mgrwt>
<rscale>  0 0.20299724E+04</rscale>
<asrwt>0</asrwt>
<pdfrwt beam="1">  1        2 0.34311345E+00 0.20299724E+04</pdfrwt>
<pdfrwt beam="2">  1       -2 0.71065007E-01 0.20299724E+04</pdfrwt>
<totfact> 0.82761642E+00</totfact>
</mgrwt>
</event>
<event>
12    1  0.1442183E-007  0.1956066E+04  0.7818608E-02  0.8627441E-01
         -1   -1    0    0    0  501 -0.00000000000E+00  0.00000000000E+00  0.80255090052E+03  0.80255090052E+03  0.00000000000E+00 0.  1.
          1   -1    0    0  501    0  0.00000000000E+00 -0.00000000000E+00 -0.11918853251E+04  0.11918853251E+04  0.00000000000E+00 0. -1.
         23    2    1    2    0    0  0.28220788782E+03 -0.57503405279E+03 -0.57339362226E+03  0.86466388314E+03  0.92509085749E+02 0.  0.
        254    2    1    2    0    0 -0.28220788782E+03  0.57503405279E+03  0.18405919772E+03  0.11297723424E+04  0.91225122837E+03 0.  0.
        -24    2    4    4    0    0 -0.28535653647E+03  0.12190700852E+03 -0.31606299355E+03  0.45018942288E+03  0.80529677433E+02 0.  0.
         24    2    4    4    0    0  0.31486486508E+01  0.45312704427E+03  0.50012219127E+03  0.67958291955E+03  0.79854280484E+02 0.  0.
         13    1    3    3    0    0  0.26997892855E+03 -0.55547118353E+03 -0.52322577122E+03  0.80944552951E+03  0.00000000000E+00 0. -1.
        -13    1    3    3    0    0  0.12228959274E+02 -0.19562869261E+02 -0.50167851048E+02  0.55218353628E+02  0.00000000000E+00 0.  1.
          2    1    6    6  502    0  0.29869973125E+02  0.27079027443E+03  0.33809964604E+03  0.43420151850E+03  0.00000000000E+00 0. -1.
          3    1    5    5  503    0 -0.19678416252E+03  0.73304406722E+02 -0.15883166288E+03  0.26329648648E+03  0.00000000000E+00 0. -1.
         -4    1    5    5    0  503 -0.88572373957E+02  0.48602601793E+02 -0.15723133068E+03  0.18689293640E+03  0.00000000000E+00 0.  1.
         -1    1    6    6    0  502 -0.26721324474E+02  0.18233676984E+03  0.16202254523E+03  0.24538140105E+03  0.00000000000E+00 0.  1.
<mgrwt>
<rscale>  0 0.19560661E+04</rscale>
<asrwt>0</asrwt>
<pdfrwt beam="1">  1        1 0.18336697E+00 0.19560661E+04</pdfrwt>
<pdfrwt beam="2">  1       -1 0.12346937E+00 0.19560661E+04</pdfrwt>
<totfact> 0.58212843E+00</totfact>
</mgrwt>
</event>
<event>
12    1  0.1442183E-007  0.1677180E+04  0.7818608E-02  0.8774488E-01
         -1   -1    0    0    0  501 -0.00000000000E+00  0.00000000000E+00  0.70854851355E+03  0.70854851355E+03  0.00000000000E+00 0.  1.
          1   -1    0    0  501    0  0.00000000000E+00 -0.00000000000E+00 -0.99249791272E+03  0.99249791272E+03  0.00000000000E+00 0. -1.
         23    2    1    2    0    0  0.33429498075E+02 -0.58437961844E+03 -0.17789685835E+03  0.61846860659E+03  0.90769242243E+02 0.  0.
        254    2    1    2    0    0 -0.33429498075E+02  0.58437961844E+03 -0.10605254083E+03  0.10825778197E+04  0.90449462377E+03 0.  0.
        -24    2    4    4    0    0 -0.79271355498E+02  0.63975862520E+03  0.26093804547E+03  0.70027348300E+03  0.81970977165E+02 0.  0.
         24    2    4    4    0    0  0.45841857423E+02 -0.55379006759E+02 -0.36699058630E+03  0.38230433667E+03  0.79411618293E+02 0.  0.
         11    1    3    3    0    0  0.29129911729E+02 -0.39321458890E+03 -0.16306538084E+03  0.42668089143E+03  0.00000000000E+00 0. -1.
        -11    1    3    3    0    0  0.42995863457E+01 -0.19116502954E+03 -0.14831477506E+02  0.19178771516E+03  0.00000000000E+00 0.  1.
          2    1    6    6  502    0  0.57666257615E+01 -0.41000136842E+02 -0.63264965386E+02  0.75609001045E+02  0.00000000000E+00 0. -1.
          1    1    5    5  503    0  0.14540620242E+02  0.86084964271E+02  0.22303757056E+02  0.90108314208E+02  0.00000000000E+00 0. -1.
         -2    1    5    5    0  503 -0.93811975740E+02  0.55367366093E+03  0.23863428842E+03  0.61016516879E+03  0.00000000000E+00 0.  1.
         -1    1    6    6    0  502  0.40075231661E+02 -0.14378869918E+02 -0.30372562092E+03  0.30669533562E+03  0.00000000000E+00 0.  1.
<mgrwt>
<rscale>  0 0.16771797E+04</rscale>
<asrwt>0</asrwt>
<pdfrwt beam="1">  1        1 0.15269199E+00 0.16771797E+04</pdfrwt>
<pdfrwt beam="2">  1       -1 0.10900746E+00 0.16771797E+04</pdfrwt>
<totfact> 0.11404287E+01</totfact>
</mgrwt>
</event>
<event>
12    1  0.1442183E-007  0.2366132E+04  0.7818608E-02  0.8452293E-01
          2   -1    0    0  501    0  0.00000000000E+00  0.00000000000E+00  0.16885682669E+04  0.16885682669E+04  0.00000000000E+00 0. -1.
         -2   -1    0    0    0  501 -0.00000000000E+00 -0.00000000000E+00 -0.82889448504E+03  0.82889448504E+03  0.00000000000E+00 0.  1.
         23    2    1    2    0    0 -0.28710291174E+03  0.38400297820E+03  0.13062135881E+04  0.13945268024E+04  0.92869239457E+02 0.  0.
        254    2    1    2    0    0  0.28710291174E+03 -0.38400297820E+03 -0.44653980627E+03  0.11229359495E+04  0.91197641361E+03 0.  0.
        -24    2    4    4    0    0  0.19791651856E+03 -0.92943522285E+02  0.26038178642E+03  0.34936011704E+03  0.80276833719E+02 0.  0.
         24    2    4    4    0    0  0.89186393188E+02 -0.29105945591E+03 -0.70692159269E+03  0.77357583249E+03  0.77534578071E+02 0.  0.
         13    1    3    3    0    0 -0.12779903550E+03  0.20358274031E+03  0.77295980217E+03  0.80947228575E+03  0.00000000000E+00 0. -1.
        -13    1    3    3    0    0 -0.15930387624E+03  0.18042023789E+03  0.53325378591E+03  0.58505451661E+03  0.00000000000E+00 0.  1.
          4    1    6    6  502    0  0.63431996077E+02 -0.21470725207E+03 -0.59450543473E+03  0.63526335809E+03  0.00000000000E+00 0. -1.
          1    1    5    5  503    0  0.14732109560E+03 -0.85695445623E+02  0.14730665999E+03  0.22526976426E+03  0.00000000000E+00 0. -1.
         -2    1    5    5    0  503  0.50595422952E+02 -0.72480766615E+01  0.11307512643E+03  0.12409035279E+03  0.00000000000E+00 0.  1.
         -3    1    6    6    0  502  0.25754397111E+02 -0.76352203847E+02 -0.11241615796E+03  0.13831247440E+03  0.00000000000E+00 0.  1.
<mgrwt>
<rscale>  0 0.23661318E+04</rscale>
<asrwt>0</asrwt>
<pdfrwt beam="1">  1        2 0.25977973E+00 0.23661318E+04</pdfrwt>
<pdfrwt beam="2">  1       -2 0.12752223E+00 0.23661318E+04</pdfrwt>
<totfact> 0.40922233E+00</totfact>
</mgrwt>
</event>
<event>
12    1  0.1442183E-007  0.2108645E+04  0.7818608E-02  0.8557445E-01
         -2   -1    0    0    0  501 -0.00000000000E+00  0.00000000000E+00  0.57237400157E+03  0.57237400157E+03  0.00000000000E+00 0.  1.
          2   -1    0    0  501    0  0.00000000000E+00 -0.00000000000E+00 -0.19420804043E+04  0.19420804043E+04  0.00000000000E+00 0. -1.
         23    2    1    2    0    0 -0.44121265930E+03 -0.68476679260E+03 -0.24312113441E+03  0.85491256381E+03  0.90517593839E+02 0.  0.
        254    2    1    2    0    0  0.44121265930E+03  0.68476679260E+03 -0.11265852683E+04  0.16595418421E+04  0.90626187596E+03 0.  0.
        -24    2    4    4    0    0 -0.76463543821E+02  0.55030731036E+03 -0.21804160878E+03  0.60197787097E+03  0.78424515353E+02 0.  0.
         24    2    4    4    0    0  0.51767620312E+03  0.13445948224E+03 -0.90854365955E+03  0.10575639711E+04  0.83198365603E+02 0.  0.
         13    1    3    3    0    0 -0.99910604362E+02 -0.13802919993E+03 -0.88921531790E+02  0.19220100862E+03  0.00000000000E+00 0.  1.
        -13    1    3    3    0    0 -0.34130205493E+03 -0.54673759266E+03 -0.15419960262E+03  0.66271155519E+03  0.00000000000E+00 0. -1.
          2    1    6    6  502    0  0.18012337625E+03  0.87450693087E+02 -0.35170768992E+03  0.40471020933E+03  0.00000000000E+00 0. -1.
          3    1    5    5  503    0 -0.68949201436E+02  0.46154391018E+03 -0.21237146327E+03  0.51271669742E+03  0.00000000000E+00 0. -1.
         -4    1    5    5    0  503 -0.75143423854E+01  0.88763400182E+02 -0.56701455074E+01  0.89261173550E+02  0.00000000000E+00 0.  1.
         -1    1    6    6    0  502  0.33755282687E+03  0.47008789150E+02 -0.55683596964E+03  0.65285376178E+03  0.00000000000E+00 0.  1.
<mgrwt>
<rscale>  0 0.21086454E+04</rscale>
<asrwt>0</asrwt>
<pdfrwt beam="1">  1        2 0.29878160E+00 0.21086454E+04</pdfrwt>
<pdfrwt beam="2">  1       -2 0.88057540E-01 0.21086454E+04</pdfrwt>
<totfact> 0.73632940E+00</totfact>
</mgrwt>
</event>
<event>
12    1  0.1442183E-007  0.1824764E+04  0.7818608E-02  0.8693240E-01
          2   -1    0    0  501    0  0.00000000000E+00  0.00000000000E+00  0.12039383278E+04  0.12039383278E+04  0.00000000000E+00 0. -1.
         -2   -1    0    0    0  501 -0.00000000000E+00 -0.00000000000E+00 -0.69143170578E+03  0.69143170578E+03  0.00000000000E+00 0.  1.
         23    2    1    2    0    0  0.50390619822E+02  0.67233899426E+03  0.30532061478E+02  0.68050632610E+03  0.87050073654E+02 0.  0.
        254    2    1    2    0    0 -0.50390619822E+02 -0.67233899426E+03  0.48197456050E+03  0.12148637074E+04  0.88826539554E+03 0.  0.
        -24    2    4    4    0    0 -0.74894890267E+02 -0.78316280595E+03  0.86565538480E+02  0.79558303354E+03  0.80656962375E+02 0.  0.
         24    2    4    4    0    0  0.24504270445E+02  0.11082381170E+03  0.39540902202E+03  0.41928067390E+03  0.81028465989E+02 0.  0.
         13    1    3    3    0    0  0.44666314797E+02  0.66323449921E+03  0.40328184772E+02  0.66595904011E+03  0.00000000000E+00 0.  1.
        -13    1    3    3    0    0  0.57243050252E+01  0.91044950439E+01 -0.97961232935E+01  0.14547285988E+02  0.00000000000E+00 0. -1.
          2    1    6    6  502    0  0.42297591491E+01  0.11708748782E+03  0.31384739375E+03  0.33500381674E+03  0.00000000000E+00 0. -1.
          1    1    5    5  503    0 -0.31316519737E+02 -0.26427385063E+03  0.67349391022E+02  0.27451290135E+03  0.00000000000E+00 0. -1.
         -2    1    5    5    0  503 -0.43578370530E+02 -0.51888895533E+03  0.19216147458E+02  0.52107013219E+03  0.00000000000E+00 0.  1.
         -1    1    6    6    0  502  0.20274511296E+02 -0.62636761168E+01  0.81561628270E+02  0.84276857160E+02  0.00000000000E+00 0.  1.
<mgrwt>
<rscale>  0 0.18247642E+04</rscale>
<asrwt>0</asrwt>
<pdfrwt beam="1">  1        2 0.18522128E+00 0.18247642E+04</pdfrwt>
<pdfrwt beam="2">  1       -2 0.10637411E+00 0.18247642E+04</pdfrwt>
<totfact> 0.12647879E+01</totfact>
</mgrwt>
</event>
<event>
12    1  0.1442183E-007  0.2039755E+04  0.7818608E-02  0.8588256E-01
         -2   -1    0    0    0  501 -0.00000000000E+00  0.00000000000E+00  0.37090854726E+03  0.37090854726E+03  0.00000000000E+00 0.  1.
          2   -1    0    0  501    0  0.00000000000E+00 -0.00000000000E+00 -0.28043309813E+04  0.28043309813E+04  0.00000000000E+00 0. -1.
         23    2    1    2    0    0  0.78962532530E+03 -0.52619210225E+02 -0.12806139234E+04  0.15081454825E+04  0.90850645862E+02 0.  0.
        254    2    1    2    0    0 -0.78962532530E+03  0.52619210225E+02 -0.11528085106E+04  0.16670940461E+04  0.90772141135E+03 0.  0.
        -24    2    4    4    0    0 -0.90822826806E+03  0.11851718749E+03 -0.11925397688E+04  0.15057881071E+04  0.79509827755E+02 0.  0.
         24    2    4    4    0    0  0.11860294276E+03 -0.65897977268E+02  0.39731258214E+02  0.16130593893E+03  0.77664867306E+02 0.  0.
         11    1    3    3    0    0  0.96168936982E+02 -0.23575394509E+02 -0.21099013008E+03  0.23306887106E+03  0.00000000000E+00 0.  1.
        -11    1    3    3    0    0  0.69345638832E+03 -0.29043815716E+02 -0.10696237933E+04  0.12750766114E+04  0.00000000000E+00 0. -1.
          4    1    6    6  502    0  0.52526341191E+02 -0.31667594207E+02  0.58285423374E+02  0.84611131771E+02  0.00000000000E+00 0. -1.
          3    1    5    5  503    0 -0.84908967857E+03  0.12998409192E+03 -0.11209854473E+04  0.14122526401E+04  0.00000000000E+00 0. -1.
         -4    1    5    5    0  503 -0.59138589486E+02 -0.11466904429E+02 -0.71554321557E+02  0.93535467054E+02  0.00000000000E+00 0.  1.
         -3    1    6    6    0  502  0.66076601571E+02 -0.34230383062E+02 -0.18554165159E+02  0.76694807155E+02  0.00000000000E+00 0.  1.
<mgrwt>
<rscale>  0 0.20397552E+04</rscale>
<asrwt>0</asrwt>
<pdfrwt beam="1">  1        2 0.43143555E+00 0.20397552E+04</pdfrwt>
<pdfrwt beam="2">  1       -2 0.57062851E-01 0.20397552E+04</pdfrwt>
<totfact> 0.61358628E+00</totfact>
</mgrwt>
</event>
<event>
12    1  0.1442183E-007  0.2549169E+04  0.7818608E-02  0.8385675E-01
         -1   -1    0    0    0  501 -0.00000000000E+00  0.00000000000E+00  0.10945759247E+04  0.10945759247E+04  0.00000000000E+00 0.  1.
          1   -1    0    0  501    0  0.00000000000E+00 -0.00000000000E+00 -0.14841961259E+04  0.14841961259E+04  0.00000000000E+00 0. -1.
         23    2    1    2    0    0  0.29491426867E+02  0.11148982714E+04 -0.17721431651E+03  0.11327801528E+04  0.88983486517E+02 0.  0.
        254    2    1    2    0    0 -0.29491426867E+02 -0.11148982714E+04 -0.21240588478E+03  0.14459918978E+04  0.89549338853E+03 0.  0.
        -24    2    4    4    0    0  0.42527044073E+03 -0.57687107962E+03 -0.11364726898E+03  0.73008906202E+03  0.80493145552E+02 0.  0.
         24    2    4    4    0    0 -0.45476186760E+03 -0.53802719174E+03 -0.98758615797E+02  0.71590283578E+03  0.80510811797E+02 0.  0.
         13    1    3    3    0    0  0.41806056251E+02  0.92460465063E+03 -0.17572195200E+03  0.94208264537E+03  0.00000000000E+00 0. -1.
        -13    1    3    3    0    0 -0.12314629385E+02  0.19029362073E+03 -0.14923645095E+01  0.19069750742E+03  0.00000000000E+00 0.  1.
          2    1    6    6  502    0 -0.43656517686E+03 -0.52977185264E+03 -0.10607916501E+03  0.69462231374E+03  0.00000000000E+00 0. -1.
          1    1    5    5  503    0  0.14548146107E+03 -0.25900657420E+03 -0.62248094943E+02  0.30351949907E+03  0.00000000000E+00 0. -1.
         -2    1    5    5    0  503  0.27978897966E+03 -0.31786450542E+03 -0.51399174039E+02  0.42656956295E+03  0.00000000000E+00 0.  1.
         -1    1    6    6    0  502 -0.18196690740E+02 -0.82553390918E+01  0.73205492153E+01  0.21280522039E+02  0.00000000000E+00 0.  1.
<mgrwt>
<rscale>  0 0.25491688E+04</rscale>
<asrwt>0</asrwt>
<pdfrwt beam="1">  1        1 0.22833786E+00 0.25491688E+04</pdfrwt>
<pdfrwt beam="2">  1       -1 0.16839630E+00 0.25491688E+04</pdfrwt>
<totfact> 0.15008151E+00</totfact>
</mgrwt>
</event>
<event>
12    1  0.1442183E-007  0.1938447E+04  0.7818608E-02  0.8635952E-01
         -3   -1    0    0    0  501 -0.00000000000E+00  0.00000000000E+00  0.57749108201E+03  0.57749108201E+03  0.00000000000E+00 0.  1.
          3   -1    0    0  501    0  0.00000000000E+00 -0.00000000000E+00 -0.16266812368E+04  0.16266812368E+04  0.00000000000E+00 0. -1.
         23    2    1    2    0    0 -0.28017993307E+03  0.13395421361E+03 -0.12017707781E+04  0.12450098168E+04  0.96705297707E+02 0.  0.
        254    2    1    2    0    0  0.28017993307E+03 -0.13395421361E+03  0.15258062327E+03  0.95916250204E+03  0.89457662192E+03 0.  0.
        -24    2    4    4    0    0  0.52628295354E+03 -0.31095351382E+03  0.16914675435E+02  0.61698125890E+03  0.81938590687E+02 0.  0.
         24    2    4    4    0    0 -0.24610302047E+03  0.17699930021E+03  0.13566594783E+03  0.34218124314E+03  0.82385100588E+02 0.  0.
         11    1    3    3    0    0 -0.25590549423E+03  0.87486127250E+02 -0.94478738885E+03  0.98273325708E+03  0.00000000000E+00 0. -1.
        -11    1    3    3    0    0 -0.24274438837E+02  0.46468086365E+02 -0.25698338921E+03  0.26227655969E+03  0.00000000000E+00 0.  1.
          2    1    6    6  502    0 -0.12514602520E+03  0.84061862832E+02  0.11202188174E+03  0.18782126183E+03  0.00000000000E+00 0. -1.
          1    1    5    5  503    0  0.34377051882E+03 -0.16942878943E+03 -0.16564671570E+02  0.38361265964E+03  0.00000000000E+00 0. -1.
         -2    1    5    5    0  503  0.18251243472E+03 -0.14152472439E+03  0.33479347005E+02  0.23336859925E+03  0.00000000000E+00 0.  1.
         -1    1    6    6    0  502 -0.12095699527E+03  0.92937437374E+02  0.23644066097E+02  0.15435998131E+03  0.00000000000E+00 0.  1.
<mgrwt>
<rscale>  0 0.19384467E+04</rscale>
<asrwt>0</asrwt>
<pdfrwt beam="1">  1        3 0.25025865E+00 0.19384467E+04</pdfrwt>
<pdfrwt beam="2">  1       -3 0.88844782E-01 0.19384467E+04</pdfrwt>
<totfact> 0.20640182E-01</totfact>
</mgrwt>
</event>
<event>
12    1  0.1442183E-007  0.2702281E+04  0.7818608E-02  0.8334265E-01
          1   -1    0    0  501    0  0.00000000000E+00  0.00000000000E+00  0.18098081730E+04  0.18098081730E+04  0.00000000000E+00 0. -1.
         -1   -1    0    0    0  501 -0.00000000000E+00 -0.00000000000E+00 -0.10087148959E+04  0.10087148959E+04  0.00000000000E+00 0.  1.
         23    2    1    2    0    0  0.24059900456E+03  0.10885196703E+04 -0.11159533627E+03  0.11245210568E+04  0.96597797104E+02 0.  0.
        254    2    1    2    0    0 -0.24059900456E+03 -0.10885196703E+04  0.91268861344E+03  0.16940020122E+04  0.89099907887E+03 0.  0.
        -24    2    4    4    0    0 -0.30773115305E+03 -0.16426194528E+02  0.36914506034E+03  0.48743495112E+03  0.79727495673E+02 0.  0.
         24    2    4    4    0    0  0.67132148493E+02 -0.10720934758E+04  0.54354355310E+03  0.12065670611E+04  0.80457023237E+02 0.  0.
         11    1    3    3    0    0  0.23037833816E+02  0.20174690321E+03 -0.51430365647E+02  0.20946989582E+03  0.00000000000E+00 0. -1.
        -11    1    3    3    0    0  0.21756117074E+03  0.88677276707E+03 -0.60164970628E+02  0.91505116094E+03  0.00000000000E+00 0.  1.
          2    1    6    6  502    0  0.85236363740E+02 -0.86945801958E+03  0.44826980674E+03  0.98192072244E+03  0.00000000000E+00 0. -1.
          1    1    5    5  503    0 -0.17775902086E+03 -0.16284674506E+02  0.27126930457E+03  0.32473142090E+03  0.00000000000E+00 0. -1.
         -2    1    5    5    0  503 -0.12997213219E+03 -0.14152002152E+00  0.97875755777E+02  0.16270353021E+03  0.00000000000E+00 0.  1.
         -1    1    6    6    0  502 -0.18104215248E+02 -0.20263545618E+03  0.95273746353E+02  0.22464633862E+03  0.00000000000E+00 0.  1.
<mgrwt>
<rscale>  0 0.27022809E+04</rscale>
<asrwt>0</asrwt>
<pdfrwt beam="1">  1        1 0.27843202E+00 0.27022809E+04</pdfrwt>
<pdfrwt beam="2">  1       -1 0.15518691E+00 0.27022809E+04</pdfrwt>
<totfact> 0.11139767E+00</totfact>
</mgrwt>
</event>
<event>
12    1  0.2077587E-007  0.1664637E+04  0.7818608E-02  0.8781794E-01
          1   -1    0    0  501    0  0.00000000000E+00  0.00000000000E+00  0.17178947008E+04  0.17178947008E+04  0.00000000000E+00 0. -1.
         -1   -1    0    0    0  501 -0.00000000000E+00 -0.00000000000E+00 -0.40325758127E+03  0.40325758127E+03  0.00000000000E+00 0.  1.
         23    2    1    2    0    0 -0.14254941672E+03 -0.14407277853E+03 -0.22618442677E+03  0.31791562015E+03  0.93987472048E+02 0.  0.
        254    2    1    2    0    0  0.14254941672E+03  0.14407277853E+03  0.15408215463E+04  0.18032366619E+04  0.91457865687E+03 0.  0.
        -24    2    4    4    0    0  0.51961464135E+03  0.12918935767E+01  0.87470043071E+03  0.10203872180E+04  0.78026833114E+02 0.  0.
         24    2    4    4    0    0 -0.37706522463E+03  0.14278088496E+03  0.66612111557E+03  0.78284944389E+03  0.81063841868E+02 0.  0.
         11    1    3    3    0    0 -0.15552662615E+03 -0.14085513972E+03 -0.20919173234E+03  0.29629357520E+03  0.00000000000E+00 0.  1.
        -11    1    3    3    0    0  0.12977209423E+02 -0.32176388124E+01 -0.16992694425E+02  0.21622044949E+02  0.00000000000E+00 0. -1.
          4    1    6    6  502    0 -0.24566607313E+01 -0.50052888069E+01  0.25996315954E+02  0.26587526044E+02  0.00000000000E+00 0. -1.
          1    1    5    5  503    0  0.26066649095E+02 -0.78935347425E+01  0.21590875533E+02  0.34755488661E+02  0.00000000000E+00 0. -1.
         -2    1    5    5    0  503  0.49354799226E+03  0.91854283192E+01  0.85310955517E+03  0.98563172934E+03  0.00000000000E+00 0.  1.
         -3    1    6    6    0  502 -0.37460856390E+03  0.14778617376E+03  0.64012479962E+03  0.75626191785E+03  0.00000000000E+00 0.  1.
<mgrwt>
<rscale>  0 0.16646370E+04</rscale>
<asrwt>0</asrwt>
<pdfrwt beam="1">  1        1 0.26429149E+00 0.16646370E+04</pdfrwt>
<pdfrwt beam="2">  1       -1 0.62039629E-01 0.16646370E+04</pdfrwt>
<totfact> 0.11654762E+01</totfact>
</mgrwt>
</event>
<event>
12    1  0.1442183E-007  0.3148549E+04  0.7818608E-02  0.8202539E-01
          1   -1    0    0  501    0  0.00000000000E+00  0.00000000000E+00  0.34387363286E+04  0.34387363286E+04  0.00000000000E+00 0. -1.
         -1   -1    0    0    0  501 -0.00000000000E+00 -0.00000000000E+00 -0.72071255014E+03  0.72071255014E+03  0.00000000000E+00 0.  1.
         23    2    1    2    0    0  0.59311623783E+03  0.86067236154E+03  0.25642472032E+04  0.27708430526E+04  0.98304208649E+02 0.  0.
        254    2    1    2    0    0 -0.59311623783E+03 -0.86067236154E+03  0.15377657525E+03  0.13886058261E+04  0.90112991282E+03 0.  0.
        -24    2    4    4    0    0 -0.13487530719E+03 -0.24743972748E+03 -0.35929218537E+03  0.46359764800E+03  0.80088310858E+02 0.  0.
         24    2    4    4    0    0 -0.45824093064E+03 -0.61323263407E+03  0.51306876062E+03  0.92500817813E+03  0.79759403793E+02 0.  0.
         13    1    3    3    0    0  0.24626756561E+03  0.31339123112E+03  0.87113915776E+03  0.95799019296E+03  0.00000000000E+00 0.  1.
        -13    1    3    3    0    0  0.34684867223E+03  0.54728113042E+03  0.16931080454E+04  0.18128528596E+04  0.00000000000E+00 0. -1.
          2    1    6    6  502    0 -0.10381301734E+03 -0.19777939905E+03  0.13917591724E+03  0.26318010791E+03  0.00000000000E+00 0. -1.
          3    1    5    5  503    0 -0.73714273626E+02 -0.92026757431E+02 -0.97173051649E+02  0.15279175431E+03  0.00000000000E+00 0. -1.
         -4    1    5    5    0  503 -0.61161033568E+02 -0.15541297004E+03 -0.26211913372E+03  0.31080589368E+03  0.00000000000E+00 0.  1.
         -1    1    6    6    0  502 -0.35442791330E+03 -0.41545323501E+03  0.37389284338E+03  0.66182807023E+03  0.00000000000E+00 0.  1.
<mgrwt>
<rscale>  0 0.31485491E+04</rscale>
<asrwt>0</asrwt>
<pdfrwt beam="1">  1        1 0.52903635E+00 0.31485491E+04</pdfrwt>
<pdfrwt beam="2">  1       -1 0.11087886E+00 0.31485491E+04</pdfrwt>
<totfact> 0.17547334E-01</totfact>
</mgrwt>
</event>
<event>
12    1  0.1442183E-007  0.1788716E+04  0.7818608E-02  0.8712323E-01
         -2   -1    0    0    0  501 -0.00000000000E+00  0.00000000000E+00  0.60584007695E+03  0.60584007695E+03  0.00000000000E+00 0.  1.
          2   -1    0    0  501    0  0.00000000000E+00 -0.00000000000E+00 -0.13202756697E+04  0.13202756697E+04  0.00000000000E+00 0. -1.
         23    2    1    2    0    0 -0.55414756257E+03  0.36266240898E+03 -0.22561774068E+03  0.70572258964E+03  0.92398401681E+02 0.  0.
        254    2    1    2    0    0  0.55414756257E+03 -0.36266240898E+03 -0.48881785204E+03  0.12203931570E+04  0.90100667098E+03 0.  0.
        -24    2    4    4    0    0 -0.51491230841E+02 -0.15390693737E+03  0.20416820312E+03  0.27287569161E+03  0.80235875302E+02 0.  0.
         24    2    4    4    0    0  0.60563879341E+03 -0.20875547161E+03 -0.69298605516E+03  0.94751746536E+03  0.84749510405E+02 0.  0.
         11    1    3    3    0    0 -0.50295659998E+03  0.29247470270E+03 -0.19648035907E+03  0.61409390543E+03  0.00000000000E+00 0.  1.
        -11    1    3    3    0    0 -0.51190962586E+02  0.70187706280E+02 -0.29137381606E+02  0.91628684210E+02  0.00000000000E+00 0. -1.
          4    1    6    6  502    0  0.37256580476E+03 -0.17018741991E+03 -0.45441389245E+03  0.61176876549E+03  0.00000000000E+00 0. -1.
          3    1    5    5  503    0 -0.64099557783E+02 -0.10333960632E+03  0.17514995733E+03  0.21322601880E+03  0.00000000000E+00 0. -1.
         -4    1    5    5    0  503  0.12608326942E+02 -0.50567331051E+02  0.29018245791E+02  0.59649672812E+02  0.00000000000E+00 0.  1.
         -3    1    6    6    0  502  0.23307298865E+03 -0.38568051701E+02 -0.23857216271E+03  0.33574869988E+03  0.00000000000E+00 0.  1.
<mgrwt>
<rscale>  0 0.17887156E+04</rscale>
<asrwt>0</asrwt>
<pdfrwt beam="1">  1        2 0.20311933E+00 0.17887156E+04</pdfrwt>
<pdfrwt beam="2">  1       -2 0.93206167E-01 0.17887156E+04</pdfrwt>
<totfact> 0.14814511E+01</totfact>
</mgrwt>
</event>
<event>
12    1  0.1442183E-007  0.2896361E+04  0.7818608E-02  0.8273961E-01
         -1   -1    0    0    0  501 -0.00000000000E+00  0.00000000000E+00  0.38433244956E+04  0.38433244956E+04  0.00000000000E+00 0.  1.
          1   -1    0    0  501    0  0.00000000000E+00 -0.00000000000E+00 -0.54568031117E+03  0.54568031117E+03  0.00000000000E+00 0. -1.
         23    2    1    2    0    0 -0.27115283464E+02 -0.11171653925E+04  0.46917250705E+03  0.12153458525E+04  0.90271517493E+02 0.  0.
        254    2    1    2    0    0  0.27115283464E+02  0.11171653925E+04  0.28284716773E+04  0.31736589543E+04  0.90722950541E+03 0.  0.
        -24    2    4    4    0    0  0.21123238954E+03  0.52150334226E+03  0.22449063191E+04  0.23159023511E+04  0.84937974961E+02 0.  0.
         24    2    4    4    0    0 -0.18411710608E+03  0.59566205029E+03  0.58356535821E+03  0.85775660320E+03  0.80532453817E+02 0.  0.
         11    1    3    3    0    0 -0.31712095264E+02 -0.13228295255E+03  0.64693390218E+02  0.15063091070E+03  0.00000000000E+00 0.  1.
        -11    1    3    3    0    0  0.45968118000E+01 -0.98488244000E+03  0.40447911683E+03  0.10647149418E+04  0.00000000000E+00 0. -1.
          4    1    6    6  502    0 -0.16559684705E+03  0.45955644244E+03  0.48760071941E+03  0.69019482837E+03  0.00000000000E+00 0. -1.
          1    1    5    5  503    0  0.21591604645E+03  0.47102134694E+03  0.20610013705E+04  0.21251370538E+04  0.00000000000E+00 0. -1.
         -2    1    5    5    0  503 -0.46836569094E+01  0.50481995322E+02  0.18390494863E+03  0.19076529722E+03  0.00000000000E+00 0.  1.
         -3    1    6    6    0  502 -0.18520259030E+02  0.13610560785E+03  0.95964638799E+02  0.16756177482E+03  0.00000000000E+00 0.  1.
<mgrwt>
<rscale>  0 0.28963608E+04</rscale>
<asrwt>0</asrwt>
<pdfrwt beam="1">  1        1 0.83950820E-01 0.28963608E+04</pdfrwt>
<pdfrwt beam="2">  1       -1 0.59128067E+00 0.28963608E+04</pdfrwt>
<totfact> 0.15920984E-02</totfact>
</mgrwt>
</event>
<event>
12    1  0.1442183E-007  0.1714770E+04  0.7818608E-02  0.8752985E-01
         -2   -1    0    0    0  501 -0.00000000000E+00  0.00000000000E+00  0.32184994508E+03  0.32184994508E+03  0.00000000000E+00 0.  1.
          2   -1    0    0  501    0  0.00000000000E+00 -0.00000000000E+00 -0.22840130252E+04  0.22840130252E+04  0.00000000000E+00 0. -1.
         23    2    1    2    0    0 -0.39020067485E+03 -0.42219054866E+03 -0.38070609244E+03  0.69539158808E+03  0.90171536061E+02 0.  0.
        254    2    1    2    0    0  0.39020067485E+03  0.42219054866E+03 -0.15814569877E+04  0.19104713822E+04  0.90465091183E+03 0.  0.
        -24    2    4    4    0    0  0.14687447482E+02  0.62996966175E+03 -0.98353582746E+03  0.11702575817E+04  0.71292269882E+02 0.  0.
         24    2    4    4    0    0  0.37551322737E+03 -0.20777911309E+03 -0.59792116023E+03  0.74021380052E+03  0.78894948271E+02 0.  0.
         11    1    3    3    0    0 -0.35787161003E+03 -0.38597595798E+03 -0.31402838824E+03  0.61291382594E+03  0.00000000000E+00 0. -1.
        -11    1    3    3    0    0 -0.32329064822E+02 -0.36214590684E+02 -0.66677704202E+02  0.82477762145E+02  0.00000000000E+00 0.  1.
          4    1    6    6  502    0  0.20072782893E+03 -0.79915911956E+02 -0.25024034713E+03  0.33060315429E+03  0.00000000000E+00 0. -1.
          1    1    5    5  503    0 -0.15402863697E+02  0.43668132998E+03 -0.71675731881E+03  0.83944558265E+03  0.00000000000E+00 0. -1.
         -4    1    5    5    0  503  0.30090311180E+02  0.19328833177E+03 -0.26677850866E+03  0.33081199904E+03  0.00000000000E+00 0.  1.
         -3    1    6    6    0  502  0.17478539844E+03 -0.12786320113E+03 -0.34768081310E+03  0.40961064623E+03  0.00000000000E+00 0.  1.
<mgrwt>
<rscale>  0 0.17147705E+04</rscale>
<asrwt>0</asrwt>
<pdfrwt beam="1">  1        2 0.35138663E+00 0.17147705E+04</pdfrwt>
<pdfrwt beam="2">  1       -2 0.49515375E-01 0.17147705E+04</pdfrwt>
<totfact> 0.16997002E+01</totfact>
</mgrwt>
</event>
<event>
12    1  0.1442183E-007  0.2328374E+04  0.7818608E-02  0.8466817E-01
         -3   -1    0    0    0  501 -0.00000000000E+00  0.00000000000E+00  0.67675747300E+03  0.67675747300E+03  0.00000000000E+00 0.  1.
          3   -1    0    0  501    0  0.00000000000E+00 -0.00000000000E+00 -0.20026843465E+04  0.20026843465E+04  0.00000000000E+00 0. -1.
         23    2    1    2    0    0 -0.46857858271E+02 -0.12102367479E+03  0.56111975882E+03  0.58279309536E+03  0.89162881939E+02 0.  0.
        254    2    1    2    0    0  0.46857858271E+02  0.12102367479E+03 -0.18870466323E+04  0.20966487241E+04  0.90451561131E+03 0.  0.
        -24    2    4    4    0    0 -0.32700136121E+03  0.29272189347E+03 -0.63227393313E+03  0.77373930881E+03  0.79285524127E+02 0.  0.
         24    2    4    4    0    0  0.37385921948E+03 -0.17169821868E+03 -0.12547726992E+04  0.13229094153E+04  0.79898687131E+02 0.  0.
         11    1    3    3    0    0  0.14651703333E+02 -0.45058998393E+02  0.30494790859E+03  0.30860689024E+03  0.00000000000E+00 0. -1.
        -11    1    3    3    0    0 -0.61509561604E+02 -0.75964676399E+02  0.25617185023E+03  0.27418620512E+03  0.00000000000E+00 0.  1.
          4    1    6    6  502    0  0.30964272372E+03 -0.12016410131E+03 -0.10757843091E+04  0.11258907173E+04  0.00000000000E+00 0. -1.
          1    1    5    5  503    0 -0.25101900841E+03  0.19027731377E+03 -0.40438325181E+03  0.51258346936E+03  0.00000000000E+00 0. -1.
         -2    1    5    5    0  503 -0.75982352804E+02  0.10244457970E+03 -0.22789068132E+03  0.26115583945E+03  0.00000000000E+00 0.  1.
         -1    1    6    6    0  502  0.64216495765E+02 -0.51534117371E+02 -0.17898839014E+03  0.19701869806E+03  0.00000000000E+00 0.  1.
<mgrwt>
<rscale>  0 0.23283742E+04</rscale>
<asrwt>0</asrwt>
<pdfrwt beam="1">  1        3 0.30810528E+00 0.23283742E+04</pdfrwt>
<pdfrwt beam="2">  1       -3 0.10411653E+00 0.23283742E+04</pdfrwt>
<totfact> 0.65448857E-02</totfact>
</mgrwt>
</event>
<event>
12    1  0.1442183E-007  0.1611956E+04  0.7818608E-02  0.8813236E-01
          2   -1    0    0  501    0  0.00000000000E+00  0.00000000000E+00  0.22145937408E+04  0.22145937408E+04  0.00000000000E+00 0. -1.
         -2   -1    0    0    0  501 -0.00000000000E+00 -0.00000000000E+00 -0.29332733160E+03  0.29332733160E+03  0.00000000000E+00 0.  1.
         23    2    1    2    0    0  0.42077223684E+03 -0.38207460636E+03  0.67668436369E+03  0.88842478150E+03  0.91469034115E+02 0.  0.
        254    2    1    2    0    0 -0.42077223684E+03  0.38207460636E+03  0.12445820455E+04  0.16194962909E+04  0.86646032115E+03 0.  0.
        -24    2    4    4    0    0  0.22173216697E+03  0.95205717955E+02  0.10192359997E+03  0.27523054327E+03  0.84463892397E+02 0.  0.
         24    2    4    4    0    0 -0.64250440381E+03  0.28686888841E+03  0.11426584456E+04  0.13442657477E+04  0.79223790840E+02 0.  0.
         11    1    3    3    0    0  0.83585896001E+02 -0.45253248447E+02  0.15493060858E+03  0.18176345062E+03  0.00000000000E+00 0.  1.
        -11    1    3    3    0    0  0.33718634084E+03 -0.33682135791E+03  0.52175375511E+03  0.70666133088E+03  0.00000000000E+00 0. -1.
          2    1    6    6  502    0 -0.47498631485E+03  0.19961258710E+03  0.89629943167E+03  0.10338326051E+04  0.00000000000E+00 0. -1.
          1    1    5    5  503    0  0.21664879213E+03  0.10545995653E+03  0.10578448516E+03  0.26315177914E+03  0.00000000000E+00 0. -1.
         -2    1    5    5    0  503  0.50833748378E+01 -0.10254238573E+02 -0.38608851965E+01  0.12078764132E+02  0.00000000000E+00 0.  1.
         -1    1    6    6    0  502 -0.16751808896E+03  0.87256301306E+02  0.24635901391E+03  0.31043314253E+03  0.00000000000E+00 0.  1.
<mgrwt>
<rscale>  0 0.16119564E+04</rscale>
<asrwt>0</asrwt>
<pdfrwt beam="1">  1        2 0.34070672E+00 0.16119564E+04</pdfrwt>
<pdfrwt beam="2">  1       -2 0.45127283E-01 0.16119564E+04</pdfrwt>
<totfact> 0.22623866E+01</totfact>
</mgrwt>
</event>
<event>
12    1  0.1442183E-007  0.1892889E+04  0.7818608E-02  0.8658404E-01
         -2   -1    0    0    0  501 -0.00000000000E+00  0.00000000000E+00  0.79771423323E+03  0.79771423323E+03  0.00000000000E+00 0.  1.
          2   -1    0    0  501    0  0.00000000000E+00 -0.00000000000E+00 -0.11229048174E+04  0.11229048174E+04  0.00000000000E+00 0. -1.
         23    2    1    2    0    0 -0.32960837664E+03  0.66154412772E+02 -0.79690053912E+03  0.86974863213E+03  0.91619460571E+02 0.  0.
        254    2    1    2    0    0  0.32960837664E+03 -0.66154412772E+02  0.47170995493E+03  0.10508704185E+04  0.87681256074E+03 0.  0.
        -24    2    4    4    0    0  0.45765088788E+01 -0.34035570768E+03  0.50753256772E+03  0.61626919760E+03  0.79595630740E+02 0.  0.
         24    2    4    4    0    0  0.32503186777E+03  0.27420129490E+03 -0.35822612795E+02  0.43460122093E+03  0.82236831481E+02 0.  0.
         13    1    3    3    0    0 -0.47724230360E+02 -0.19146329437E+02 -0.85129427331E+02  0.99454529771E+02  0.00000000000E+00 0.  1.
        -13    1    3    3    0    0 -0.28188414628E+03  0.85300742209E+02 -0.71177111179E+03  0.77029410236E+03  0.00000000000E+00 0. -1.
          2    1    6    6  502    0  0.97385381552E+02  0.90916745887E+02  0.26330008104E+02  0.13580514184E+03  0.00000000000E+00 0. -1.
          3    1    5    5  503    0  0.10097557782E+02 -0.86282676919E+02  0.75793585455E+02  0.11528802455E+03  0.00000000000E+00 0. -1.
         -4    1    5    5    0  503 -0.55210489031E+01 -0.25407303076E+03  0.43173898227E+03  0.50098117305E+03  0.00000000000E+00 0.  1.
         -1    1    6    6    0  502  0.22764648621E+03  0.18328454902E+03 -0.62152620899E+02  0.29879607909E+03  0.00000000000E+00 0.  1.
<mgrwt>
<rscale>  0 0.18928890E+04</rscale>
<asrwt>0</asrwt>
<pdfrwt beam="1">  1        2 0.17275459E+00 0.18928890E+04</pdfrwt>
<pdfrwt beam="2">  1       -2 0.12272527E+00 0.18928890E+04</pdfrwt>
<totfact> 0.99239962E+00</totfact>
</mgrwt>
</event>
<event>
12    1  0.1442183E-007  0.1761020E+04  0.7818608E-02  0.8727308E-01
          1   -1    0    0  501    0  0.00000000000E+00  0.00000000000E+00  0.24443063764E+04  0.24443063764E+04  0.00000000000E+00 0. -1.
         -1   -1    0    0    0  501 -0.00000000000E+00 -0.00000000000E+00 -0.31718519723E+03  0.31718519723E+03  0.00000000000E+00 0.  1.
         23    2    1    2    0    0 -0.21859861664E+03  0.60174040563E+03  0.80505393821E+03  0.10327565043E+04  0.92721533285E+02 0.  0.
        254    2    1    2    0    0  0.21859861664E+03 -0.60174040563E+03  0.13220672409E+04  0.17287350693E+04  0.91147478265E+03 0.  0.
        -24    2    4    4    0    0  0.36261713190E+03 -0.77590237213E+03  0.11382846870E+04  0.14266901644E+04  0.78975445852E+02 0.  0.
         24    2    4    4    0    0 -0.14401851527E+03  0.17416196649E+03  0.18378255395E+03  0.30204490497E+03  0.79883503739E+02 0.  0.
         11    1    3    3    0    0 -0.21528391206E+03  0.59483029050E+03  0.76831985793E+03  0.99523145116E+03  0.00000000000E+00 0. -1.
        -11    1    3    3    0    0 -0.33147045780E+01  0.69101151357E+01  0.36734080282E+02  0.37525053122E+02  0.00000000000E+00 0.  1.
          4    1    6    6  502    0 -0.87769316989E+02  0.15748165409E+03  0.12815893312E+03  0.22119818381E+03  0.00000000000E+00 0. -1.
          3    1    5    5  503    0  0.18311476690E+03 -0.45837067159E+03  0.60940426583E+03  0.78422461683E+03  0.00000000000E+00 0. -1.
         -4    1    5    5    0  503  0.17950236500E+03 -0.31753170054E+03  0.52888042115E+03  0.64246554753E+03  0.00000000000E+00 0.  1.
         -3    1    6    6    0  502 -0.56249198276E+02  0.16680312398E+02  0.55623620829E+02  0.80846721161E+02  0.00000000000E+00 0.  1.
<mgrwt>
<rscale>  0 0.17610199E+04</rscale>
<asrwt>0</asrwt>
<pdfrwt beam="1">  1        1 0.37604712E+00 0.17610199E+04</pdfrwt>
<pdfrwt beam="2">  1       -1 0.48797724E-01 0.17610199E+04</pdfrwt>
<totfact> 0.58996229E+00</totfact>
</mgrwt>
</event>
<event>
12    1  0.1442183E-007  0.3186266E+04  0.7818608E-02  0.8192454E-01
          2   -1    0    0  501    0  0.00000000000E+00  0.00000000000E+00  0.27209467388E+04  0.27209467388E+04  0.00000000000E+00 0.  1.
         -2   -1    0    0    0  501 -0.00000000000E+00 -0.00000000000E+00 -0.93279052157E+03  0.93279052157E+03  0.00000000000E+00 0. -1.
         23    2    1    2    0    0 -0.10582548882E+04 -0.72974244061E+03  0.16276514693E+04  0.20760608783E+04  0.91389425047E+02 0.  0.
        254    2    1    2    0    0  0.10582548882E+04  0.72974244061E+03  0.16050474796E+03  0.15776763821E+04  0.90048517729E+03 0.  0.
        -24    2    4    4    0    0  0.88670402677E+03  0.75952428718E+03  0.43044469874E+03  0.12469566463E+04  0.80604374139E+02 0.  0.
         24    2    4    4    0    0  0.17155086139E+03 -0.29781846565E+02 -0.26993995078E+03  0.33071973580E+03  0.78684879056E+02 0.  0.
         13    1    3    3    0    0 -0.74932118111E+03 -0.55197887808E+03  0.12224086427E+04  0.15363742396E+04  0.00000000000E+00 0.  1.
        -13    1    3    3    0    0 -0.30893370705E+03 -0.17776356253E+03  0.40524282661E+03  0.53968663874E+03  0.00000000000E+00 0. -1.
          2    1    6    6  502    0  0.41456366167E+01  0.11996833394E+02 -0.32839284985E+01  0.13110854313E+02  0.00000000000E+00 0. -1.
          1    1    5    5  503    0  0.81557286367E+02  0.71858152260E+02  0.15883674670E+02  0.10985206474E+03  0.00000000000E+00 0. -1.
         -2    1    5    5    0  503  0.80514674040E+03  0.68766613492E+03  0.41456102407E+03  0.11371045815E+04  0.00000000000E+00 0.  1.
         -1    1    6    6    0  502  0.16740522477E+03 -0.41778679959E+02 -0.26665602228E+03  0.31760888149E+03  0.00000000000E+00 0.  1.
<mgrwt>
<rscale>  0 0.31862664E+04</rscale>
<asrwt>0</asrwt>
<pdfrwt beam="1">  1        2 0.41860719E+00 0.31862664E+04</pdfrwt>
<pdfrwt beam="2">  1       -2 0.14350623E+00 0.31862664E+04</pdfrwt>
<totfact> 0.73205938E-01</totfact>
</mgrwt>
</event>
<event>
12    1  0.1442183E-007  0.1128165E+04  0.7818608E-02  0.9178167E-01
          2   -1    0    0  501    0  0.00000000000E+00  0.00000000000E+00  0.92317645990E+03  0.92317645990E+03  0.00000000000E+00 0. -1.
         -2   -1    0    0    0  501 -0.00000000000E+00 -0.00000000000E+00 -0.34466779255E+03  0.34466779255E+03  0.00000000000E+00 0.  1.
         23    2    1    2    0    0  0.17827662012E+03 -0.62641737708E+02  0.41777785963E+02  0.21357817514E+03  0.90353267307E+02 0.  0.
        254    2    1    2    0    0 -0.17827662012E+03  0.62641737708E+02  0.53673088139E+03  0.10542660773E+04  0.88751922917E+03 0.  0.
        -24    2    4    4    0    0  0.16783206862E+03 -0.32780476552E+03  0.18686526472E+03  0.42065878535E+03  0.80072585660E+02 0.  0.
         24    2    4    4    0    0 -0.34610868874E+03  0.39044650322E+03  0.34986561667E+03  0.63360729196E+03  0.82538199641E+02 0.  0.
         11    1    3    3    0    0  0.51868799838E+02  0.60197862043E+01 -0.21441302394E+02  0.56447671971E+02  0.00000000000E+00 0.  1.
        -11    1    3    3    0    0  0.12640782028E+03 -0.68661523912E+02  0.63219088357E+02  0.15713050317E+03  0.00000000000E+00 0. -1.
          4    1    6    6  502    0 -0.22931211043E+03  0.23671002790E+03  0.17515356221E+03  0.37322171916E+03  0.00000000000E+00 0. -1.
          1    1    5    5  503    0  0.10549943345E+03 -0.27682444917E+03  0.15094434284E+03  0.33248473763E+03  0.00000000000E+00 0. -1.
         -2    1    5    5    0  503  0.62332635176E+02 -0.50980316342E+02  0.35920921880E+02  0.88174047718E+02  0.00000000000E+00 0.  1.
         -3    1    6    6    0  502 -0.11679657831E+03  0.15373647532E+03  0.17471205446E+03  0.26038557281E+03  0.00000000000E+00 0.  1.
<mgrwt>
<rscale>  0 0.11281652E+04</rscale>
<asrwt>0</asrwt>
<pdfrwt beam="1">  1        2 0.14202715E+00 0.11281652E+04</pdfrwt>
<pdfrwt beam="2">  1       -2 0.53025815E-01 0.11281652E+04</pdfrwt>
<totfact> 0.94033820E+01</totfact>
</mgrwt>
</event>
<event>
12    1  0.1442183E-007  0.2768498E+04  0.7818608E-02  0.8313116E-01
          1   -1    0    0  501    0  0.00000000000E+00  0.00000000000E+00  0.22427958100E+04  0.22427958100E+04  0.00000000000E+00 0. -1.
         -1   -1    0    0    0  501 -0.00000000000E+00 -0.00000000000E+00 -0.85435569473E+03  0.85435569473E+03  0.00000000000E+00 0.  1.
         23    2    1    2    0    0  0.36732773880E+03  0.11492894839E+04  0.31245964078E+03  0.12497466759E+04  0.91868065402E+02 0.  0.
        254    2    1    2    0    0 -0.36732773880E+03 -0.11492894839E+04  0.10759804745E+04  0.18474048288E+04  0.89407753283E+03 0.  0.
        -24    2    4    4    0    0 -0.17289462434E+02  0.68232503350E+02 -0.77057123705E+02  0.13252797415E+03  0.81677803563E+02 0.  0.
         24    2    4    4    0    0 -0.35003827637E+03 -0.12175219872E+04  0.11530375982E+04  0.17148768547E+04  0.80127021660E+02 0.  0.
         13    1    3    3    0    0  0.10034237198E+03  0.23545516712E+03  0.96427468567E+02  0.27350682630E+03  0.00000000000E+00 0. -1.
        -13    1    3    3    0    0  0.26698536683E+03  0.91383431673E+03  0.21603217221E+03  0.97623984961E+03  0.00000000000E+00 0.  1.
          4    1    6    6  502    0 -0.15204235922E+03 -0.64345531093E+03  0.63406275633E+03  0.91607161026E+03  0.00000000000E+00 0. -1.
          3    1    5    5  503    0  0.24347125116E+02  0.51947743758E+02 -0.64005745181E+02  0.85953976052E+02  0.00000000000E+00 0. -1.
         -4    1    5    5    0  503 -0.41636587550E+02  0.16284759592E+02 -0.13051378524E+02  0.46573998102E+02  0.00000000000E+00 0.  1.
         -3    1    6    6    0  502 -0.19799591715E+03 -0.57406667628E+03  0.51897484189E+03  0.79880524443E+03  0.00000000000E+00 0.  1.
<mgrwt>
<rscale>  0 0.27684981E+04</rscale>
<asrwt>0</asrwt>
<pdfrwt beam="1">  1        1 0.34504551E+00 0.27684981E+04</pdfrwt>
<pdfrwt beam="2">  1       -1 0.13143934E+00 0.27684981E+04</pdfrwt>
<totfact> 0.87172388E-01</totfact>
</mgrwt>
</event>
<event>
12    1  0.1442183E-007  0.1501768E+04  0.7818608E-02  0.8883278E-01
          1   -1    0    0  501    0  0.00000000000E+00  0.00000000000E+00  0.27316314464E+04  0.27316314464E+04  0.00000000000E+00 0. -1.
         -1   -1    0    0    0  501 -0.00000000000E+00 -0.00000000000E+00 -0.20640648334E+03  0.20640648334E+03  0.00000000000E+00 0.  1.
         23    2    1    2    0    0  0.36420601362E+03 -0.32423764430E+03  0.79750912295E+03  0.93910979452E+03  0.90168368250E+02 0.  0.
        254    2    1    2    0    0 -0.36420601362E+03  0.32423764430E+03  0.17277158401E+04  0.19989281352E+04  0.87916755815E+03 0.  0.
        -24    2    4    4    0    0 -0.89424953935E+02 -0.23080362147E+03  0.10313002838E+04  0.10635785733E+04  0.79699260734E+02 0.  0.
         24    2    4    4    0    0 -0.27478105969E+03  0.55504126578E+03  0.69641555636E+03  0.93534956197E+03  0.79427567361E+02 0.  0.
         11    1    3    3    0    0  0.21709316406E+02 -0.22748055942E+02  0.10648807293E+03  0.11103368023E+03  0.00000000000E+00 0. -1.
        -11    1    3    3    0    0  0.34249669722E+03 -0.30148958836E+03  0.69102105002E+03  0.82807611430E+03  0.00000000000E+00 0.  1.
          2    1    6    6  502    0 -0.26606973893E+03  0.48818705459E+03  0.60373005704E+03  0.82073728319E+03  0.00000000000E+00 0. -1.
          1    1    5    5  503    0 -0.98388317923E+02 -0.21109115709E+03  0.86231845920E+03  0.89321490291E+03  0.00000000000E+00 0. -1.
         -2    1    5    5    0  503  0.89633639876E+01 -0.19712464380E+02  0.16898182456E+03  0.17036367036E+03  0.00000000000E+00 0.  1.
         -1    1    6    6    0  502 -0.87113207565E+01  0.66854211190E+02  0.92685499321E+02  0.11461227878E+03  0.00000000000E+00 0.  1.
<mgrwt>
<rscale>  0 0.15017675E+04</rscale>
<asrwt>0</asrwt>
<pdfrwt beam="1">  1        1 0.42025097E+00 0.15017675E+04</pdfrwt>
<pdfrwt beam="2">  1       -1 0.31754846E-01 0.15017675E+04</pdfrwt>
<totfact> 0.83551402E+00</totfact>
</mgrwt>
</event>
<event>
12    1  0.1442183E-007  0.1603918E+04  0.7818608E-02  0.8818144E-01
         -2   -1    0    0    0  501 -0.00000000000E+00  0.00000000000E+00  0.43316608166E+03  0.43316608166E+03  0.00000000000E+00 0.  1.
          2   -1    0    0  501    0  0.00000000000E+00 -0.00000000000E+00 -0.14847390426E+04  0.14847390426E+04  0.00000000000E+00 0. -1.
         23    2    1    2    0    0 -0.14417076257E+03 -0.52537802544E+03 -0.33608740704E+03  0.64660957559E+03  0.91334110187E+02 0.  0.
        254    2    1    2    0    0  0.14417076257E+03  0.52537802544E+03 -0.71548555393E+03  0.12712955487E+04  0.89859085010E+03 0.  0.
        -24    2    4    4    0    0 -0.13253976400E+03  0.53826129847E+03 -0.70245307654E+02  0.56445952519E+03  0.79925827238E+02 0.  0.
         24    2    4    4    0    0  0.27671052656E+03 -0.12883273038E+02 -0.64524024628E+03  0.70683602351E+03  0.80916589646E+02 0.  0.
         13    1    3    3    0    0 -0.13020319409E+03 -0.44403976705E+03 -0.24462527343E+03  0.52341733910E+03  0.00000000000E+00 0.  1.
        -13    1    3    3    0    0 -0.13967568478E+02 -0.81338258391E+02 -0.91462133610E+02  0.12319223649E+03  0.00000000000E+00 0. -1.
          4    1    6    6  502    0  0.49559470786E+02  0.28929754030E+02 -0.11736021225E+03  0.13063878150E+03  0.00000000000E+00 0. -1.
          1    1    5    5  503    0 -0.45830731199E+02  0.34366349899E+03 -0.34180772420E+02  0.34838682762E+03  0.00000000000E+00 0. -1.
         -2    1    5    5    0  503 -0.86709032798E+02  0.19459779949E+03 -0.36064535234E+02  0.21607269757E+03  0.00000000000E+00 0.  1.
         -3    1    6    6    0  502  0.22715105578E+03 -0.41813027068E+02 -0.52788003402E+03  0.57619724201E+03  0.00000000000E+00 0.  1.
<mgrwt>
<rscale>  0 0.16039184E+04</rscale>
<asrwt>0</asrwt>
<pdfrwt beam="1">  1        2 0.22842139E+00 0.16039184E+04</pdfrwt>
<pdfrwt beam="2">  1       -2 0.66640936E-01 0.16039184E+04</pdfrwt>
<totfact> 0.25678183E+01</totfact>
</mgrwt>
</event>
<event>
12    1  0.1442183E-007  0.1780593E+04  0.7818608E-02  0.8716688E-01
          1   -1    0    0  501    0  0.00000000000E+00  0.00000000000E+00  0.75373025495E+03  0.75373025495E+03  0.00000000000E+00 0. -1.
         -1   -1    0    0    0  501 -0.00000000000E+00 -0.00000000000E+00 -0.10516068249E+04  0.10516068249E+04  0.00000000000E+00 0.  1.
         23    2    1    2    0    0  0.11762208979E+02 -0.13259876660E+03  0.54354382869E+03  0.56682606814E+03  0.90172697354E+02 0.  0.
        254    2    1    2    0    0 -0.11762208979E+02  0.13259876660E+03 -0.84142039868E+03  0.12385110117E+04  0.89899969768E+03 0.  0.
        -24    2    4    4    0    0  0.17247738949E+03 -0.32790474575E+03 -0.51732015242E+03  0.64055229319E+03  0.73601141512E+02 0.  0.
         24    2    4    4    0    0 -0.18423959847E+03  0.46050351236E+03 -0.32410024626E+03  0.59795871856E+03  0.80659437990E+02 0.  0.
         13    1    3    3    0    0 -0.13066234402E+02 -0.36512285362E+02  0.49338989698E+02  0.62755154117E+02  0.00000000000E+00 0.  1.
        -13    1    3    3    0    0  0.24828443381E+02 -0.96086481240E+02  0.49420483899E+03  0.50407091402E+03  0.00000000000E+00 0. -1.
          2    1    6    6  502    0 -0.13598881578E+03  0.30606062655E+03 -0.25971887492E+03  0.42381594960E+03  0.00000000000E+00 0. -1.
          3    1    5    5  503    0  0.13008413215E+03 -0.28602599876E+03 -0.39716071640E+03  0.50642806800E+03  0.00000000000E+00 0. -1.
         -4    1    5    5    0  503  0.42393257342E+02 -0.41878746993E+02 -0.12015943602E+03  0.13412422519E+03  0.00000000000E+00 0.  1.
         -1    1    6    6    0  502 -0.48250782684E+02  0.15444288580E+03 -0.64381371338E+02  0.17414276896E+03  0.00000000000E+00 0.  1.
<mgrwt>
<rscale>  0 0.17805930E+04</rscale>
<asrwt>0</asrwt>
<pdfrwt beam="1">  1        1 0.11595850E+00 0.17805930E+04</pdfrwt>
<pdfrwt beam="2">  1       -1 0.16178566E+00 0.17805930E+04</pdfrwt>
<totfact> 0.65074175E+00</totfact>
</mgrwt>
</event>
<event>
12    1  0.1442183E-007  0.1424189E+04  0.7818608E-02  0.8936493E-01
          2   -1    0    0  501    0  0.00000000000E+00  0.00000000000E+00  0.12527166073E+04  0.12527166073E+04  0.00000000000E+00 0. -1.
         -2   -1    0    0    0  501 -0.00000000000E+00 -0.00000000000E+00 -0.40478305686E+03  0.40478305686E+03  0.00000000000E+00 0.  1.
         23    2    1    2    0    0  0.83907537833E+02  0.25214522605E+03  0.67742940470E+03  0.73348345916E+03  0.92030954452E+02 0.  0.
        254    2    1    2    0    0 -0.83907537833E+02 -0.25214522605E+03  0.17050414570E+03  0.92401620497E+03  0.86839886770E+03 0.  0.
        -24    2    4    4    0    0  0.23012461627E+02 -0.25385131166E+03  0.50081799489E+03  0.56771489763E+03  0.80693736873E+02 0.  0.
         24    2    4    4    0    0 -0.10691999946E+03  0.17060856105E+01 -0.33031384919E+03  0.35630130733E+03  0.80053642182E+02 0.  0.
         13    1    3    3    0    0  0.88419675284E+02  0.23895307003E+03  0.67171877996E+03  0.71841682052E+03  0.00000000000E+00 0. -1.
        -13    1    3    3    0    0 -0.45121374507E+01  0.13192156023E+02  0.57106247402E+01  0.15066638637E+02  0.00000000000E+00 0.  1.
          4    1    6    6  502    0 -0.10911917384E+03  0.15097115115E+02 -0.32215182788E+03  0.34046544199E+03  0.00000000000E+00 0. -1.
          1    1    5    5  503    0 -0.25138843505E+02 -0.15904886600E+03  0.30365828534E+03  0.34371042679E+03  0.00000000000E+00 0. -1.
         -2    1    5    5    0  503  0.48151305132E+02 -0.94802445660E+02  0.19715970955E+03  0.22400447085E+03  0.00000000000E+00 0.  1.
         -3    1    6    6    0  502  0.21991743844E+01 -0.13391029505E+02 -0.81620213119E+01  0.15835865340E+02  0.00000000000E+00 0.  1.
<mgrwt>
<rscale>  0 0.14241888E+04</rscale>
<asrwt>0</asrwt>
<pdfrwt beam="1">  1        2 0.19272563E+00 0.14241888E+04</pdfrwt>
<pdfrwt beam="2">  1       -2 0.62274317E-01 0.14241888E+04</pdfrwt>
<totfact> 0.40973483E+01</totfact>
</mgrwt>
</event>
<event>
12    1  0.1442183E-007  0.1649336E+04  0.7818608E-02  0.8790799E-01
          2   -1    0    0  501    0  0.00000000000E+00  0.00000000000E+00  0.28597386961E+04  0.28597386961E+04  0.00000000000E+00 0.  1.
         -2   -1    0    0    0  501 -0.00000000000E+00 -0.00000000000E+00 -0.23781100076E+03  0.23781100076E+03  0.00000000000E+00 0. -1.
         23    2    1    2    0    0  0.24181497255E+03  0.41703687221E+03  0.33582782269E+03  0.59455091075E+03  0.91193339898E+02 0.  0.
        254    2    1    2    0    0 -0.24181497255E+03 -0.41703687221E+03  0.22860998726E+04  0.25029987861E+04  0.89797330795E+03 0.  0.
        -24    2    4    4    0    0  0.15042626141E+03  0.10223941254E+03  0.10188759256E+03  0.22250574994E+03  0.77760977633E+02 0.  0.
         24    2    4    4    0    0 -0.39224123396E+03 -0.51927628475E+03  0.21842122801E+04  0.22804930361E+04  0.79775672731E+02 0.  0.
         11    1    3    3    0    0  0.16568095142E+03  0.30716851678E+03  0.28831046779E+03  0.45268708973E+03  0.00000000000E+00 0.  1.
        -11    1    3    3    0    0  0.76134021131E+02  0.10986835543E+03  0.47517354902E+02  0.14186382102E+03  0.00000000000E+00 0. -1.
          2    1    6    6  502    0 -0.88031360872E+02 -0.13882836797E+03  0.44660400449E+03  0.47589701941E+03  0.00000000000E+00 0. -1.
          3    1    5    5  503    0  0.29574555060E+01  0.32536415874E+02  0.57577874336E+01  0.33174041315E+02  0.00000000000E+00 0. -1.
         -4    1    5    5    0  503  0.14746880591E+03  0.69702996663E+02  0.96129805124E+02  0.18933170863E+03  0.00000000000E+00 0.  1.
         -1    1    6    6    0  502 -0.30420987309E+03 -0.38044791678E+03  0.17376082756E+04  0.18045960167E+04  0.00000000000E+00 0.  1.
<mgrwt>
<rscale>  0 0.16493360E+04</rscale>
<asrwt>0</asrwt>
<pdfrwt beam="1">  1        2 0.43995977E+00 0.16493360E+04</pdfrwt>
<pdfrwt beam="2">  1       -2 0.36586310E-01 0.16493360E+04</pdfrwt>
<totfact> 0.14352979E+01</totfact>
</mgrwt>
</event>
<event>
12    1  0.1442183E-007  0.1790201E+04  0.7818608E-02  0.8711528E-01
          1   -1    0    0  501    0  0.00000000000E+00  0.00000000000E+00  0.82701489856E+03  0.82701489856E+03  0.00000000000E+00 0.  1.
         -1   -1    0    0    0  501 -0.00000000000E+00 -0.00000000000E+00 -0.96879162808E+03  0.96879162808E+03  0.00000000000E+00 0. -1.
         23    2    1    2    0    0 -0.12591363967E+03 -0.62417833584E+03 -0.27915595709E+03  0.70163946496E+03  0.94430137200E+02 0.  0.
        254    2    1    2    0    0  0.12591363967E+03  0.62417833584E+03  0.13737922757E+03  0.10941670617E+04  0.87913347514E+03 0.  0.
        -24    2    4    4    0    0 -0.36389517771E+03  0.37663936356E+03  0.96943892327E+02  0.53830615909E+03  0.78092842932E+02 0.  0.
         24    2    4    4    0    0  0.48980881738E+03  0.24753897228E+03  0.40435335247E+02  0.55586090259E+03  0.78473602607E+02 0.  0.
         13    1    3    3    0    0  0.89765481543E+01 -0.14720906302E+03 -0.51873397608E+02  0.15633916985E+03  0.00000000000E+00 0.  1.
        -13    1    3    3    0    0 -0.13489018783E+03 -0.47696927282E+03 -0.22728255949E+03  0.54530029510E+03  0.00000000000E+00 0. -1.
          2    1    6    6  502    0  0.18052075717E+03  0.53051025791E+02 -0.10507889544E+01  0.18815753842E+03  0.00000000000E+00 0. -1.
          1    1    5    5  503    0 -0.12761426513E+03  0.18137078551E+03  0.22772189953E+02  0.22293347693E+03  0.00000000000E+00 0. -1.
         -2    1    5    5    0  503 -0.23628091257E+03  0.19526857805E+03  0.74171702374E+02  0.31537268216E+03  0.00000000000E+00 0.  1.
         -1    1    6    6    0  502  0.30928806021E+03  0.19448794649E+03  0.41486124202E+02  0.36770336417E+03  0.00000000000E+00 0.  1.
<mgrwt>
<rscale>  0 0.17902012E+04</rscale>
<asrwt>0</asrwt>
<pdfrwt beam="1">  1        1 0.12723306E+00 0.17902012E+04</pdfrwt>
<pdfrwt beam="2">  1       -1 0.14904487E+00 0.17902012E+04</pdfrwt>
<totfact> 0.70238213E+00</totfact>
</mgrwt>
</event>
<event>
12    1  0.1442183E-007  0.1338626E+04  0.7818608E-02  0.8999483E-01
         -2   -1    0    0    0  501 -0.00000000000E+00  0.00000000000E+00  0.20525641696E+03  0.20525641696E+03  0.00000000000E+00 0.  1.
          2   -1    0    0  501    0  0.00000000000E+00 -0.00000000000E+00 -0.21825378308E+04  0.21825378308E+04  0.00000000000E+00 0. -1.
         23    2    1    2    0    0 -0.14702883097E+03 -0.32270283368E+03 -0.57439642989E+03  0.68131680831E+03  0.92231982585E+02 0.  0.
        254    2    1    2    0    0  0.14702883097E+03  0.32270283368E+03 -0.14028849839E+04  0.17064774394E+04  0.90455755880E+03 0.  0.
        -24    2    4    4    0    0  0.17477845998E+03 -0.21027086625E+03 -0.11167671572E+03  0.30702797333E+03  0.83863819995E+02 0.  0.
         24    2    4    4    0    0 -0.27749629011E+02  0.53297369993E+03 -0.12912082682E+04  0.13994494661E+04  0.80056290021E+02 0.  0.
         13    1    3    3    0    0 -0.11946686435E+03 -0.21097968958E+03 -0.45454559386E+03  0.51516643717E+03  0.00000000000E+00 0. -1.
        -13    1    3    3    0    0 -0.27561966627E+02 -0.11172314410E+03 -0.11985083603E+03  0.16615037113E+03  0.00000000000E+00 0.  1.
          2    1    6    6  502    0 -0.10383280091E+02  0.35632433507E+02 -0.50597877894E+02  0.62750522471E+02  0.00000000000E+00 0. -1.
          3    1    5    5  503    0 -0.71330435822E+01 -0.23622448211E+02 -0.15897502934E+02  0.29353551229E+02  0.00000000000E+00 0. -1.
         -4    1    5    5    0  503  0.18191150357E+03 -0.18664841804E+03 -0.95779212785E+02  0.27767442210E+03  0.00000000000E+00 0.  1.
         -1    1    6    6    0  502 -0.17366348920E+02  0.49734126642E+03 -0.12406103903E+04  0.13366989436E+04  0.00000000000E+00 0.  1.
<mgrwt>
<rscale>  0 0.13386260E+04</rscale>
<asrwt>0</asrwt>
<pdfrwt beam="1">  1        2 0.33577503E+00 0.13386260E+04</pdfrwt>
<pdfrwt beam="2">  1       -2 0.31577912E-01 0.13386260E+04</pdfrwt>
<totfact> 0.48178651E+01</totfact>
</mgrwt>
</event>
<event>
12    1  0.1442183E-007  0.1431879E+04  0.7818608E-02  0.8931060E-01
          1   -1    0    0  501    0  0.00000000000E+00  0.00000000000E+00  0.10385737491E+04  0.10385737491E+04  0.00000000000E+00 0. -1.
         -1   -1    0    0    0  501 -0.00000000000E+00 -0.00000000000E+00 -0.49353225711E+03  0.49353225711E+03  0.00000000000E+00 0.  1.
         23    2    1    2    0    0 -0.31390220815E+03 -0.29093908480E+03  0.17905671684E+03  0.47254692353E+03  0.89772711592E+02 0.  0.
        254    2    1    2    0    0  0.31390220815E+03  0.29093908480E+03  0.36598477514E+03  0.10595590827E+04  0.89751905088E+03 0.  0.
        -24    2    4    4    0    0  0.31308005741E+03  0.50491414467E+03  0.51166107313E+03  0.78805161438E+03  0.79188871271E+02 0.  0.
         24    2    4    4    0    0  0.82215074292E+00 -0.21397505987E+03 -0.14567629799E+03  0.27150746830E+03  0.81906772414E+02 0.  0.
         13    1    3    3    0    0 -0.49376379284E+02 -0.72632326307E+02  0.71051628700E+02  0.11296820613E+03  0.00000000000E+00 0.  1.
        -13    1    3    3    0    0 -0.26452582887E+03 -0.21830675849E+03  0.10800508814E+03  0.35957871740E+03  0.00000000000E+00 0. -1.
          4    1    6    6  502    0  0.52260310359E+01 -0.20145744598E+03 -0.15587339414E+03  0.25477230804E+03  0.00000000000E+00 0. -1.
          3    1    5    5  503    0  0.27728637587E+03  0.46775709665E+03  0.49043036797E+03  0.73226114300E+03  0.00000000000E+00 0. -1.
         -4    1    5    5    0  503  0.35793681544E+02  0.37157048015E+02  0.21230705157E+02  0.55790471382E+02  0.00000000000E+00 0.  1.
         -3    1    6    6    0  502 -0.44038802930E+01 -0.12517613887E+02  0.10197096149E+02  0.16735160260E+02  0.00000000000E+00 0.  1.
<mgrwt>
<rscale>  0 0.14318794E+04</rscale>
<asrwt>0</asrwt>
<pdfrwt beam="1">  1        1 0.15978058E+00 0.14318794E+04</pdfrwt>
<pdfrwt beam="2">  1       -1 0.75928040E-01 0.14318794E+04</pdfrwt>
<totfact> 0.23936692E+01</totfact>
</mgrwt>
</event>
<event>
12    1  0.1442183E-007  0.1325468E+04  0.7818608E-02  0.9009609E-01
          1   -1    0    0  501    0  0.00000000000E+00  0.00000000000E+00  0.20383279652E+04  0.20383279652E+04  0.00000000000E+00 0. -1.
         -1   -1    0    0    0  501 -0.00000000000E+00 -0.00000000000E+00 -0.21547890331E+03  0.21547890331E+03  0.00000000000E+00 0.  1.
         23    2    1    2    0    0  0.24792363770E+03 -0.80624368619E+02  0.83987253790E+03  0.88406196582E+03  0.90627040903E+02 0.  0.
        254    2    1    2    0    0 -0.24792363770E+03  0.80624368619E+02  0.98297652395E+03  0.13697449027E+04  0.91760112945E+03 0.  0.
        -24    2    4    4    0    0 -0.56162482503E+03 -0.94532780270E+02  0.69700396048E+03  0.90368019809E+03  0.80402045163E+02 0.  0.
         24    2    4    4    0    0  0.31370118732E+03  0.17515714889E+03  0.28597256347E+03  0.46606470456E+03  0.79671450628E+02 0.  0.
         11    1    3    3    0    0  0.19187528500E+03 -0.99614706329E+02  0.68294365439E+03  0.71634576133E+03  0.00000000000E+00 0. -1.
        -11    1    3    3    0    0  0.56048352701E+02  0.18990337710E+02  0.15692888351E+03  0.16771620449E+03  0.00000000000E+00 0.  1.
          2    1    6    6  502    0  0.35977764453E+02  0.35441745040E+02  0.12529856920E+02  0.52033778846E+02  0.00000000000E+00 0. -1.
          3    1    5    5  503    0 -0.54537140530E+02 -0.27532648219E+02  0.50214909853E+02  0.79081499648E+02  0.00000000000E+00 0. -1.
         -4    1    5    5    0  503 -0.50708768450E+03 -0.67000132052E+02  0.64678905062E+03  0.82459869844E+03  0.00000000000E+00 0.  1.
         -1    1    6    6    0  502  0.27772342287E+03  0.13971540385E+03  0.27344270655E+03  0.41403092572E+03  0.00000000000E+00 0.  1.
<mgrwt>
<rscale>  0 0.13254685E+04</rscale>
<asrwt>0</asrwt>
<pdfrwt beam="1">  1        1 0.31358890E+00 0.13254685E+04</pdfrwt>
<pdfrwt beam="2">  1       -1 0.33150602E-01 0.13254685E+04</pdfrwt>
<totfact> 0.23567356E+01</totfact>
</mgrwt>
</event>
<event>
12    1  0.1442183E-007  0.1593699E+04  0.7818608E-02  0.8824428E-01
         -1   -1    0    0    0  501 -0.00000000000E+00  0.00000000000E+00  0.15100464504E+04  0.15100464504E+04  0.00000000000E+00 0.  1.
          1   -1    0    0  501    0  0.00000000000E+00 -0.00000000000E+00 -0.42049655020E+03  0.42049655020E+03  0.00000000000E+00 0. -1.
         23    2    1    2    0    0  0.25658960096E+03 -0.56207672580E+02 -0.18655155176E+03  0.33450619168E+03  0.89974357603E+02 0.  0.
        254    2    1    2    0    0 -0.25658960096E+03  0.56207672580E+02  0.12761014520E+04  0.15960368089E+04  0.92190078313E+03 0.  0.
        -24    2    4    4    0    0 -0.57093735266E+01 -0.40905903559E+03  0.45730388934E+03  0.61832997964E+03  0.76440990103E+02 0.  0.
         24    2    4    4    0    0 -0.25088022744E+03  0.46526670817E+03  0.81879756263E+03  0.97770682929E+03  0.77892215406E+02 0.  0.
         11    1    3    3    0    0  0.16623033203E+03 -0.56751901409E+02 -0.75116020407E+02  0.19103852523E+03  0.00000000000E+00 0.  1.
        -11    1    3    3    0    0  0.90359268932E+02  0.54422882862E+00 -0.11143553136E+03  0.14346766645E+03  0.00000000000E+00 0. -1.
          4    1    6    6  502    0 -0.24680134192E+03  0.45546066471E+03  0.81629546982E+03  0.96679553863E+03  0.00000000000E+00 0. -1.
          1    1    5    5  503    0  0.29960371328E+02 -0.24667901558E+03  0.29883226134E+03  0.38865007525E+03  0.00000000000E+00 0. -1.
         -2    1    5    5    0  503 -0.35669744855E+02 -0.16238002000E+03  0.15847162801E+03  0.22967990438E+03  0.00000000000E+00 0.  1.
         -3    1    6    6    0  502 -0.40788855220E+01  0.98060434552E+01  0.25020928098E+01  0.10911290656E+02  0.00000000000E+00 0.  1.
<mgrwt>
<rscale>  0 0.15936992E+04</rscale>
<asrwt>0</asrwt>
<pdfrwt beam="1">  1        1 0.64691778E-01 0.15936992E+04</pdfrwt>
<pdfrwt beam="2">  1       -1 0.23231484E+00 0.15936992E+04</pdfrwt>
<totfact> 0.49087326E+00</totfact>
</mgrwt>
</event>
<event>
12    1  0.1442183E-007  0.1846986E+04  0.7818608E-02  0.8681704E-01
          2   -1    0    0  501    0  0.00000000000E+00  0.00000000000E+00  0.28624670153E+04  0.28624670153E+04  0.00000000000E+00 0. -1.
         -2   -1    0    0    0  501 -0.00000000000E+00 -0.00000000000E+00 -0.29793853788E+03  0.29793853788E+03  0.00000000000E+00 0.  1.
         23    2    1    2    0    0  0.40791036175E+03  0.37894973835E+03  0.25963551990E+03  0.62090186260E+03  0.90081920304E+02 0.  0.
        254    2    1    2    0    0 -0.40791036175E+03 -0.37894973835E+03  0.23048929576E+04  0.25395036906E+04  0.90914997739E+03 0.  0.
        -24    2    4    4    0    0  0.63781337378E+02  0.10315110573E+03  0.14043712769E+04  0.14116185883E+04  0.75499308665E+02 0.  0.
         24    2    4    4    0    0 -0.47169169913E+03 -0.48210084408E+03  0.90052168062E+03  0.11278851024E+04  0.79191059800E+02 0.  0.
         11    1    3    3    0    0 -0.80404271216E+00  0.20102718875E+02  0.93530520409E+01  0.22186603465E+02  0.00000000000E+00 0. -1.
        -11    1    3    3    0    0  0.40871440446E+03  0.35884701948E+03  0.25028246786E+03  0.59871525914E+03  0.00000000000E+00 0.  1.
          2    1    6    6  502    0 -0.90808216953E+02 -0.12556380720E+03  0.24805947750E+03  0.29248231797E+03  0.00000000000E+00 0. -1.
          3    1    5    5  503    0 -0.85885498737E+01  0.10301711690E+02  0.40222821733E+02  0.42400045293E+02  0.00000000000E+00 0. -1.
         -4    1    5    5    0  503  0.72369887252E+02  0.92849394039E+02  0.13641484552E+04  0.13692185430E+04  0.00000000000E+00 0.  1.
         -1    1    6    6    0  502 -0.38088348218E+03 -0.35653703688E+03  0.65246220312E+03  0.83540278439E+03  0.00000000000E+00 0.  1.
<mgrwt>
<rscale>  0 0.18469859E+04</rscale>
<asrwt>0</asrwt>
<pdfrwt beam="1">  1        2 0.44037952E+00 0.18469859E+04</pdfrwt>
<pdfrwt beam="2">  1       -2 0.45836700E-01 0.18469859E+04</pdfrwt>
<totfact> 0.90164951E+00</totfact>
</mgrwt>
</event>
<event>
12    1  0.1442183E-007  0.1251947E+04  0.7818608E-02  0.9068564E-01
          2   -1    0    0  501    0  0.00000000000E+00  0.00000000000E+00  0.14069617842E+04  0.14069617842E+04  0.00000000000E+00 0.  1.
         -2   -1    0    0    0  501 -0.00000000000E+00 -0.00000000000E+00 -0.27850295416E+03  0.27850295416E+03  0.00000000000E+00 0. -1.
         23    2    1    2    0    0  0.18885789605E+03 -0.49992443553E+02  0.52914284109E+03  0.57149537375E+03  0.91914452758E+02 0.  0.
        254    2    1    2    0    0 -0.18885789605E+03  0.49992443553E+02  0.59931598896E+03  0.11139693646E+04  0.91846695171E+03 0.  0.
        -24    2    4    4    0    0 -0.51395165534E+03  0.20284629091E+03  0.44574286246E+03  0.71537027618E+03  0.88176021930E+02 0.  0.
         24    2    4    4    0    0  0.32509375929E+03 -0.15285384735E+03  0.15357312650E+03  0.39859908844E+03  0.79033392615E+02 0.  0.
         11    1    3    3    0    0  0.85927195574E+01  0.99313717372E+01  0.11636287646E+03  0.11710160542E+03  0.00000000000E+00 0. -1.
        -11    1    3    3    0    0  0.18026517649E+03 -0.59923815290E+02  0.41277996463E+03  0.45439376832E+03  0.00000000000E+00 0.  1.
          2    1    6    6  502    0  0.10040191326E+03 -0.89154397949E+02  0.54813328176E+02  0.14502948598E+03  0.00000000000E+00 0. -1.
          3    1    5    5  503    0 -0.29490754126E+02 -0.32194086287E+01  0.44281533457E+02  0.53300313096E+02  0.00000000000E+00 0. -1.
         -4    1    5    5    0  503 -0.48446090121E+03  0.20606569954E+03  0.40146132900E+03  0.66206996308E+03  0.00000000000E+00 0.  1.
         -1    1    6    6    0  502  0.22469184603E+03 -0.63699449406E+02  0.98759798321E+02  0.25356960246E+03  0.00000000000E+00 0.  1.
<mgrwt>
<rscale>  0 0.12519473E+04</rscale>
<asrwt>0</asrwt>
<pdfrwt beam="1">  1        2 0.21645566E+00 0.12519473E+04</pdfrwt>
<pdfrwt beam="2">  1       -2 0.42846609E-01 0.12519473E+04</pdfrwt>
<totfact> 0.72780492E+01</totfact>
</mgrwt>
</event>
<event>
12    1  0.1442183E-007  0.1313646E+04  0.7818608E-02  0.9018813E-01
         -2   -1    0    0    0  501 -0.00000000000E+00  0.00000000000E+00  0.23687088735E+03  0.23687088735E+03  0.00000000000E+00 0. -1.
          2   -1    0    0  501    0  0.00000000000E+00 -0.00000000000E+00 -0.18213153133E+04  0.18213153133E+04  0.00000000000E+00 0.  1.
         23    2    1    2    0    0  0.30659091008E+03 -0.65281555469E+02 -0.22214895090E+03  0.39457652820E+03  0.89893340070E+02 0.  0.
        254    2    1    2    0    0 -0.30659091008E+03  0.65281555469E+02 -0.13622954750E+04  0.16636096724E+04  0.90193598070E+03 0.  0.
        -24    2    4    4    0    0 -0.18785654768E+03 -0.27057890983E+03 -0.10623144926E+03  0.35556437603E+03  0.81473159625E+02 0.  0.
         24    2    4    4    0    0 -0.11873436240E+03  0.33586046530E+03 -0.12560640258E+04  0.13080452964E+04  0.79909696787E+02 0.  0.
         11    1    3    3    0    0  0.25926303946E+03 -0.87691339844E+02 -0.18412764748E+03  0.32986373744E+03  0.00000000000E+00 0. -1.
        -11    1    3    3    0    0  0.47327870623E+02  0.22409784376E+02 -0.38021303424E+02  0.64712790757E+02  0.00000000000E+00 0.  1.
          4    1    6    6  502    0 -0.11814928673E+03  0.29385974914E+03 -0.11724140192E+04  0.12144412043E+04  0.00000000000E+00 0. -1.
          3    1    5    5  503    0 -0.16366530492E+03 -0.26917052741E+03 -0.10048048389E+03  0.33065908804E+03  0.00000000000E+00 0. -1.
         -4    1    5    5    0  503 -0.24191242755E+02 -0.14083824185E+01 -0.57509653791E+01  0.24905287990E+02  0.00000000000E+00 0.  1.
         -3    1    6    6    0  502 -0.58507567409E+00  0.42000716160E+02 -0.83650006538E+02  0.93604092140E+02  0.00000000000E+00 0.  1.
<mgrwt>
<rscale>  0 0.13136462E+04</rscale>
<asrwt>0</asrwt>
<pdfrwt beam="1">  1        2 0.28020236E+00 0.13136462E+04</pdfrwt>
<pdfrwt beam="2">  1       -2 0.36441675E-01 0.13136462E+04</pdfrwt>
<totfact> 0.58297918E+01</totfact>
</mgrwt>
</event>
<event>
12    1  0.1442183E-007  0.1690096E+04  0.7818608E-02  0.8767033E-01
         -1   -1    0    0    0  501 -0.00000000000E+00  0.00000000000E+00  0.34061920073E+03  0.34061920073E+03  0.00000000000E+00 0.  1.
          1   -1    0    0  501    0  0.00000000000E+00 -0.00000000000E+00 -0.20964947737E+04  0.20964947737E+04  0.00000000000E+00 0. -1.
         23    2    1    2    0    0  0.61930007143E+02 -0.22854701824E+03  0.16505383721E+03  0.30243873489E+03  0.90318070474E+02 0.  0.
        254    2    1    2    0    0 -0.61930007143E+02  0.22854701824E+03 -0.19209294101E+04  0.21346752395E+04  0.90044406493E+03 0.  0.
        -24    2    4    4    0    0  0.71053761765E+02 -0.22208529159E+03 -0.14259664388E+04  0.14472090390E+04  0.81628451689E+02 0.  0.
         24    2    4    4    0    0 -0.13298376891E+03  0.45063230982E+03 -0.49496297133E+03  0.68746620051E+03  0.82869007529E+02 0.  0.
         13    1    3    3    0    0  0.77510073586E+02 -0.13481908089E+03  0.12416583773E+03  0.19900038025E+03  0.00000000000E+00 0.  1.
        -13    1    3    3    0    0 -0.15580066443E+02 -0.93727937342E+02  0.40887999476E+02  0.10343835464E+03  0.00000000000E+00 0. -1.
          2    1    6    6  502    0 -0.11924671293E+03  0.28968235489E+03 -0.29387842189E+03  0.42953483227E+03  0.00000000000E+00 0. -1.
          1    1    5    5  503    0 -0.13754082110E+02 -0.80671865696E+02 -0.43892558884E+03  0.44648941446E+03  0.00000000000E+00 0. -1.
         -4    1    5    5    0  503  0.84807843875E+02 -0.14141342589E+03 -0.98704084997E+03  0.10007196245E+04  0.00000000000E+00 0.  1.
         -1    1    6    6    0  502 -0.13737055976E+02  0.16094995493E+03 -0.20108454945E+03  0.25793136824E+03  0.00000000000E+00 0.  1.
<mgrwt>
<rscale>  0 0.16900963E+04</rscale>
<asrwt>0</asrwt>
<pdfrwt beam="1">  1        1 0.32253766E+00 0.16900963E+04</pdfrwt>
<pdfrwt beam="2">  1       -1 0.52402954E-01 0.16900963E+04</pdfrwt>
<totfact> 0.89575495E+00</totfact>
</mgrwt>
</event>
<event>
12    1  0.1442183E-007  0.2384269E+04  0.7818608E-02  0.8445417E-01
         -2   -1    0    0    0  501 -0.00000000000E+00  0.00000000000E+00  0.11564199205E+04  0.11564199205E+04  0.00000000000E+00 0.  1.
          2   -1    0    0  501    0  0.00000000000E+00 -0.00000000000E+00 -0.12289520070E+04  0.12289520070E+04  0.00000000000E+00 0. -1.
         23    2    1    2    0    0 -0.52386849695E+03  0.69667001330E+03 -0.55896818450E+03  0.10396333107E+04  0.92761414135E+02 0.  0.
        254    2    1    2    0    0  0.52386849695E+03 -0.69667001330E+03  0.48643609801E+03  0.13457386168E+04  0.90255472835E+03 0.  0.
        -24    2    4    4    0    0  0.16517603640E+02  0.12707265457E+03 -0.12727339251E+03  0.19725571097E+03  0.79315876727E+02 0.  0.
         24    2    4    4    0    0  0.50735089331E+03 -0.82374266787E+03  0.61370949052E+03  0.11484829058E+04  0.80104521331E+02 0.  0.
         11    1    3    3    0    0 -0.18672910980E+03  0.21420780274E+03 -0.22833254408E+03  0.36453874127E+03  0.00000000000E+00 0.  1.
        -11    1    3    3    0    0 -0.33713938715E+03  0.48246221056E+03 -0.33063564042E+03  0.67509456946E+03  0.00000000000E+00 0. -1.
          2    1    6    6  502    0  0.45190043939E+03 -0.76841754361E+03  0.54951996095E+03  0.10472113998E+04  0.00000000000E+00 0. -1.
          3    1    5    5  503    0 -0.52566835894E+01  0.10487254205E+03 -0.12873148732E+03  0.16612549060E+03  0.00000000000E+00 0. -1.
         -4    1    5    5    0  503  0.21774287230E+02  0.22200112514E+02  0.14580948100E+01  0.31130220373E+02  0.00000000000E+00 0.  1.
         -1    1    6    6    0  502  0.55450453914E+02 -0.55325124257E+02  0.64189529573E+02  0.10127150596E+03  0.00000000000E+00 0.  1.
<mgrwt>
<rscale>  0 0.23842689E+04</rscale>
<asrwt>0</asrwt>
<pdfrwt beam="1">  1        2 0.18906954E+00 0.23842689E+04</pdfrwt>
<pdfrwt beam="2">  1       -2 0.17791076E+00 0.23842689E+04</pdfrwt>
<totfact> 0.30728399E+00</totfact>
</mgrwt>
</event>
<event>
12    1  0.1442183E-007  0.1899031E+04  0.7818608E-02  0.8655339E-01
         -2   -1    0    0    0  501 -0.00000000000E+00  0.00000000000E+00  0.54968339783E+03  0.54968339783E+03  0.00000000000E+00 0.  1.
          2   -1    0    0  501    0  0.00000000000E+00 -0.00000000000E+00 -0.16401792345E+04  0.16401792345E+04  0.00000000000E+00 0. -1.
         23    2    1    2    0    0  0.23147732855E+02  0.67457818373E+03 -0.58610881963E+03  0.89875453638E+03  0.92976474032E+02 0.  0.
        254    2    1    2    0    0 -0.23147732855E+02 -0.67457818373E+03 -0.50438701706E+03  0.12911080960E+04  0.97824450368E+03 0.  0.
        -24    2    4    4    0    0 -0.34638323395E+03  0.52223143657E+02 -0.26695568366E+02  0.35992590787E+03  0.78264962098E+02 0.  0.
         24    2    4    4    0    0  0.32323550110E+03 -0.72680132739E+03 -0.47769144869E+03  0.93118218809E+03  0.78675209584E+02 0.  0.
         13    1    3    3    0    0 -0.62581329620E+01  0.31289420371E+02 -0.56913117838E+02  0.65247950446E+02  0.00000000000E+00 0.  1.
        -13    1    3    3    0    0  0.29405865817E+02  0.64328876336E+03 -0.52919570179E+03  0.83350658594E+03  0.00000000000E+00 0. -1.
          2    1    6    6  502    0  0.63211338706E+02 -0.15449181885E+03 -0.64594923152E+02  0.17898575231E+03  0.00000000000E+00 0. -1.
          1    1    5    5  503    0 -0.55070767832E+02 -0.20311766484E+02 -0.60983580244E+01  0.59013111237E+02  0.00000000000E+00 0. -1.
         -2    1    5    5    0  503 -0.29131246612E+03  0.72534910141E+02 -0.20597210342E+02  0.30091279664E+03  0.00000000000E+00 0.  1.
         -3    1    6    6    0  502  0.26002416239E+03 -0.57230950853E+03 -0.41309652554E+03  0.75219643578E+03  0.00000000000E+00 0.  1.
<mgrwt>
<rscale>  0 0.18990306E+04</rscale>
<asrwt>0</asrwt>
<pdfrwt beam="1">  1        2 0.25233527E+00 0.18990306E+04</pdfrwt>
<pdfrwt beam="2">  1       -2 0.84566676E-01 0.18990306E+04</pdfrwt>
<totfact> 0.12090772E+01</totfact>
</mgrwt>
</event>
<event>
12    1  0.1442183E-007  0.2823320E+04  0.7818608E-02  0.8296065E-01
          2   -1    0    0  501    0  0.00000000000E+00  0.00000000000E+00  0.19694043147E+04  0.19694043147E+04  0.00000000000E+00 0. -1.
         -2   -1    0    0    0  501 -0.00000000000E+00 -0.00000000000E+00 -0.10118714817E+04  0.10118714817E+04  0.00000000000E+00 0.  1.
         23    2    1    2    0    0  0.32427473609E+02 -0.94429416914E+03  0.12695292098E+04  0.15852192851E+04  0.92047533868E+02 0.  0.
        254    2    1    2    0    0 -0.32427473609E+02  0.94429416914E+03 -0.31199637672E+03  0.13960565113E+04  0.97922879085E+03 0.  0.
        -24    2    4    4    0    0 -0.41704291448E+03  0.47399867036E+03 -0.43515387009E+03  0.77101309654E+03  0.80639769042E+02 0.  0.
         24    2    4    4    0    0  0.38461544087E+03  0.47029549878E+03  0.12315749337E+03  0.62504341479E+03  0.80028799017E+02 0.  0.
         13    1    3    3    0    0  0.38544582390E+02 -0.33524973236E+03  0.39549335434E+03  0.51989716407E+03  0.00000000000E+00 0. -1.
        -13    1    3    3    0    0 -0.61171087807E+01 -0.60904443678E+03  0.87403585542E+03  0.10653221210E+04  0.00000000000E+00 0.  1.
          4    1    6    6  502    0  0.34288823331E+03  0.44645932063E+03  0.12613657128E+03  0.57689574460E+03  0.00000000000E+00 0. -1.
          1    1    5    5  503    0 -0.36019115711E+03  0.43619950545E+03 -0.36559377316E+03  0.67354768590E+03  0.00000000000E+00 0. -1.
         -4    1    5    5    0  503 -0.56851757374E+02  0.37799164910E+02 -0.69560096933E+02  0.97465410632E+02  0.00000000000E+00 0.  1.
         -3    1    6    6    0  502  0.41727207568E+02  0.23836178146E+02 -0.29790779117E+01  0.48147670196E+02  0.00000000000E+00 0.  1.
<mgrwt>
<rscale>  0 0.28233201E+04</rscale>
<asrwt>0</asrwt>
<pdfrwt beam="1">  1        2 0.30298528E+00 0.28233201E+04</pdfrwt>
<pdfrwt beam="2">  1       -2 0.15567254E+00 0.28233201E+04</pdfrwt>
<totfact> 0.16375634E+00</totfact>
</mgrwt>
</event>
<event>
12    1  0.1442183E-007  0.1500303E+04  0.7818608E-02  0.8884251E-01
         -1   -1    0    0    0  501 -0.00000000000E+00  0.00000000000E+00  0.38922115448E+03  0.38922115448E+03  0.00000000000E+00 0.  1.
          1   -1    0    0  501    0  0.00000000000E+00 -0.00000000000E+00 -0.14457784833E+04  0.14457784833E+04  0.00000000000E+00 0. -1.
         23    2    1    2    0    0 -0.50340643075E+02 -0.21325516018E+03 -0.87629698120E+03  0.90799264072E+03  0.92424524118E+02 0.  0.
        254    2    1    2    0    0  0.50340643075E+02  0.21325516018E+03 -0.18026034766E+03  0.92700699710E+03  0.88251698909E+03 0.  0.
        -24    2    4    4    0    0 -0.17092887791E+03  0.50013021334E+03 -0.14518364927E+03  0.55405760516E+03  0.80960646112E+02 0.  0.
         24    2    4    4    0    0  0.22126952099E+03 -0.28687505316E+03 -0.35076698396E+02  0.37294939194E+03  0.81261166198E+02 0.  0.
         11    1    3    3    0    0 -0.26720573157E+02 -0.21193225188E+03 -0.76885295532E+03  0.79797502174E+03  0.00000000000E+00 0. -1.
        -11    1    3    3    0    0 -0.23620069918E+02 -0.13229082982E+01 -0.10744402588E+03  0.11001761898E+03  0.00000000000E+00 0.  1.
          2    1    6    6  502    0  0.23412989418E+02 -0.24231699707E+01  0.52418674794E+01  0.24114663607E+02  0.00000000000E+00 0. -1.
          1    1    5    5  503    0 -0.50401196147E+02  0.67999759972E+02 -0.38148880486E+02  0.92841720210E+02  0.00000000000E+00 0. -1.
         -2    1    5    5    0  503 -0.12052768177E+03  0.43213045337E+03 -0.10703476878E+03  0.46121588495E+03  0.00000000000E+00 0.  1.
         -1    1    6    6    0  502  0.19785653157E+03 -0.28445188319E+03 -0.40318565876E+02  0.34883472833E+03  0.00000000000E+00 0.  1.
<mgrwt>
<rscale>  0 0.15003034E+04</rscale>
<asrwt>0</asrwt>
<pdfrwt beam="1">  1        1 0.22242746E+00 0.15003034E+04</pdfrwt>
<pdfrwt beam="2">  1       -1 0.59880178E-01 0.15003034E+04</pdfrwt>
<totfact> 0.19517306E+01</totfact>
</mgrwt>
</event>
<event>
12    1  0.1442183E-007  0.2471218E+04  0.7818608E-02  0.8413312E-01
         -2   -1    0    0    0  501 -0.00000000000E+00  0.00000000000E+00  0.72266127265E+03  0.72266127265E+03  0.00000000000E+00 0.  1.
          2   -1    0    0  501    0  0.00000000000E+00 -0.00000000000E+00 -0.21126486458E+04  0.21126486458E+04  0.00000000000E+00 0. -1.
         23    2    1    2    0    0  0.10323920680E+04  0.68286916450E+02 -0.25628988529E+03  0.10698721053E+04  0.91898484811E+02 0.  0.
        254    2    1    2    0    0 -0.10323920680E+04 -0.68286916450E+02 -0.11336974879E+04  0.17654378131E+04  0.87235554274E+03 0.  0.
        -24    2    4    4    0    0 -0.82329722838E+03  0.41734408640E+02 -0.27654680647E+03  0.87278543615E+03  0.75605517395E+02 0.  0.
         24    2    4    4    0    0 -0.20909483960E+03 -0.11002132509E+03 -0.85715068139E+03  0.89265237695E+03  0.79345015918E+02 0.  0.
         11    1    3    3    0    0  0.21689903778E+03  0.34701263215E+01 -0.91185423128E+02  0.23531259159E+03  0.00000000000E+00 0. -1.
        -11    1    3    3    0    0  0.81549303020E+03  0.64816790129E+02 -0.16510446216E+03  0.83455951376E+03  0.00000000000E+00 0.  1.
          4    1    6    6  502    0 -0.15455713330E+03 -0.89511841760E+02 -0.50364112629E+03  0.53437314805E+03  0.00000000000E+00 0. -1.
          3    1    5    5  503    0 -0.60205398310E+03  0.60691262069E+02 -0.18681957206E+03  0.63328822851E+03  0.00000000000E+00 0. -1.
         -4    1    5    5    0  503 -0.22124324528E+03 -0.18956853429E+02 -0.89727234410E+02  0.23949720764E+03  0.00000000000E+00 0.  1.
         -3    1    6    6    0  502 -0.54537706305E+02 -0.20509483330E+02 -0.35350955510E+03  0.35827922890E+03  0.00000000000E+00 0.  1.
<mgrwt>
<rscale>  0 0.24712178E+04</rscale>
<asrwt>0</asrwt>
<pdfrwt beam="1">  1        2 0.32502286E+00 0.24712178E+04</pdfrwt>
<pdfrwt beam="2">  1       -2 0.11117866E+00 0.24712178E+04</pdfrwt>
<totfact> 0.33085870E+00</totfact>
</mgrwt>
</event>
<event>
12    1  0.1442183E-007  0.1806668E+04  0.7818608E-02  0.8702762E-01
          1   -1    0    0  501    0  0.00000000000E+00  0.00000000000E+00  0.10373660716E+04  0.10373660716E+04  0.00000000000E+00 0. -1.
         -1   -1    0    0    0  501 -0.00000000000E+00 -0.00000000000E+00 -0.78661914278E+03  0.78661914278E+03  0.00000000000E+00 0.  1.
         23    2    1    2    0    0  0.25514559051E+03  0.12228873343E+03 -0.52471168584E+03  0.60284857432E+03  0.89723149870E+02 0.  0.
        254    2    1    2    0    0 -0.25514559051E+03 -0.12228873343E+03  0.77545861462E+03  0.12211366400E+04  0.89988044978E+03 0.  0.
        -24    2    4    4    0    0  0.91971473784E+02  0.31678102692E+03  0.46496998724E+03  0.57572562642E+03  0.80336398148E+02 0.  0.
         24    2    4    4    0    0 -0.34711706429E+03 -0.43906976035E+03  0.31048862738E+03  0.64541101360E+03  0.82943824117E+02 0.  0.
         13    1    3    3    0    0  0.59726626505E+02  0.55488650914E+02 -0.22113740576E+03  0.23568625865E+03  0.00000000000E+00 0.  1.
        -13    1    3    3    0    0  0.19541896401E+03  0.66800082516E+02 -0.30357428009E+03  0.36716231567E+03  0.00000000000E+00 0. -1.
          4    1    6    6  502    0 -0.85333035691E+02 -0.69208588455E+02  0.87103240467E+02  0.14020888059E+03  0.00000000000E+00 0. -1.
          3    1    5    5  503    0  0.39809159572E+02  0.50621587156E+02  0.12689716413E+03  0.14230321337E+03  0.00000000000E+00 0. -1.
         -4    1    5    5    0  503  0.52162314212E+02  0.26615943977E+03  0.33807282311E+03  0.43342241304E+03  0.00000000000E+00 0.  1.
         -3    1    6    6    0  502 -0.26178402860E+03 -0.36986117190E+03  0.22338538691E+03  0.50520213301E+03  0.00000000000E+00 0.  1.
<mgrwt>
<rscale>  0 0.18066677E+04</rscale>
<asrwt>0</asrwt>
<pdfrwt beam="1">  1        1 0.15959478E+00 0.18066677E+04</pdfrwt>
<pdfrwt beam="2">  1       -1 0.12101833E+00 0.18066677E+04</pdfrwt>
<totfact> 0.80942231E+00</totfact>
</mgrwt>
</event>
<event>
12    1  0.1442183E-007  0.3904298E+04  0.7818608E-02  0.8024136E-01
          1   -1    0    0  501    0  0.00000000000E+00  0.00000000000E+00  0.18983891034E+04  0.18983891034E+04  0.00000000000E+00 0. -1.
         -1   -1    0    0    0  501 -0.00000000000E+00 -0.00000000000E+00 -0.20074309377E+04  0.20074309377E+04  0.00000000000E+00 0.  1.
         23    2    1    2    0    0  0.81882929416E+03 -0.23653869759E+02  0.16027086784E+04  0.18027243115E+04  0.10049336851E+03 0.  0.
        254    2    1    2    0    0 -0.81882929416E+03  0.23653869759E+02 -0.17117505127E+04  0.21030957295E+04  0.90657647848E+03 0.  0.
        -24    2    4    4    0    0 -0.59263190341E+03 -0.39859876498E+03 -0.11942834861E+04  0.13934470567E+04  0.72719366427E+02 0.  0.
         24    2    4    4    0    0 -0.22619739075E+03  0.42225263474E+03 -0.51746702659E+03  0.70964867283E+03  0.79790777199E+02 0.  0.
         11    1    3    3    0    0  0.20519985795E+03  0.37593774194E+02  0.39992203672E+03  0.45106308762E+03  0.00000000000E+00 0.  1.
        -11    1    3    3    0    0  0.61362943621E+03 -0.61247643952E+02  0.12027866417E+04  0.13516612239E+04  0.00000000000E+00 0. -1.
          2    1    6    6  502    0 -0.21052248625E+03  0.41616967488E+03 -0.51044678244E+03  0.69142811139E+03  0.00000000000E+00 0. -1.
          1    1    5    5  503    0 -0.29941806203E+03 -0.20688548284E+03 -0.53840550964E+03  0.64987173480E+03  0.00000000000E+00 0. -1.
         -2    1    5    5    0  503 -0.29321384137E+03 -0.19171328214E+03 -0.65587797644E+03  0.74357532187E+03  0.00000000000E+00 0.  1.
         -1    1    6    6    0  502 -0.15674904499E+02  0.60829598563E+01 -0.70202441443E+01  0.18220561449E+02  0.00000000000E+00 0.  1.
<mgrwt>
<rscale>  0 0.39042976E+04</rscale>
<asrwt>0</asrwt>
<pdfrwt beam="1">  1        1 0.29205986E+00 0.39042976E+04</pdfrwt>
<pdfrwt beam="2">  1       -1 0.30883553E+00 0.39042976E+04</pdfrwt>
<totfact> 0.79719006E-02</totfact>
</mgrwt>
</event>
<event>
12    1  0.1442183E-007  0.1594822E+04  0.7818608E-02  0.8823735E-01
          2   -1    0    0  501    0  0.00000000000E+00  0.00000000000E+00  0.13013253773E+04  0.13013253773E+04  0.00000000000E+00 0. -1.
         -2   -1    0    0    0  501 -0.00000000000E+00 -0.00000000000E+00 -0.48862848267E+03  0.48862848267E+03  0.00000000000E+00 0.  1.
         23    2    1    2    0    0 -0.29346114255E+03 -0.50364865096E+02 -0.24610119646E+03  0.39677371506E+03  0.90595365432E+02 0.  0.
        254    2    1    2    0    0  0.29346114255E+03  0.50364865096E+02  0.10587980911E+04  0.13931801449E+04  0.85512657347E+03 0.  0.
        -24    2    4    4    0    0 -0.20573169419E+03  0.13087408499E+03  0.49789230188E+02  0.26130884986E+03  0.79685578716E+02 0.  0.
         24    2    4    4    0    0  0.49919283674E+03 -0.80509219894E+02  0.10090088609E+04  0.11318712951E+04  0.85781842130E+02 0.  0.
         13    1    3    3    0    0 -0.17475603046E+03 -0.66419163660E+02 -0.18201212868E+03  0.26092065933E+03  0.00000000000E+00 0.  1.
        -13    1    3    3    0    0 -0.11870511210E+03  0.16054298565E+02 -0.64089067786E+02  0.13585305573E+03  0.00000000000E+00 0. -1.
          4    1    6    6  502    0  0.59059648752E+02  0.14667985068E+02  0.15270468454E+03  0.16438343157E+03  0.00000000000E+00 0. -1.
          1    1    5    5  503    0 -0.26639542482E+02  0.30484644375E+02  0.38217071923E+02  0.55673363045E+02  0.00000000000E+00 0. -1.
         -2    1    5    5    0  503 -0.17909215170E+03  0.10038944061E+03  0.11572158265E+02  0.20563548681E+03  0.00000000000E+00 0.  1.
         -3    1    6    6    0  502  0.44013318799E+03 -0.95177204962E+02  0.85630417639E+03  0.96748786350E+03  0.00000000000E+00 0.  1.
<mgrwt>
<rscale>  0 0.15948224E+04</rscale>
<asrwt>0</asrwt>
<pdfrwt beam="1">  1        2 0.20020390E+00 0.15948224E+04</pdfrwt>
<pdfrwt beam="2">  1       -2 0.75173613E-01 0.15948224E+04</pdfrwt>
<totfact> 0.25150249E+01</totfact>
</mgrwt>
</event>
<event>
12    1  0.1442183E-007  0.1876311E+04  0.7818608E-02  0.8666739E-01
         -2   -1    0    0    0  501 -0.00000000000E+00  0.00000000000E+00  0.56007296185E+03  0.56007296185E+03  0.00000000000E+00 0. -1.
          2   -1    0    0  501    0  0.00000000000E+00 -0.00000000000E+00 -0.15714663806E+04  0.15714663806E+04  0.00000000000E+00 0.  1.
         23    2    1    2    0    0  0.37603923366E+03 -0.23206243047E+03  0.25595563042E+03  0.51914941323E+03  0.93511237975E+02 0.  0.
        254    2    1    2    0    0 -0.37603923366E+03  0.23206243047E+03 -0.12673490491E+04  0.16123899292E+04  0.89351507795E+03 0.  0.
        -24    2    4    4    0    0 -0.19499878202E+03  0.49738518088E+03 -0.11332354471E+04  0.12554184481E+04  0.80226915176E+02 0.  0.
         24    2    4    4    0    0 -0.18104045164E+03 -0.26532275041E+03 -0.13411360199E+03  0.35697148112E+03  0.79185687347E+02 0.  0.
         11    1    3    3    0    0  0.60155403967E+02 -0.46939332551E+02  0.87580500653E+02  0.11615643616E+03  0.00000000000E+00 0.  1.
        -11    1    3    3    0    0  0.31588382969E+03 -0.18512309792E+03  0.16837512977E+03  0.40299297707E+03  0.00000000000E+00 0. -1.
          2    1    6    6  502    0 -0.36005324012E+02 -0.11490145547E+03 -0.33072034567E+02  0.12486988146E+03  0.00000000000E+00 0. -1.
          1    1    5    5  503    0 -0.15748277549E+03  0.29818962857E+03 -0.68684785410E+03  0.76516524610E+03  0.00000000000E+00 0. -1.
         -2    1    5    5    0  503 -0.37516006534E+02  0.19919555231E+03 -0.44638759304E+03  0.49025320195E+03  0.00000000000E+00 0.  1.
         -1    1    6    6    0  502 -0.14503512763E+03 -0.15042129495E+03 -0.10104156742E+03  0.23210159966E+03  0.00000000000E+00 0.  1.
<mgrwt>
<rscale>  0 0.18763111E+04</rscale>
<asrwt>0</asrwt>
<pdfrwt beam="1">  1        2 0.24176405E+00 0.18763111E+04</pdfrwt>
<pdfrwt beam="2">  1       -2 0.86165073E-01 0.18763111E+04</pdfrwt>
<totfact> 0.12681248E+01</totfact>
</mgrwt>
</event>
<event>
12    1  0.1442183E-007  0.1461342E+04  0.7818608E-02  0.8910575E-01
         -2   -1    0    0    0  501 -0.00000000000E+00  0.00000000000E+00  0.21047362213E+03  0.21047362213E+03  0.00000000000E+00 0.  1.
          2   -1    0    0  501    0  0.00000000000E+00 -0.00000000000E+00 -0.25365669834E+04  0.25365669834E+04  0.00000000000E+00 0. -1.
         23    2    1    2    0    0 -0.34643885696E+03  0.17529307290E+03 -0.11267864013E+04  0.11951471998E+04  0.89340315770E+02 0.  0.
        254    2    1    2    0    0  0.34643885696E+03 -0.17529307290E+03 -0.11993069600E+04  0.15518934057E+04  0.90514552173E+03 0.  0.
        -24    2    4    4    0    0  0.46584204625E+03  0.95412162431E+02 -0.22879792672E+03  0.53400297761E+03  0.81843729345E+02 0.  0.
         24    2    4    4    0    0 -0.11940318929E+03 -0.27070523533E+03 -0.97050903325E+03  0.10178904281E+04  0.81698800452E+02 0.  0.
         13    1    3    3    0    0 -0.61784927523E+02  0.38650694907E+02 -0.33267930849E+03  0.34056831295E+03  0.00000000000E+00 0. -1.
        -13    1    3    3    0    0 -0.28465392944E+03  0.13664237800E+03 -0.79410709278E+03  0.85457888683E+03  0.00000000000E+00 0.  1.
          4    1    6    6  502    0 -0.62530973948E+02 -0.83992435514E+02 -0.44911984431E+03  0.46116535698E+03  0.00000000000E+00 0. -1.
          3    1    5    5  503    0  0.90105684406E+02 -0.48564711197E+01 -0.68877521020E+02  0.11351974531E+03  0.00000000000E+00 0. -1.
         -4    1    5    5    0  503  0.37573636184E+03  0.10026863355E+03 -0.15992040570E+03  0.42048323230E+03  0.00000000000E+00 0.  1.
         -3    1    6    6    0  502 -0.56872215342E+02 -0.18671279982E+03 -0.52138918893E+03  0.55672507114E+03  0.00000000000E+00 0.  1.
<mgrwt>
<rscale>  0 0.14613425E+04</rscale>
<asrwt>0</asrwt>
<pdfrwt beam="1">  1        2 0.39024110E+00 0.14613425E+04</pdfrwt>
<pdfrwt beam="2">  1       -2 0.32380555E-01 0.14613425E+04</pdfrwt>
<totfact> 0.28629914E+01</totfact>
</mgrwt>
</event>
<event>
12    1  0.1442183E-007  0.1348764E+04  0.7818608E-02  0.8991765E-01
         -3   -1    0    0    0  501 -0.00000000000E+00  0.00000000000E+00  0.89580991948E+03  0.89580991948E+03  0.00000000000E+00 0.  1.
          3   -1    0    0  501    0  0.00000000000E+00 -0.00000000000E+00 -0.50768672423E+03  0.50768672423E+03  0.00000000000E+00 0. -1.
         23    2    1    2    0    0 -0.10891248564E+02 -0.33613861929E+03 -0.37344851169E+02  0.35064330302E+03  0.91914620000E+02 0.  0.
        254    2    1    2    0    0  0.10891248564E+02  0.33613861929E+03  0.42546804642E+03  0.10528533407E+04  0.90242412857E+03 0.  0.
        -24    2    4    4    0    0  0.20164501559E+03  0.52582436693E+03  0.32163413196E+02  0.56952472925E+03  0.78561790398E+02 0.  0.
         24    2    4    4    0    0 -0.19075376703E+03 -0.18968574764E+03  0.39330463322E+03  0.48332861145E+03  0.80934106765E+02 0.  0.
         13    1    3    3    0    0 -0.35296541837E+02 -0.83421566483E+02 -0.33929670910E+02  0.96727587524E+02  0.00000000000E+00 0. -1.
        -13    1    3    3    0    0  0.24405293273E+02 -0.25271705281E+03 -0.34151802590E+01  0.25391571550E+03  0.00000000000E+00 0.  1.
          4    1    6    6  502    0 -0.25442018618E+02 -0.35506840917E+02  0.22708541566E+02  0.49231188522E+02  0.00000000000E+00 0. -1.
          1    1    5    5  503    0  0.11061112626E+03  0.20074783288E+03 -0.93783314369E+01  0.22939587346E+03  0.00000000000E+00 0. -1.
         -2    1    5    5    0  503  0.91033889328E+02  0.32507653404E+03  0.41541744633E+02  0.34012885579E+03  0.00000000000E+00 0.  1.
         -3    1    6    6    0  502 -0.16531174841E+03 -0.15417890672E+03  0.37059609166E+03  0.43409742293E+03  0.00000000000E+00 0.  1.
<mgrwt>
<rscale>  0 0.13487636E+04</rscale>
<asrwt>0</asrwt>
<pdfrwt beam="1">  1        3 0.78105650E-01 0.13487636E+04</pdfrwt>
<pdfrwt beam="2">  1       -3 0.13781691E+00 0.13487636E+04</pdfrwt>
<totfact> 0.15746613E+00</totfact>
</mgrwt>
</event>
<event>
12    1  0.1442183E-007  0.1520842E+04  0.7818608E-02  0.8870710E-01
          1   -1    0    0  501    0  0.00000000000E+00  0.00000000000E+00  0.10262944952E+04  0.10262944952E+04  0.00000000000E+00 0. -1.
         -1   -1    0    0    0  501 -0.00000000000E+00 -0.00000000000E+00 -0.56342506556E+03  0.56342506556E+03  0.00000000000E+00 0.  1.
         23    2    1    2    0    0  0.37749756408E+03  0.29930117429E+03  0.20414873559E+03  0.53036569431E+03  0.86749407146E+02 0.  0.
        254    2    1    2    0    0 -0.37749756408E+03 -0.29930117429E+03  0.25872069403E+03  0.10593538664E+04  0.90730844423E+03 0.  0.
        -24    2    4    4    0    0 -0.53639759114E+03 -0.36281822865E+02  0.43525290669E+03  0.69621872813E+03  0.78972641887E+02 0.  0.
         24    2    4    4    0    0  0.15890002706E+03 -0.26301935143E+03 -0.17653221265E+03  0.36313513829E+03  0.79215583895E+02 0.  0.
         13    1    3    3    0    0  0.17378377415E+03  0.11341869843E+03  0.46339694640E+02  0.21263106220E+03  0.00000000000E+00 0.  1.
        -13    1    3    3    0    0  0.20371378993E+03  0.18588247586E+03  0.15780904095E+03  0.31773463212E+03  0.00000000000E+00 0. -1.
          4    1    6    6  502    0  0.90323481805E+02 -0.78641133187E+02 -0.79868050423E+02  0.14395021595E+03  0.00000000000E+00 0. -1.
          1    1    5    5  503    0 -0.35552845677E+02 -0.33737502508E+01  0.69301458818E+01  0.36378756829E+02  0.00000000000E+00 0. -1.
         -2    1    5    5    0  503 -0.50084474547E+03 -0.32908072614E+02  0.42832276081E+03  0.65983997130E+03  0.00000000000E+00 0.  1.
         -3    1    6    6    0  502  0.68576545256E+02 -0.18437821824E+03 -0.96664162231E+02  0.21918492234E+03  0.00000000000E+00 0.  1.
<mgrwt>
<rscale>  0 0.15208419E+04</rscale>
<asrwt>0</asrwt>
<pdfrwt beam="1">  1        1 0.15789146E+00 0.15208419E+04</pdfrwt>
<pdfrwt beam="2">  1       -1 0.86680780E-01 0.15208419E+04</pdfrwt>
<totfact> 0.18291433E+01</totfact>
</mgrwt>
</event>
<event>
12    1  0.2438538E-007  0.2041227E+04  0.7818608E-02  0.8587585E-01
         -1   -1    0    0    0  501 -0.00000000000E+00  0.00000000000E+00  0.12540161443E+04  0.12540161443E+04  0.00000000000E+00 0.  1.
          1   -1    0    0  501    0  0.00000000000E+00 -0.00000000000E+00 -0.83065273767E+03  0.83065273767E+03  0.00000000000E+00 0. -1.
         23    2    1    2    0    0  0.53457502573E+03  0.10440514441E+03  0.79429843069E+03  0.96748461329E+03  0.91899878440E+02 0.  0.
        254    2    1    2    0    0 -0.53457502573E+03 -0.10440514441E+03 -0.37093502402E+03  0.11171842687E+04  0.90212915145E+03 0.  0.
        -24    2    4    4    0    0 -0.11659957044E+03 -0.27304700431E+03  0.21376099910E+03  0.37458972625E+03  0.80458510334E+02 0.  0.
         24    2    4    4    0    0 -0.41797545529E+03  0.16864185990E+03 -0.58469602312E+03  0.74259454246E+03  0.80210079777E+02 0.  0.
         13    1    3    3    0    0  0.46131170108E+03  0.11207338271E+03  0.72328918415E+03  0.86516829147E+03  0.00000000000E+00 0.  1.
        -13    1    3    3    0    0  0.73263324650E+02 -0.76682382926E+01  0.71009246539E+02  0.10231632182E+03  0.00000000000E+00 0. -1.
          2    1    6    6  502    0 -0.40934300592E+01 -0.47917683223E+01 -0.21913408879E+02  0.22801638143E+02  0.00000000000E+00 0. -1.
          1    1    5    5  503    0 -0.69656037954E+01  0.51002628269E+01  0.62426498252E+01  0.10653778390E+02  0.00000000000E+00 0. -1.
         -2    1    5    5    0  503 -0.10963396664E+03 -0.27814726714E+03  0.20751834928E+03  0.36393594786E+03  0.00000000000E+00 0.  1.
         -3    1    6    6    0  502 -0.41388202523E+03  0.17343362822E+03 -0.56278261424E+03  0.71979290432E+03  0.00000000000E+00 0.  1.
<mgrwt>
<rscale>  0 0.20412270E+04</rscale>
<asrwt>0</asrwt>
<pdfrwt beam="1">  1        1 0.12779273E+00 0.20412270E+04</pdfrwt>
<pdfrwt beam="2">  1       -1 0.19292556E+00 0.20412270E+04</pdfrwt>
<totfact> 0.32405275E+00</totfact>
</mgrwt>
</event>
<event>
12    1  0.1442183E-007  0.2427790E+04  0.7818608E-02  0.8429172E-01
          1   -1    0    0  501    0  0.00000000000E+00  0.00000000000E+00  0.17119313004E+04  0.17119313004E+04  0.00000000000E+00 0. -1.
         -1   -1    0    0    0  501 -0.00000000000E+00 -0.00000000000E+00 -0.86074743996E+03  0.86074743996E+03  0.00000000000E+00 0.  1.
         23    2    1    2    0    0  0.50777453602E+03  0.59225039391E+03 -0.36921000992E+03  0.86798588449E+03  0.92130102227E+02 0.  0.
        254    2    1    2    0    0 -0.50777453602E+03 -0.59225039391E+03  0.12203938704E+04  0.17046928559E+04  0.89889989740E+03 0.  0.
        -24    2    4    4    0    0 -0.17328952473E+03 -0.42399589958E+03  0.43752382910E+02  0.46692446824E+03  0.79387692945E+02 0.  0.
         24    2    4    4    0    0 -0.33448501129E+03 -0.16825449433E+03  0.11766414874E+04  0.12377683876E+04  0.85997638325E+02 0.  0.
         13    1    3    3    0    0  0.64849660420E+01  0.36569784260E+02 -0.18983590447E+02  0.41710677430E+02  0.00000000000E+00 0. -1.
        -13    1    3    3    0    0  0.50128956998E+03  0.55568060965E+03 -0.35022641947E+03  0.82627520706E+03  0.00000000000E+00 0.  1.
          2    1    6    6  502    0 -0.31685186706E+03 -0.17334542416E+03  0.11502714491E+04  0.12056401405E+04  0.00000000000E+00 0. -1.
          3    1    5    5  503    0 -0.13279857013E+03 -0.22066813147E+03  0.23288046544E+02  0.25859663104E+03  0.00000000000E+00 0. -1.
         -4    1    5    5    0  503 -0.40490954600E+02 -0.20332776811E+03  0.20464336366E+02  0.20832783720E+03  0.00000000000E+00 0.  1.
         -1    1    6    6    0  502 -0.17633144230E+02  0.50909298321E+01  0.26370038325E+02  0.32128247123E+02  0.00000000000E+00 0.  1.
<mgrwt>
<rscale>  0 0.24277895E+04</rscale>
<asrwt>0</asrwt>
<pdfrwt beam="1">  1        1 0.26337405E+00 0.24277895E+04</pdfrwt>
<pdfrwt beam="2">  1       -1 0.13242268E+00 0.24277895E+04</pdfrwt>
<totfact> 0.20234182E+00</totfact>
</mgrwt>
</event>
<event>
12    1  0.1442183E-007  0.1072409E+04  0.7818608E-02  0.9232509E-01
          2   -1    0    0  501    0  0.00000000000E+00  0.00000000000E+00  0.15882949269E+04  0.15882949269E+04  0.00000000000E+00 0. -1.
         -2   -1    0    0    0  501 -0.00000000000E+00 -0.00000000000E+00 -0.18102148004E+03  0.18102148004E+03  0.00000000000E+00 0.  1.
         23    2    1    2    0    0 -0.24293629670E+02  0.90016760715E+02  0.44651100868E+02  0.13724015526E+03  0.90265950147E+02 0.  0.
        254    2    1    2    0    0  0.24293629670E+02 -0.90016760715E+02  0.13626223460E+04  0.16320762517E+04  0.89344279943E+03 0.  0.
        -24    2    4    4    0    0  0.20565681304E+03  0.88999066928E+02 -0.61496858403E+01  0.23770880507E+03  0.79070213797E+02 0.  0.
         24    2    4    4    0    0 -0.18136318337E+03 -0.17901582764E+03  0.13687720319E+04  0.13943674466E+04  0.76055441588E+02 0.  0.
         13    1    3    3    0    0  0.10313142382E+02 -0.15328971573E+02  0.10322343707E+02  0.21163389495E+02  0.00000000000E+00 0. -1.
        -13    1    3    3    0    0 -0.34606772052E+02  0.10534573229E+03  0.34328757161E+02  0.11607676577E+03  0.00000000000E+00 0.  1.
          4    1    6    6  502    0 -0.89593193570E+02 -0.52339493603E+02  0.41040814480E+03  0.42332163687E+03  0.00000000000E+00 0. -1.
          3    1    5    5  503    0  0.14427848065E+03  0.63758490293E+02  0.32297271091E+02  0.16101098964E+03  0.00000000000E+00 0. -1.
         -4    1    5    5    0  503  0.61378332389E+02  0.25240576636E+02 -0.38446956932E+02  0.76697815438E+02  0.00000000000E+00 0.  1.
         -3    1    6    6    0  502 -0.91769989801E+02 -0.12667633404E+03  0.95836388705E+03  0.97104580975E+03  0.00000000000E+00 0.  1.
<mgrwt>
<rscale>  0 0.10724094E+04</rscale>
<asrwt>0</asrwt>
<pdfrwt beam="1">  1        2 0.24435306E+00 0.10724094E+04</pdfrwt>
<pdfrwt beam="2">  1       -2 0.27849459E-01 0.10724094E+04</pdfrwt>
<totfact> 0.13249014E+02</totfact>
</mgrwt>
</event>
<event>
12    1  0.1442183E-007  0.1974370E+04  0.7818608E-02  0.8618698E-01
          2   -1    0    0  501    0  0.00000000000E+00  0.00000000000E+00  0.12002721895E+04  0.12002721895E+04  0.00000000000E+00 0.  1.
         -2   -1    0    0    0  501 -0.00000000000E+00 -0.00000000000E+00 -0.81192786833E+03  0.81192786833E+03  0.00000000000E+00 0. -1.
         23    2    1    2    0    0  0.31330351606E+03 -0.32515039447E+03 -0.49763040130E+03  0.67830364273E+03  0.92617186545E+02 0.  0.
        254    2    1    2    0    0 -0.31330351606E+03  0.32515039447E+03  0.88597472249E+03  0.13338964151E+04  0.88907061879E+03 0.  0.
        -24    2    4    4    0    0 -0.47736998637E+03  0.20857865152E+03  0.12365333421E+03  0.54131013075E+03  0.79620052910E+02 0.  0.
         24    2    4    4    0    0  0.16406647031E+03  0.11657174295E+03  0.76232138828E+03  0.79258628438E+03  0.80946533087E+02 0.  0.
         11    1    3    3    0    0  0.30027921773E+03 -0.32635339801E+03 -0.46225983031E+03  0.64059214771E+03  0.00000000000E+00 0. -1.
        -11    1    3    3    0    0  0.13024298333E+02  0.12030035371E+01 -0.35370570985E+02  0.37711495017E+02  0.00000000000E+00 0.  1.
          2    1    6    6  502    0  0.14839041187E+03  0.10047034735E+03  0.53625109428E+03  0.56540184042E+03  0.00000000000E+00 0. -1.
          1    1    5    5  503    0 -0.44536738117E+03  0.21159958200E+03  0.10496359474E+03  0.50412681295E+03  0.00000000000E+00 0. -1.
         -2    1    5    5    0  503 -0.32002605204E+02 -0.30209304811E+01  0.18689739473E+02  0.37183317797E+02  0.00000000000E+00 0.  1.
         -1    1    6    6    0  502  0.15676058447E+02  0.16101395607E+02  0.22607029400E+03  0.22718444396E+03  0.00000000000E+00 0.  1.
<mgrwt>
<rscale>  0 0.19743702E+04</rscale>
<asrwt>0</asrwt>
<pdfrwt beam="1">  1        2 0.18465726E+00 0.19743702E+04</pdfrwt>
<pdfrwt beam="2">  1       -2 0.12491198E+00 0.19743702E+04</pdfrwt>
<totfact> 0.84680699E+00</totfact>
</mgrwt>
</event>
<event>
12    1  0.1442183E-007  0.1530365E+04  0.7818608E-02  0.8864508E-01
         -1   -1    0    0    0  501 -0.00000000000E+00  0.00000000000E+00  0.50042148808E+03  0.50042148808E+03  0.00000000000E+00 0. -1.
          1   -1    0    0  501    0  0.00000000000E+00 -0.00000000000E+00 -0.11700226085E+04  0.11700226085E+04  0.00000000000E+00 0.  1.
         23    2    1    2    0    0  0.20885506579E+03 -0.44347993770E+03 -0.28237658593E+03  0.57295454393E+03  0.90804622562E+02 0.  0.
        254    2    1    2    0    0 -0.20885506579E+03  0.44347993770E+03 -0.38722453451E+03  0.10974895527E+04  0.90235557540E+03 0.  0.
        -24    2    4    4    0    0 -0.21359926364E+03  0.56063458166E+02  0.25274639642E+03  0.34515729729E+03  0.80529883917E+02 0.  0.
         24    2    4    4    0    0  0.47441978436E+01  0.38741647953E+03 -0.63997093093E+03  0.75233225539E+03  0.79542404021E+02 0.  0.
         11    1    3    3    0    0  0.10764152092E+03 -0.30414196794E+03 -0.15029418628E+03  0.35591765356E+03  0.00000000000E+00 0.  1.
        -11    1    3    3    0    0  0.10121354487E+03 -0.13933796976E+03 -0.13208239966E+03  0.21703689037E+03  0.00000000000E+00 0. -1.
          2    1    6    6  502    0 -0.93876465887E+01  0.78117078909E+02 -0.78459213617E+02  0.11111369910E+03  0.00000000000E+00 0. -1.
          3    1    5    5  503    0 -0.27922905381E+01 -0.21407671547E+01 -0.56381995610E+01  0.66459810976E+01  0.00000000000E+00 0. -1.
         -4    1    5    5    0  503 -0.21080697310E+03  0.58204225320E+02  0.25838459598E+03  0.33851131619E+03  0.00000000000E+00 0.  1.
         -1    1    6    6    0  502  0.14131844432E+02  0.30929940062E+03 -0.56151171731E+03  0.64121855629E+03  0.00000000000E+00 0.  1.
<mgrwt>
<rscale>  0 0.15303653E+04</rscale>
<asrwt>0</asrwt>
<pdfrwt beam="1">  1        1 0.18000348E+00 0.15303653E+04</pdfrwt>
<pdfrwt beam="2">  1       -1 0.76987921E-01 0.15303653E+04</pdfrwt>
<totfact> 0.18359366E+01</totfact>
</mgrwt>
</event>
<event>
12    1  0.1442183E-007  0.1565793E+04  0.7818608E-02  0.8841843E-01
          2   -1    0    0  501    0  0.00000000000E+00  0.00000000000E+00  0.15834845360E+04  0.15834845360E+04  0.00000000000E+00 0. -1.
         -2   -1    0    0    0  501 -0.00000000000E+00 -0.00000000000E+00 -0.38707478852E+03  0.38707478852E+03  0.00000000000E+00 0.  1.
         23    2    1    2    0    0  0.15263170794E+03 -0.14518062826E+03 -0.19224415814E+03  0.29908854563E+03  0.90123741036E+02 0.  0.
        254    2    1    2    0    0 -0.15263170794E+03  0.14518062826E+03  0.13886539056E+04  0.16714707789E+04  0.90613522281E+03 0.  0.
        -24    2    4    4    0    0  0.22011745606E+03 -0.22438407192E+03  0.23179681888E+03  0.39871885305E+03  0.80293538553E+02 0.  0.
         24    2    4    4    0    0 -0.37274916400E+03  0.36956470018E+03  0.11568570867E+04  0.12727519258E+04  0.77840469917E+02 0.  0.
         13    1    3    3    0    0  0.11821497528E+03 -0.74989308268E+02 -0.16480465892E+03  0.21623772182E+03  0.00000000000E+00 0.  1.
        -13    1    3    3    0    0  0.34416732657E+02 -0.70191319989E+02 -0.27439499216E+02  0.82850823809E+02  0.00000000000E+00 0. -1.
          2    1    6    6  502    0 -0.12366438462E+03  0.87428733275E+02  0.39408440276E+03  0.42218382243E+03  0.00000000000E+00 0. -1.
          1    1    5    5  503    0  0.18834742213E+03 -0.14147988284E+03  0.17198782962E+03  0.29166954282E+03  0.00000000000E+00 0. -1.
         -2    1    5    5    0  503  0.31770033936E+02 -0.82904189077E+02  0.59808989261E+02  0.10704931022E+03  0.00000000000E+00 0.  1.
         -1    1    6    6    0  502 -0.24908477938E+03  0.28213596690E+03  0.76277268395E+03  0.85056810340E+03  0.00000000000E+00 0.  1.
<mgrwt>
<rscale>  0 0.15657930E+04</rscale>
<asrwt>0</asrwt>
<pdfrwt beam="1">  1        2 0.24361300E+00 0.15657930E+04</pdfrwt>
<pdfrwt beam="2">  1       -2 0.59549968E-01 0.15657930E+04</pdfrwt>
<totfact> 0.28818271E+01</totfact>
</mgrwt>
</event>
<event>
12    1  0.1442183E-007  0.2935507E+04  0.7818608E-02  0.8262391E-01
          1   -1    0    0  501    0  0.00000000000E+00  0.00000000000E+00  0.27303173399E+04  0.27303173399E+04  0.00000000000E+00 0. -1.
         -1   -1    0    0    0  501 -0.00000000000E+00 -0.00000000000E+00 -0.78902922140E+03  0.78902922140E+03  0.00000000000E+00 0.  1.
         23    2    1    2    0    0  0.31481647094E+03 -0.87571294732E+03 -0.25593210248E+03  0.96936798477E+03  0.90501228397E+02 0.  0.
        254    2    1    2    0    0 -0.31481647094E+03  0.87571294732E+03  0.21972202210E+04  0.25499785766E+04  0.89923938124E+03 0.  0.
        -24    2    4    4    0    0 -0.54247053802E+03  0.88627091801E+03  0.16449761295E+04  0.19473450615E+04  0.80348599628E+02 0.  0.
         24    2    4    4    0    0  0.22765406707E+03 -0.10557970692E+02  0.55224409155E+03  0.60263351502E+03  0.79093436948E+02 0.  0.
         13    1    3    3    0    0  0.74299862980E+02 -0.21155069771E+03 -0.10244459224E+03  0.24651381669E+03  0.00000000000E+00 0.  1.
        -13    1    3    3    0    0  0.24051660796E+03 -0.66416224961E+03 -0.15348751024E+03  0.72285416808E+03  0.00000000000E+00 0. -1.
          4    1    6    6  502    0 -0.12074504383E+01  0.40778708433E+01 -0.42427312653E+00  0.42739881681E+01  0.00000000000E+00 0. -1.
          3    1    5    5  503    0 -0.16351416850E+03  0.20350316559E+03  0.43163664274E+03  0.50444089154E+03  0.00000000000E+00 0. -1.
         -4    1    5    5    0  503 -0.37895636952E+03  0.68276775242E+03  0.12133394867E+04  0.14429041700E+04  0.00000000000E+00 0.  1.
         -3    1    6    6    0  502  0.22886151751E+03 -0.14635841535E+02  0.55266836468E+03  0.59835952685E+03  0.00000000000E+00 0.  1.
<mgrwt>
<rscale>  0 0.29355069E+04</rscale>
<asrwt>0</asrwt>
<pdfrwt beam="1">  1        1 0.42004882E+00 0.29355069E+04</pdfrwt>
<pdfrwt beam="2">  1       -1 0.12138911E+00 0.29355069E+04</pdfrwt>
<totfact> 0.48078258E-01</totfact>
</mgrwt>
</event>
<event>
12    1  0.1442183E-007  0.2385188E+04  0.7818608E-02  0.8445070E-01
          2   -1    0    0  501    0  0.00000000000E+00  0.00000000000E+00  0.90675988882E+03  0.90675988882E+03  0.00000000000E+00 0. -1.
         -2   -1    0    0    0  501 -0.00000000000E+00 -0.00000000000E+00 -0.15685303516E+04  0.15685303516E+04  0.00000000000E+00 0.  1.
         23    2    1    2    0    0 -0.10046887041E+04  0.11263247657E+03 -0.13454562404E+03  0.10227496556E+04  0.76347011043E+02 0.  0.
        254    2    1    2    0    0  0.10046887041E+04 -0.11263247657E+03 -0.52722483869E+03  0.14525405848E+04  0.89990146852E+03 0.  0.
        -24    2    4    4    0    0  0.32112603232E+02 -0.31520894248E+03 -0.41127968189E+01  0.32688700257E+03  0.80313763755E+02 0.  0.
         24    2    4    4    0    0  0.97257610087E+03  0.20257646591E+03 -0.52311204187E+03  0.11256535822E+04  0.80673925922E+02 0.  0.
         11    1    3    3    0    0 -0.45431493013E+03  0.43802685869E+02 -0.23117490255E+02  0.45700672794E+03  0.00000000000E+00 0. -1.
        -11    1    3    3    0    0 -0.55037377397E+03  0.68829790698E+02 -0.11142813379E+03  0.56574292763E+03  0.00000000000E+00 0.  1.
          4    1    6    6  502    0  0.18601763539E+03  0.59400018733E+02 -0.75221682398E+02  0.20925874989E+03  0.00000000000E+00 0. -1.
          1    1    5    5  503    0 -0.13063983477E+02 -0.43300331273E+02 -0.22738520911E+02  0.50622393127E+02  0.00000000000E+00 0. -1.
         -2    1    5    5    0  503  0.45176586709E+02 -0.27190861120E+03  0.18625724092E+02  0.27626460945E+03  0.00000000000E+00 0.  1.
         -3    1    6    6    0  502  0.78655846547E+03  0.14317644718E+03 -0.44789035947E+03  0.91639483234E+03  0.00000000000E+00 0.  1.
<mgrwt>
<rscale>  0 0.23851880E+04</rscale>
<asrwt>0</asrwt>
<pdfrwt beam="1">  1        2 0.13950152E+00 0.23851880E+04</pdfrwt>
<pdfrwt beam="2">  1       -2 0.24131236E+00 0.23851880E+04</pdfrwt>
<totfact> 0.18987910E+00</totfact>
</mgrwt>
</event>
<event>
12    1  0.1442183E-007  0.1514404E+04  0.7818608E-02  0.8874930E-01
          2   -1    0    0  501    0  0.00000000000E+00  0.00000000000E+00  0.25156204848E+04  0.25156204848E+04  0.00000000000E+00 0. -1.
         -2   -1    0    0    0  501 -0.00000000000E+00 -0.00000000000E+00 -0.22791792088E+03  0.22791792088E+03  0.00000000000E+00 0.  1.
         23    2    1    2    0    0 -0.24957067978E+02 -0.41673744661E+03  0.35270776934E+03  0.55420197755E+03  0.91891820749E+02 0.  0.
        254    2    1    2    0    0  0.24957067978E+02  0.41673744661E+03  0.19349947946E+04  0.21893364281E+04  0.93525193708E+03 0.  0.
        -24    2    4    4    0    0 -0.32011004858E+03  0.12431305668E+03  0.22474150728E+03  0.41849601334E+03  0.81890102098E+02 0.  0.
         24    2    4    4    0    0  0.34506711655E+03  0.29242438992E+03  0.17102532873E+04  0.17708404148E+04  0.79536967329E+02 0.  0.
         11    1    3    3    0    0 -0.25203118389E+02 -0.20504593574E+03  0.11712826009E+03  0.23748276201E+03  0.00000000000E+00 0.  1.
        -11    1    3    3    0    0  0.24605041140E+00 -0.21169151087E+03  0.23557950925E+03  0.31671921554E+03  0.00000000000E+00 0. -1.
          2    1    6    6  502    0  0.30929814063E+03  0.23606768508E+03  0.15275531823E+04  0.15763286512E+04  0.00000000000E+00 0. -1.
          1    1    5    5  503    0 -0.28297622514E+03  0.80239857791E+02  0.17423470355E+03  0.34186504749E+03  0.00000000000E+00 0. -1.
         -2    1    5    5    0  503 -0.37133823438E+02  0.44073198894E+02  0.50506803734E+02  0.76630965851E+02  0.00000000000E+00 0.  1.
         -1    1    6    6    0  502  0.35768975925E+02  0.56356704843E+02  0.18270010502E+03  0.19451176364E+03  0.00000000000E+00 0.  1.
<mgrwt>
<rscale>  0 0.15144042E+04</rscale>
<asrwt>0</asrwt>
<pdfrwt beam="1">  1        2 0.38701852E+00 0.15144042E+04</pdfrwt>
<pdfrwt beam="2">  1       -2 0.35064297E-01 0.15144042E+04</pdfrwt>
<totfact> 0.25188485E+01</totfact>
</mgrwt>
</event>
<event>
12    1  0.1442183E-007  0.1543491E+04  0.7818608E-02  0.8856036E-01
         -2   -1    0    0    0  501 -0.00000000000E+00  0.00000000000E+00  0.38369189391E+03  0.38369189391E+03  0.00000000000E+00 0.  1.
          2   -1    0    0  501    0  0.00000000000E+00 -0.00000000000E+00 -0.15522631895E+04  0.15522631895E+04  0.00000000000E+00 0. -1.
         23    2    1    2    0    0 -0.44321132161E+03  0.21327085716E+03 -0.50838779973E+03  0.71334364803E+03  0.92088387682E+02 0.  0.
        254    2    1    2    0    0  0.44321132161E+03 -0.21327085716E+03 -0.66018349590E+03  0.12226114354E+04  0.90388922976E+03 0.  0.
        -24    2    4    4    0    0 -0.33113305796E+02  0.72711669742E+02  0.17981979826E+03  0.21210921805E+03  0.79193955554E+02 0.  0.
         24    2    4    4    0    0  0.47632462741E+03 -0.28598252690E+03 -0.84000329416E+03  0.10105022174E+04  0.82692446920E+02 0.  0.
         13    1    3    3    0    0 -0.65113798693E+02  0.64664526557E+02 -0.68174727155E+02  0.11432016969E+03  0.00000000000E+00 0.  1.
        -13    1    3    3    0    0 -0.37809752292E+03  0.14860633060E+03 -0.44021307258E+03  0.59902347834E+03  0.00000000000E+00 0. -1.
          4    1    6    6  502    0  0.39638804081E+03 -0.20367198047E+03 -0.69474245408E+03  0.82539253209E+03  0.00000000000E+00 0. -1.
          3    1    5    5  503    0 -0.41619845251E+02  0.79000255932E+02  0.18063418413E+03  0.20149928147E+03  0.00000000000E+00 0. -1.
         -4    1    5    5    0  503  0.85065394557E+01 -0.62885861908E+01 -0.81438587130E+00  0.10609936576E+02  0.00000000000E+00 0.  1.
         -3    1    6    6    0  502  0.79936586593E+02 -0.82310546431E+02 -0.14526084008E+03  0.18510968529E+03  0.00000000000E+00 0.  1.
<mgrwt>
<rscale>  0 0.15434906E+04</rscale>
<asrwt>0</asrwt>
<pdfrwt beam="1">  1        2 0.23880972E+00 0.15434906E+04</pdfrwt>
<pdfrwt beam="2">  1       -2 0.59029522E-01 0.15434906E+04</pdfrwt>
<totfact> 0.30617977E+01</totfact>
</mgrwt>
</event>
<event>
12    1  0.1442183E-007  0.1348992E+04  0.7818608E-02  0.8991591E-01
          2   -1    0    0  501    0  0.00000000000E+00  0.00000000000E+00  0.17807785729E+04  0.17807785729E+04  0.00000000000E+00 0. -1.
         -2   -1    0    0    0  501 -0.00000000000E+00 -0.00000000000E+00 -0.25547530374E+03  0.25547530374E+03  0.00000000000E+00 0.  1.
         23    2    1    2    0    0  0.13585588327E+03 -0.17948186541E+03 -0.81462292669E+01  0.24292078071E+03  0.90959241509E+02 0.  0.
        254    2    1    2    0    0 -0.13585588327E+03  0.17948186541E+03  0.15334494984E+04  0.17933330959E+04  0.90216720607E+03 0.  0.
        -24    2    4    4    0    0 -0.66334526522E+02 -0.30010327987E+03  0.10770624583E+04  0.11229616890E+04  0.80728978707E+02 0.  0.
         24    2    4    4    0    0 -0.69521356751E+02  0.47958514528E+03  0.45638704014E+03  0.67037140690E+03  0.79205821497E+02 0.  0.
         13    1    3    3    0    0  0.32184035517E+02 -0.33618647153E+02  0.35722819685E+02  0.58669799938E+02  0.00000000000E+00 0. -1.
        -13    1    3    3    0    0  0.10367184776E+03 -0.14586321826E+03 -0.43869048952E+02  0.18425098077E+03  0.00000000000E+00 0.  1.
          4    1    6    6  502    0  0.59326668758E+01  0.18238738752E+03  0.19936077771E+03  0.27026852453E+03  0.00000000000E+00 0. -1.
          1    1    5    5  503    0  0.18234639511E+02 -0.53683216139E+02  0.16838069173E+03  0.17766948844E+03  0.00000000000E+00 0. -1.
         -2    1    5    5    0  503 -0.84569166033E+02 -0.24642006373E+03  0.90868176652E+03  0.94529220057E+03  0.00000000000E+00 0.  1.
         -3    1    6    6    0  502 -0.75454023627E+02  0.29719775776E+03  0.25702626243E+03  0.40010288236E+03  0.00000000000E+00 0.  1.
<mgrwt>
<rscale>  0 0.13489921E+04</rscale>
<asrwt>0</asrwt>
<pdfrwt beam="1">  1        2 0.27396593E+00 0.13489921E+04</pdfrwt>
<pdfrwt beam="2">  1       -2 0.39303894E-01 0.13489921E+04</pdfrwt>
<totfact> 0.52878917E+01</totfact>
</mgrwt>
</event>
<event>
12    1  0.1442183E-007  0.1716928E+04  0.7818608E-02  0.8751768E-01
          2   -1    0    0  501    0  0.00000000000E+00  0.00000000000E+00  0.13785867725E+04  0.13785867725E+04  0.00000000000E+00 0. -1.
         -2   -1    0    0    0  501 -0.00000000000E+00 -0.00000000000E+00 -0.53457644242E+03  0.53457644242E+03  0.00000000000E+00 0.  1.
         23    2    1    2    0    0 -0.55510651129E+03 -0.34431637416E+03  0.41708620200E+03  0.78048183000E+03  0.92162805234E+02 0.  0.
        254    2    1    2    0    0  0.55510651129E+03  0.34431637416E+03  0.42692412807E+03  0.11326813849E+04  0.82097862592E+03 0.  0.
        -24    2    4    4    0    0 -0.18145832904E+02  0.44868857031E+03  0.13834876090E+03  0.47760194976E+03  0.85513381368E+02 0.  0.
         24    2    4    4    0    0  0.57325234419E+03 -0.10437219615E+03  0.28857536717E+03  0.65507943516E+03  0.79633651061E+02 0.  0.
         11    1    3    3    0    0 -0.75472396548E+02 -0.19277722858E+02  0.28981124535E+02  0.83112085876E+02  0.00000000000E+00 0. -1.
        -11    1    3    3    0    0 -0.47963411474E+03 -0.32503865130E+03  0.38810507747E+03  0.69736974412E+03  0.00000000000E+00 0.  1.
          2    1    6    6  502    0  0.16443982920E+03 -0.17495865999E+01  0.56298464920E+02  0.17381897374E+03  0.00000000000E+00 0. -1.
          1    1    5    5  503    0 -0.28442067207E+02  0.22454030288E+03  0.10930278947E+03  0.25134517818E+03  0.00000000000E+00 0. -1.
         -2    1    5    5    0  503  0.10296234303E+02  0.22414826743E+03  0.29045971427E+02  0.22625677158E+03  0.00000000000E+00 0.  1.
         -1    1    6    6    0  502  0.40881251499E+03 -0.10262260955E+03  0.23227690225E+03  0.48126046142E+03  0.00000000000E+00 0.  1.
<mgrwt>
<rscale>  0 0.17169275E+04</rscale>
<asrwt>0</asrwt>
<pdfrwt beam="1">  1        2 0.21209027E+00 0.17169275E+04</pdfrwt>
<pdfrwt beam="2">  1       -2 0.82242530E-01 0.17169275E+04</pdfrwt>
<totfact> 0.18371726E+01</totfact>
</mgrwt>
</event>
<event>
12    1  0.1442183E-007  0.1660358E+04  0.7818608E-02  0.8784303E-01
         -1   -1    0    0    0  501 -0.00000000000E+00  0.00000000000E+00  0.29477176151E+03  0.29477176151E+03  0.00000000000E+00 0.  1.
          1   -1    0    0  501    0  0.00000000000E+00 -0.00000000000E+00 -0.23380691436E+04  0.23380691436E+04  0.00000000000E+00 0. -1.
         23    2    1    2    0    0 -0.54663972307E+03  0.93285946927E+02 -0.92774805292E+03  0.10844684907E+04  0.88533625881E+02 0.  0.
        254    2    1    2    0    0  0.54663972307E+03 -0.93285946927E+02 -0.11155493292E+04  0.15483724144E+04  0.91950506967E+03 0.  0.
        -24    2    4    4    0    0  0.24266425475E+03  0.35192627502E+03 -0.18978047132E+03  0.47414309297E+03  0.77826741773E+02 0.  0.
         24    2    4    4    0    0  0.30397546832E+03 -0.44521222195E+03 -0.92576885790E+03  0.10742293215E+04  0.79408116379E+02 0.  0.
         13    1    3    3    0    0 -0.32901256016E+03  0.65005922008E+02 -0.47655123383E+03  0.58273159611E+03  0.00000000000E+00 0.  1.
        -13    1    3    3    0    0 -0.21762716291E+03  0.28280024919E+02 -0.45119681909E+03  0.50173689460E+03  0.00000000000E+00 0. -1.
          2    1    6    6  502    0  0.20673307747E+03 -0.35593494447E+03 -0.73140449308E+03  0.83927396153E+03  0.00000000000E+00 0. -1.
          1    1    5    5  503    0  0.14342788826E+03  0.13969879896E+03 -0.88551254395E+02  0.21892610218E+03  0.00000000000E+00 0. -1.
         -2    1    5    5    0  503  0.99236366493E+02  0.21222747606E+03 -0.10122921692E+03  0.25521699079E+03  0.00000000000E+00 0.  1.
         -1    1    6    6    0  502  0.97242390850E+02 -0.89277277480E+02 -0.19436436482E+03  0.23495535994E+03  0.00000000000E+00 0.  1.
<mgrwt>
<rscale>  0 0.16603575E+04</rscale>
<asrwt>0</asrwt>
<pdfrwt beam="1">  1        1 0.35970294E+00 0.16603575E+04</pdfrwt>
<pdfrwt beam="2">  1       -1 0.45349503E-01 0.16603575E+04</pdfrwt>
<totfact> 0.80859926E+00</totfact>
</mgrwt>
</event>
<event>
12    1  0.1442183E-007  0.2046913E+04  0.7818608E-02  0.8584996E-01
          1   -1    0    0  501    0  0.00000000000E+00  0.00000000000E+00  0.12849565853E+04  0.12849565853E+04  0.00000000000E+00 0. -1.
         -1   -1    0    0    0  501 -0.00000000000E+00 -0.00000000000E+00 -0.81517381733E+03  0.81517381733E+03  0.00000000000E+00 0.  1.
         23    2    1    2    0    0 -0.29871281969E+03  0.57327014286E+03 -0.33228194361E+03  0.73261762224E+03  0.91919992492E+02 0.  0.
        254    2    1    2    0    0  0.29871281969E+03 -0.57327014286E+03  0.80206471156E+03  0.13675127804E+04  0.89939724126E+03 0.  0.
        -24    2    4    4    0    0 -0.23075826773E+02 -0.62097188454E+03  0.16565742137E+03  0.64809843324E+03  0.80315768929E+02 0.  0.
         24    2    4    4    0    0  0.32178864647E+03  0.47701741681E+02  0.63640729019E+03  0.71941434713E+03  0.81971792055E+02 0.  0.
         13    1    3    3    0    0 -0.84866147971E+02  0.18025709782E+03 -0.56758556423E+02  0.20716278168E+03  0.00000000000E+00 0. -1.
        -13    1    3    3    0    0 -0.21384667172E+03  0.39301304503E+03 -0.27552338719E+03  0.52545484056E+03  0.00000000000E+00 0.  1.
          2    1    6    6  502    0  0.72269295461E+02  0.20848180921E+02  0.84492370209E+02  0.11312143182E+03  0.00000000000E+00 0. -1.
          3    1    5    5  503    0 -0.45545448465E+02 -0.20748096947E+03  0.59938392910E+02  0.22071554434E+03  0.00000000000E+00 0. -1.
         -4    1    5    5    0  503  0.22469621691E+02 -0.41349091507E+03  0.10571902846E+03  0.42738288890E+03  0.00000000000E+00 0.  1.
         -1    1    6    6    0  502  0.24951935101E+03  0.26853560760E+02  0.55191491998E+03  0.60629291531E+03  0.00000000000E+00 0.  1.
<mgrwt>
<rscale>  0 0.20469128E+04</rscale>
<asrwt>0</asrwt>
<pdfrwt beam="1">  1        1 0.19768563E+00 0.20469128E+04</pdfrwt>
<pdfrwt beam="2">  1       -1 0.12541136E+00 0.20469128E+04</pdfrwt>
<totfact> 0.47557957E+00</totfact>
</mgrwt>
</event>
<event>
12    1  0.1442183E-007  0.1149533E+04  0.7818608E-02  0.9158214E-01
         -2   -1    0    0    0  501 -0.00000000000E+00  0.00000000000E+00  0.14400530004E+03  0.14400530004E+03  0.00000000000E+00 0. -1.
          2   -1    0    0  501    0  0.00000000000E+00 -0.00000000000E+00 -0.22940592415E+04  0.22940592415E+04  0.00000000000E+00 0.  1.
         23    2    1    2    0    0 -0.67967396886E+02  0.14700473719E+03 -0.62933814041E+03  0.65624883964E+03  0.91466303974E+02 0.  0.
        254    2    1    2    0    0  0.67967396886E+02 -0.14700473719E+03 -0.15207158011E+04  0.17818157019E+04  0.91436354270E+03 0.  0.
        -24    2    4    4    0    0  0.91694876605E+02  0.65509392981E+02 -0.15443289535E+04  0.15504840250E+04  0.79682897709E+02 0.  0.
         24    2    4    4    0    0 -0.23727479719E+02 -0.21251413017E+03  0.23613152407E+02  0.23133167695E+03  0.85038314767E+02 0.  0.
         13    1    3    3    0    0 -0.41818452436E+02  0.12572627489E+02 -0.22920678268E+03  0.23332938768E+03  0.00000000000E+00 0. -1.
        -13    1    3    3    0    0 -0.26148944450E+02  0.13443210970E+03 -0.40013135772E+03  0.42291945196E+03  0.00000000000E+00 0.  1.
          4    1    6    6  502    0  0.25664239103E+02 -0.41464206574E+02 -0.10928431868E+02  0.49973635235E+02  0.00000000000E+00 0. -1.
          3    1    5    5  503    0  0.42269194665E+02  0.73280285974E+02 -0.11260557938E+04  0.11292290892E+04  0.00000000000E+00 0. -1.
         -4    1    5    5    0  503  0.49425681940E+02 -0.77708929929E+01 -0.41827315967E+03  0.42125493578E+03  0.00000000000E+00 0.  1.
         -3    1    6    6    0  502 -0.49391718822E+02 -0.17104992360E+03  0.34541584276E+02  0.18135804171E+03  0.00000000000E+00 0.  1.
<mgrwt>
<rscale>  0 0.11495333E+04</rscale>
<asrwt>0</asrwt>
<pdfrwt beam="1">  1        2 0.35293222E+00 0.11495333E+04</pdfrwt>
<pdfrwt beam="2">  1       -2 0.22154660E-01 0.11495333E+04</pdfrwt>
<totfact> 0.81027907E+01</totfact>
</mgrwt>
</event>
<event>
12    1  0.1442183E-007  0.2234244E+04  0.7818608E-02  0.8504309E-01
          2   -1    0    0  501    0  0.00000000000E+00  0.00000000000E+00  0.64079943192E+03  0.64079943192E+03  0.00000000000E+00 0.  1.
         -2   -1    0    0    0  501 -0.00000000000E+00 -0.00000000000E+00 -0.19475078143E+04  0.19475078143E+04  0.00000000000E+00 0. -1.
         23    2    1    2    0    0  0.61829733365E+03  0.30121284645E+03  0.18220198366E+03  0.71717520792E+03  0.90121830502E+02 0.  0.
        254    2    1    2    0    0 -0.61829733365E+03 -0.30121284645E+03 -0.14889103661E+04  0.18711320383E+04  0.90069986953E+03 0.  0.
        -24    2    4    4    0    0 -0.33424342253E+03 -0.93953989004E+02 -0.17993599198E+02  0.35668394010E+03  0.79709760717E+02 0.  0.
         24    2    4    4    0    0 -0.28405391112E+03 -0.20725885745E+03 -0.14709167669E+04  0.15144480982E+04  0.79460988811E+02 0.  0.
         11    1    3    3    0    0  0.14365424465E+03  0.30364234355E+02  0.47704028171E+02  0.15438329909E+03  0.00000000000E+00 0. -1.
        -11    1    3    3    0    0  0.47464308901E+03  0.27084861210E+03  0.13449795549E+03  0.56279190883E+03  0.00000000000E+00 0.  1.
          4    1    6    6  502    0 -0.28261959728E+03 -0.18622071021E+03 -0.14073184410E+04  0.14474450539E+04  0.00000000000E+00 0. -1.
          1    1    5    5  503    0 -0.24453261760E+03 -0.35528020720E+02  0.51425163486E+01  0.24715356926E+03  0.00000000000E+00 0. -1.
         -2    1    5    5    0  503 -0.89710804939E+02 -0.58425968284E+02 -0.23136115547E+02  0.10953037084E+03  0.00000000000E+00 0.  1.
         -3    1    6    6    0  502 -0.14343138343E+01 -0.21038147234E+02 -0.63598325880E+02  0.67003044334E+02  0.00000000000E+00 0.  1.
<mgrwt>
<rscale>  0 0.22342443E+04</rscale>
<asrwt>0</asrwt>
<pdfrwt beam="1">  1        2 0.98584529E-01 0.22342443E+04</pdfrwt>
<pdfrwt beam="2">  1       -2 0.29961658E+00 0.22342443E+04</pdfrwt>
<totfact> 0.13335774E+00</totfact>
</mgrwt>
</event>
<event>
12    1  0.1442183E-007  0.1395751E+04  0.7818608E-02  0.8956900E-01
          2   -1    0    0  501    0  0.00000000000E+00  0.00000000000E+00  0.15401265762E+04  0.15401265762E+04  0.00000000000E+00 0. -1.
         -2   -1    0    0    0  501 -0.00000000000E+00 -0.00000000000E+00 -0.31622749837E+03  0.31622749837E+03  0.00000000000E+00 0.  1.
         23    2    1    2    0    0  0.36018805985E+02  0.39503720321E+03  0.28107258307E+03  0.49420865035E+03  0.88818054586E+02 0.  0.
        254    2    1    2    0    0 -0.36018805985E+02 -0.39503720321E+03  0.94282649475E+03  0.13621454242E+04  0.89953688705E+03 0.  0.
        -24    2    4    4    0    0 -0.36362538039E+02 -0.42226448546E+03  0.16075252729E+02  0.43157428852E+03  0.79802399109E+02 0.  0.
         24    2    4    4    0    0  0.34373205395E+00  0.27227282250E+02  0.92675124202E+03  0.93057113569E+03  0.79707784661E+02 0.  0.
         13    1    3    3    0    0  0.17351038093E+02  0.16201098099E+03  0.16970969933E+03  0.23526580399E+03  0.00000000000E+00 0. -1.
        -13    1    3    3    0    0  0.18667767892E+02  0.23302622223E+03  0.11136288374E+03  0.25894284635E+03  0.00000000000E+00 0.  1.
          4    1    6    6  502    0  0.28727314554E+01  0.41752572833E+02  0.88984784515E+03  0.89083147533E+03  0.00000000000E+00 0. -1.
          3    1    5    5  503    0 -0.29982273199E+02 -0.30243575356E+03 -0.24493371186E+02  0.30490366834E+03  0.00000000000E+00 0. -1.
         -4    1    5    5    0  503 -0.63802648403E+01 -0.11982873191E+03  0.40568623915E+02  0.12667062018E+03  0.00000000000E+00 0.  1.
         -3    1    6    6    0  502 -0.25289994015E+01 -0.14525290583E+02  0.36903396871E+02  0.39739660355E+02  0.00000000000E+00 0.  1.
<mgrwt>
<rscale>  0 0.13957512E+04</rscale>
<asrwt>0</asrwt>
<pdfrwt beam="1">  1        2 0.23694255E+00 0.13957512E+04</pdfrwt>
<pdfrwt beam="2">  1       -2 0.48650385E-01 0.13957512E+04</pdfrwt>
<totfact> 0.46928685E+01</totfact>
</mgrwt>
</event>
<event>
12    1  0.1442183E-007  0.1484524E+04  0.7818608E-02  0.8894810E-01
         -1   -1    0    0    0  501 -0.00000000000E+00  0.00000000000E+00  0.61781438137E+03  0.61781438137E+03  0.00000000000E+00 0.  1.
          1   -1    0    0  501    0  0.00000000000E+00 -0.00000000000E+00 -0.89177698087E+03  0.89177698087E+03  0.00000000000E+00 0. -1.
         23    2    1    2    0    0  0.70627100303E+02  0.40083733576E+03 -0.30530423357E+03  0.51734313475E+03  0.93672231722E+02 0.  0.
        254    2    1    2    0    0 -0.70627100303E+02 -0.40083733576E+03  0.31341634071E+02  0.99224822749E+03  0.90438680326E+03 0.  0.
        -24    2    4    4    0    0  0.34284487121E+03 -0.43505932988E+03  0.85331799605E+02  0.56633116073E+03  0.81426294009E+02 0.  0.
         24    2    4    4    0    0 -0.41347197151E+03  0.34221994122E+02 -0.53990165533E+02  0.42591706677E+03  0.79750822472E+02 0.  0.
         11    1    3    3    0    0  0.41535494945E+02  0.15365718356E+03 -0.17445238339E+03  0.23615537570E+03  0.00000000000E+00 0. -1.
        -11    1    3    3    0    0  0.29091605358E+02  0.24718015220E+03 -0.13085185018E+03  0.28118775905E+03  0.00000000000E+00 0.  1.
          2    1    6    6  502    0 -0.27053752156E+03  0.23445738724E+02  0.32490077305E+01  0.27157100229E+03  0.00000000000E+00 0. -1.
          3    1    5    5  503    0  0.30953723522E+03 -0.42311570274E+03  0.83854979944E+02  0.53091605321E+03  0.00000000000E+00 0. -1.
         -4    1    5    5    0  503  0.33307635982E+02 -0.11943627142E+02  0.14768196605E+01  0.35415107515E+02  0.00000000000E+00 0.  1.
         -1    1    6    6    0  502 -0.14293444995E+03  0.10776255398E+02 -0.57239173264E+02  0.15434606448E+03  0.00000000000E+00 0.  1.
<mgrwt>
<rscale>  0 0.14845237E+04</rscale>
<asrwt>0</asrwt>
<pdfrwt beam="1">  1        1 0.13719646E+00 0.14845237E+04</pdfrwt>
<pdfrwt beam="2">  1       -1 0.95048367E-01 0.14845237E+04</pdfrwt>
<totfact> 0.19152435E+01</totfact>
</mgrwt>
</event>
<event>
12    1  0.1442183E-007  0.1792041E+04  0.7818608E-02  0.8710544E-01
          2   -1    0    0  501    0  0.00000000000E+00  0.00000000000E+00  0.35041081837E+04  0.35041081837E+04  0.00000000000E+00 0. -1.
         -2   -1    0    0    0  501 -0.00000000000E+00 -0.00000000000E+00 -0.22911753667E+03  0.22911753667E+03  0.00000000000E+00 0.  1.
         23    2    1    2    0    0  0.64112441413E+03 -0.50020516291E+02  0.88859608455E+03  0.11006191191E+04  0.90646992890E+02 0.  0.
        254    2    1    2    0    0 -0.64112441413E+03  0.50020516291E+02  0.23863945625E+04  0.26326066013E+04  0.90675020982E+03 0.  0.
        -24    2    4    4    0    0 -0.26074903416E+01 -0.75992844582E+02  0.16191963937E+04  0.16229448016E+04  0.79819521447E+02 0.  0.
         24    2    4    4    0    0 -0.63851692379E+03  0.12601336087E+03  0.76719816872E+03  0.10096617997E+04  0.85092247923E+02 0.  0.
         13    1    3    3    0    0  0.63895804765E+03 -0.43204392776E+02  0.88552606281E+03  0.10928359502E+04  0.00000000000E+00 0.  1.
        -13    1    3    3    0    0  0.21663664863E+01 -0.68161235154E+01  0.30700217407E+01  0.77831688288E+01  0.00000000000E+00 0. -1.
          2    1    6    6  502    0 -0.41742352814E+03  0.11628460713E+03  0.54200274343E+03  0.69392469734E+03  0.00000000000E+00 0. -1.
          1    1    5    5  503    0  0.25433710067E+02 -0.22387004850E+02  0.23533329499E+03  0.23775998681E+03  0.00000000000E+00 0. -1.
         -4    1    5    5    0  503 -0.28041200409E+02 -0.53605839732E+02  0.13838630987E+04  0.13851848148E+04  0.00000000000E+00 0.  1.
         -3    1    6    6    0  502 -0.22109339565E+03  0.97287537475E+01  0.22519542529E+03  0.31573710238E+03  0.00000000000E+00 0.  1.
<mgrwt>
<rscale>  0 0.17920409E+04</rscale>
<asrwt>0</asrwt>
<pdfrwt beam="1">  1        2 0.53909353E+00 0.17920409E+04</pdfrwt>
<pdfrwt beam="2">  1       -2 0.35248854E-01 0.17920409E+04</pdfrwt>
<totfact> 0.58145104E+00</totfact>
</mgrwt>
</event>
<event>
12    1  0.1442183E-007  0.2820761E+04  0.7818608E-02  0.8296852E-01
          2   -1    0    0  501    0  0.00000000000E+00  0.00000000000E+00  0.13796878627E+04  0.13796878627E+04  0.00000000000E+00 0. -1.
         -2   -1    0    0    0  501 -0.00000000000E+00 -0.00000000000E+00 -0.14417556438E+04  0.14417556438E+04  0.00000000000E+00 0.  1.
         23    2    1    2    0    0  0.67587711807E+02  0.16729872478E+03  0.12300549270E+04  0.12463728025E+04  0.88617589596E+02 0.  0.
        254    2    1    2    0    0 -0.67587711807E+02 -0.16729872478E+03 -0.12921227081E+04  0.15750707041E+04  0.88244527759E+03 0.  0.
        -24    2    4    4    0    0 -0.27967869195E+03  0.26395676014E+03 -0.41172310037E+03  0.56888102903E+03  0.78843971600E+02 0.  0.
         24    2    4    4    0    0  0.21209098014E+03 -0.43125548491E+03 -0.88039960776E+03  0.10061896751E+04  0.79688868366E+02 0.  0.
         13    1    3    3    0    0  0.80572182448E+02  0.94071591997E+02  0.86467437564E+03  0.87350049622E+03  0.00000000000E+00 0. -1.
        -13    1    3    3    0    0 -0.12984470641E+02  0.73227132779E+02  0.36538055138E+03  0.37287230627E+03  0.00000000000E+00 0.  1.
          4    1    6    6  502    0  0.21395729122E+03 -0.38676433285E+03 -0.78425644979E+03  0.90023471976E+03  0.00000000000E+00 0. -1.
          3    1    5    5  503    0 -0.22367063943E+03  0.21087714499E+03 -0.37040865888E+03  0.48135257327E+03  0.00000000000E+00 0. -1.
         -4    1    5    5    0  503 -0.56008052516E+02  0.53079615150E+02 -0.41314441483E+02  0.87528455751E+02  0.00000000000E+00 0.  1.
         -3    1    6    6    0  502 -0.18663110745E+01 -0.44491152069E+02 -0.96143157974E+02  0.10595495531E+03  0.00000000000E+00 0.  1.
<mgrwt>
<rscale>  0 0.28207607E+04</rscale>
<asrwt>0</asrwt>
<pdfrwt beam="1">  1        2 0.21225967E+00 0.28207607E+04</pdfrwt>
<pdfrwt beam="2">  1       -2 0.22180856E+00 0.28207607E+04</pdfrwt>
<totfact> 0.12430515E+00</totfact>
</mgrwt>
</event>
<event>
12    1  0.1442183E-007  0.2999180E+04  0.7818608E-02  0.8243965E-01
          2   -1    0    0  501    0  0.00000000000E+00  0.00000000000E+00  0.38696988716E+04  0.38696988716E+04  0.00000000000E+00 0. -1.
         -2   -1    0    0    0  501 -0.00000000000E+00 -0.00000000000E+00 -0.58112279583E+03  0.58112279583E+03  0.00000000000E+00 0.  1.
         23    2    1    2    0    0 -0.82084071560E+03 -0.10554400601E+04  0.18863963224E+04  0.23139054579E+04  0.89074024235E+02 0.  0.
        254    2    1    2    0    0  0.82084071560E+03  0.10554400601E+04  0.14021797534E+04  0.21369162096E+04  0.90142643907E+03 0.  0.
        -24    2    4    4    0    0  0.67804204856E+03  0.46272171122E+03  0.30491243578E+03  0.87904475013E+03  0.76783315720E+02 0.  0.
         24    2    4    4    0    0  0.14279866704E+03  0.59271834891E+03  0.10972673176E+04  0.12578714594E+04  0.80861250372E+02 0.  0.
         13    1    3    3    0    0 -0.23272294820E+01 -0.15223760676E+02  0.13437226343E+02  0.20438638359E+02  0.00000000000E+00 0.  1.
        -13    1    3    3    0    0 -0.81851348612E+03 -0.10402162995E+04  0.18729590961E+04  0.22934668195E+04  0.00000000000E+00 0. -1.
          2    1    6    6  502    0  0.15253206196E+03  0.55939739702E+03  0.10229867161E+04  0.11758797978E+04  0.00000000000E+00 0. -1.
          1    1    5    5  503    0  0.48158303867E+03  0.35600249051E+03  0.24901375980E+03  0.64858912183E+03  0.00000000000E+00 0. -1.
         -2    1    5    5    0  503  0.19645900989E+03  0.10671922071E+03  0.55898675980E+02  0.23045562829E+03  0.00000000000E+00 0.  1.
         -1    1    6    6    0  502 -0.97333949176E+01  0.33320951890E+02  0.74280601520E+02  0.81991661611E+02  0.00000000000E+00 0.  1.
<mgrwt>
<rscale>  0 0.29991800E+04</rscale>
<asrwt>0</asrwt>
<pdfrwt beam="1">  1        2 0.59533827E+00 0.29991800E+04</pdfrwt>
<pdfrwt beam="2">  1       -2 0.89403510E-01 0.29991800E+04</pdfrwt>
<totfact> 0.39853229E-01</totfact>
</mgrwt>
</event>
<event>
12    1  0.1442183E-007  0.1267466E+04  0.7818608E-02  0.9055770E-01
         -1   -1    0    0    0  501 -0.00000000000E+00  0.00000000000E+00  0.13724764677E+04  0.13724764677E+04  0.00000000000E+00 0.  1.
          1   -1    0    0  501    0  0.00000000000E+00 -0.00000000000E+00 -0.29262262502E+03  0.29262262502E+03  0.00000000000E+00 0. -1.
         23    2    1    2    0    0 -0.27365061905E+03 -0.11847122096E+03  0.17233039613E+03  0.35656209314E+03  0.92296637698E+02 0.  0.
        254    2    1    2    0    0  0.27365061905E+03  0.11847122096E+03  0.90752344658E+03  0.13085369996E+04  0.89428752745E+03 0.  0.
        -24    2    4    4    0    0  0.16603082153E+03 -0.31761178951E+03  0.73570238961E+03  0.82245174470E+03  0.82008436986E+02 0.  0.
         24    2    4    4    0    0  0.10761979752E+03  0.43608301047E+03  0.17182105696E+03  0.48608525491E+03  0.70752996987E+02 0.  0.
         13    1    3    3    0    0 -0.12230990837E+03 -0.99050516252E+02  0.10852738244E+03  0.19117769534E+03  0.00000000000E+00 0.  1.
        -13    1    3    3    0    0 -0.15134071068E+03 -0.19420704713E+02  0.63803013689E+02  0.16538439780E+03  0.00000000000E+00 0. -1.
          4    1    6    6  502    0  0.22502603566E+02  0.15669554413E+03  0.92881809019E+02  0.18353988985E+03  0.00000000000E+00 0. -1.
          1    1    5    5  503    0  0.16774846517E+03 -0.26726266871E+03  0.60431686609E+03  0.68173877424E+03  0.00000000000E+00 0. -1.
         -2    1    5    5    0  503 -0.17176436373E+01 -0.50349120796E+02  0.13138552352E+03  0.14071297046E+03  0.00000000000E+00 0.  1.
         -3    1    6    6    0  502  0.85117193956E+02  0.27938746634E+03  0.78939247944E+02  0.30254536506E+03  0.00000000000E+00 0.  1.
<mgrwt>
<rscale>  0 0.12674662E+04</rscale>
<asrwt>0</asrwt>
<pdfrwt beam="1">  1        1 0.45018866E-01 0.12674662E+04</pdfrwt>
<pdfrwt beam="2">  1       -1 0.21115022E+00 0.12674662E+04</pdfrwt>
<totfact> 0.11267485E+01</totfact>
</mgrwt>
</event>
<event>
12    1  0.1442183E-007  0.1176341E+04  0.7818608E-02  0.9133821E-01
         -3   -1    0    0    0  501 -0.00000000000E+00  0.00000000000E+00  0.39013516538E+03  0.39013516538E+03  0.00000000000E+00 0.  1.
          3   -1    0    0  501    0  0.00000000000E+00 -0.00000000000E+00 -0.88672991653E+03  0.88672991653E+03  0.00000000000E+00 0. -1.
         23    2    1    2    0    0  0.16425998381E+03 -0.13800357141E+03 -0.18683301441E+03  0.29889714394E+03  0.91687509413E+02 0.  0.
        254    2    1    2    0    0 -0.16425998381E+03  0.13800357141E+03 -0.30976173675E+03  0.97796793797E+03  0.90246475063E+03 0.  0.
        -24    2    4    4    0    0  0.18951181254E+03  0.18892665810E+03 -0.49415875555E+03  0.56795823621E+03  0.82314477167E+02 0.  0.
         24    2    4    4    0    0 -0.35377179635E+03 -0.50923086695E+02  0.18439701880E+03  0.41000970176E+03  0.79737383614E+02 0.  0.
         13    1    3    3    0    0  0.37296389870E+02 -0.45143337401E+02 -0.54526796773E+01  0.58810486520E+02  0.00000000000E+00 0.  1.
        -13    1    3    3    0    0  0.12696359394E+03 -0.92860234008E+02 -0.18138033473E+03  0.24008665742E+03  0.00000000000E+00 0. -1.
          2    1    6    6  502    0 -0.33593780239E+03 -0.63614805706E+02  0.16083048519E+03  0.37784586215E+03  0.00000000000E+00 0. -1.
          3    1    5    5  503    0  0.18338555186E+03  0.19685403535E+03 -0.46622291257E+03  0.53828020219E+03  0.00000000000E+00 0. -1.
         -4    1    5    5    0  503  0.61262606799E+01 -0.79273772472E+01 -0.27935842978E+02  0.29678034012E+02  0.00000000000E+00 0.  1.
         -1    1    6    6    0  502 -0.17833993960E+02  0.12691719011E+02  0.23566533610E+02  0.32163839609E+02  0.00000000000E+00 0.  1.
<mgrwt>
<rscale>  0 0.11763410E+04</rscale>
<asrwt>0</asrwt>
<pdfrwt beam="1">  1        3 0.13641999E+00 0.11763410E+04</pdfrwt>
<pdfrwt beam="2">  1       -3 0.60020795E-01 0.11763410E+04</pdfrwt>
<totfact> 0.28986906E+00</totfact>
</mgrwt>
</event>
<event>
12    1  0.1442183E-007  0.1583545E+04  0.7818608E-02  0.8830721E-01
         -2   -1    0    0    0  501 -0.00000000000E+00  0.00000000000E+00  0.24484390600E+03  0.24484390600E+03  0.00000000000E+00 0.  1.
          2   -1    0    0  501    0  0.00000000000E+00 -0.00000000000E+00 -0.25604212889E+04  0.25604212889E+04  0.00000000000E+00 0. -1.
         23    2    1    2    0    0 -0.51848686224E+03 -0.18116161949E+03 -0.53204539754E+03  0.77001035021E+03  0.90528866596E+02 0.  0.
        254    2    1    2    0    0  0.51848686224E+03  0.18116161949E+03 -0.17835319854E+04  0.20352548447E+04  0.81217472342E+03 0.  0.
        -24    2    4    4    0    0  0.51224537876E+03  0.29315949869E+03 -0.18002714072E+04  0.18962540941E+04  0.80402923182E+02 0.  0.
         24    2    4    4    0    0  0.62414834810E+01 -0.11199787919E+03  0.16739421889E+02  0.13900075056E+03  0.80364913676E+02 0.  0.
         11    1    3    3    0    0 -0.51995579495E+03 -0.17246921566E+03 -0.52313666249E+03  0.75747714599E+03  0.00000000000E+00 0.  1.
        -11    1    3    3    0    0  0.14689327149E+01 -0.86924038308E+01 -0.89087350478E+01  0.12533204212E+02  0.00000000000E+00 0. -1.
          4    1    6    6  502    0  0.18037178304E+02 -0.48764228061E+01  0.24662208917E+02  0.30940973631E+02  0.00000000000E+00 0. -1.
          3    1    5    5  503    0  0.48878179464E+03  0.28559158089E+03 -0.17622036398E+04  0.18509002842E+04  0.00000000000E+00 0. -1.
         -4    1    5    5    0  503  0.23463584120E+02  0.75679177933E+01 -0.38067767445E+02  0.45353809958E+02  0.00000000000E+00 0.  1.
         -3    1    6    6    0  502 -0.11795694823E+02 -0.10712145639E+03 -0.79227870283E+01  0.10805977693E+03  0.00000000000E+00 0.  1.
<mgrwt>
<rscale>  0 0.15835448E+04</rscale>
<asrwt>0</asrwt>
<pdfrwt beam="1">  1        2 0.39391098E+00 0.15835448E+04</pdfrwt>
<pdfrwt beam="2">  1       -2 0.37668292E-01 0.15835448E+04</pdfrwt>
<totfact> 0.20547921E+01</totfact>
</mgrwt>
</event>
<event>
12    1  0.1442183E-007  0.1518988E+04  0.7818608E-02  0.8871923E-01
          2   -1    0    0  501    0  0.00000000000E+00  0.00000000000E+00  0.10049655231E+04  0.10049655231E+04  0.00000000000E+00 0.  1.
         -2   -1    0    0    0  501 -0.00000000000E+00 -0.00000000000E+00 -0.57398126901E+03  0.57398126901E+03  0.00000000000E+00 0. -1.
         23    2    1    2    0    0  0.36925028869E+03  0.31692501815E+03  0.12958098957E+03  0.51162830582E+03  0.90471253043E+02 0.  0.
        254    2    1    2    0    0 -0.36925028869E+03 -0.31692501815E+03  0.30140326448E+03  0.10673184863E+04  0.90085380637E+03 0.  0.
        -24    2    4    4    0    0 -0.24264047929E+03  0.16845185298E+03 -0.18996233114E+03  0.36062683679E+03  0.81948759562E+02 0.  0.
         24    2    4    4    0    0 -0.12660980939E+03 -0.48537687114E+03  0.49136559563E+03  0.70669164948E+03  0.79700614822E+02 0.  0.
         11    1    3    3    0    0  0.22155363996E+03  0.23068882846E+03  0.11533003924E+03  0.34000642480E+03  0.00000000000E+00 0.  1.
        -11    1    3    3    0    0  0.14769664872E+03  0.86236189697E+02  0.14250950334E+02  0.17162188101E+03  0.00000000000E+00 0. -1.
          4    1    6    6  502    0  0.24559709216E+01 -0.10765125743E+03  0.12369900472E+03  0.16400081947E+03  0.00000000000E+00 0. -1.
          1    1    5    5  503    0 -0.79627936578E+02  0.12717167309E+02 -0.41525646454E+02  0.90701234509E+02  0.00000000000E+00 0. -1.
         -2    1    5    5    0  503 -0.16301254271E+03  0.15573468567E+03 -0.14843668469E+03  0.26992560228E+03  0.00000000000E+00 0.  1.
         -3    1    6    6    0  502 -0.12906578032E+03 -0.37772561371E+03  0.36766659091E+03  0.54269083000E+03  0.00000000000E+00 0.  1.
<mgrwt>
<rscale>  0 0.15189883E+04</rscale>
<asrwt>0</asrwt>
<pdfrwt beam="1">  1        2 0.15461008E+00 0.15189883E+04</pdfrwt>
<pdfrwt beam="2">  1       -2 0.88304810E-01 0.15189883E+04</pdfrwt>
<totfact> 0.26643245E+01</totfact>
</mgrwt>
</event>
<event>
12    1  0.1442183E-007  0.1192526E+04  0.7818608E-02  0.9119423E-01
         -3   -1    0    0    0  501 -0.00000000000E+00  0.00000000000E+00  0.81947019511E+03  0.81947019511E+03  0.00000000000E+00 0.  1.
          3   -1    0    0  501    0  0.00000000000E+00 -0.00000000000E+00 -0.43385331569E+03  0.43385331569E+03  0.00000000000E+00 0. -1.
         23    2    1    2    0    0 -0.83521721708E+02 -0.23415557619E+03  0.95276885958E+02  0.28159270760E+03  0.91717261808E+02 0.  0.
        254    2    1    2    0    0  0.83521721708E+02  0.23415557619E+03  0.29033999346E+03  0.97173080321E+03  0.89339729698E+03 0.  0.
        -24    2    4    4    0    0 -0.32248252872E+03 -0.78940082711E+02  0.29735583055E+03  0.45279030462E+03  0.79825133962E+02 0.  0.
         24    2    4    4    0    0  0.40600425043E+03  0.31309565890E+03 -0.70158370848E+01  0.51894049859E+03  0.79885393645E+02 0.  0.
         11    1    3    3    0    0 -0.27197446378E+02 -0.98860760748E+02  0.87570197467E+02  0.13483949937E+03  0.00000000000E+00 0. -1.
        -11    1    3    3    0    0 -0.56324275330E+02 -0.13529481545E+03  0.77066884914E+01  0.14675320823E+03  0.00000000000E+00 0.  1.
          2    1    6    6  502    0  0.65748141461E+02  0.32449769176E+02  0.23040466076E+02  0.76854854773E+02  0.00000000000E+00 0. -1.
          1    1    5    5  503    0 -0.14823777056E+03  0.11493459682E+01  0.10910932427E+03  0.18406684183E+03  0.00000000000E+00 0. -1.
         -2    1    5    5    0  503 -0.17424475816E+03 -0.80089428679E+02  0.18824650628E+03  0.26872346279E+03  0.00000000000E+00 0.  1.
         -1    1    6    6    0  502  0.34025610897E+03  0.28064588973E+03 -0.30056303161E+02  0.44208564382E+03  0.00000000000E+00 0.  1.
<mgrwt>
<rscale>  0 0.11925265E+04</rscale>
<asrwt>0</asrwt>
<pdfrwt beam="1">  1        3 0.66746664E-01 0.11925265E+04</pdfrwt>
<pdfrwt beam="2">  1       -3 0.12607234E+00 0.11925265E+04</pdfrwt>
<totfact> 0.28031299E+00</totfact>
</mgrwt>
</event>
<event>
12    1  0.1442183E-007  0.1529504E+04  0.7818608E-02  0.8865067E-01
         -2   -1    0    0    0  501 -0.00000000000E+00  0.00000000000E+00  0.54020709741E+03  0.54020709741E+03  0.00000000000E+00 0.  1.
          2   -1    0    0  501    0  0.00000000000E+00 -0.00000000000E+00 -0.10826323648E+04  0.10826323648E+04  0.00000000000E+00 0. -1.
         23    2    1    2    0    0  0.28188094646E+03  0.37138668362E+03 -0.34311859803E+03  0.58695974314E+03  0.96986756860E+02 0.  0.
        254    2    1    2    0    0 -0.28188094646E+03 -0.37138668362E+03 -0.19930666938E+03  0.10358797191E+04  0.90329325649E+03 0.  0.
        -24    2    4    4    0    0 -0.20979219426E+03 -0.18939201664E+02  0.32464337345E+03  0.39492326697E+03  0.78737594171E+02 0.  0.
         24    2    4    4    0    0 -0.72088752193E+02 -0.35244748196E+03 -0.52395004283E+03  0.64095645212E+03  0.82978975649E+02 0.  0.
         13    1    3    3    0    0  0.26453174606E+03  0.29106327213E+03 -0.27110918356E+03  0.47769766848E+03  0.00000000000E+00 0. -1.
        -13    1    3    3    0    0  0.17349200401E+02  0.80323411489E+02 -0.72009414472E+02  0.10926207467E+03  0.00000000000E+00 0.  1.
          2    1    6    6  502    0  0.15511199561E+02 -0.69487651556E+02 -0.78138047369E+02  0.10571038491E+03  0.00000000000E+00 0. -1.
          1    1    5    5  503    0  0.45032717867E+01 -0.41564437942E+01  0.28068415861E+02  0.28729626708E+02  0.00000000000E+00 0. -1.
         -2    1    5    5    0  503 -0.21429546605E+03 -0.14782757869E+02  0.29657495759E+03  0.36619364026E+03  0.00000000000E+00 0.  1.
         -1    1    6    6    0  502 -0.87599951754E+02 -0.28295983040E+03 -0.44581199547E+03  0.53524606722E+03  0.00000000000E+00 0.  1.
<mgrwt>
<rscale>  0 0.15295041E+04</rscale>
<asrwt>0</asrwt>
<pdfrwt beam="1">  1        2 0.16655882E+00 0.15295041E+04</pdfrwt>
<pdfrwt beam="2">  1       -2 0.83108786E-01 0.15295041E+04</pdfrwt>
<totfact> 0.27309412E+01</totfact>
</mgrwt>
</event>
<event>
12    1  0.1442183E-007  0.1825318E+04  0.7818608E-02  0.8692950E-01
          1   -1    0    0  501    0  0.00000000000E+00  0.00000000000E+00  0.15726680269E+04  0.15726680269E+04  0.00000000000E+00 0. -1.
         -1   -1    0    0    0  501 -0.00000000000E+00 -0.00000000000E+00 -0.52963899658E+03  0.52963899658E+03  0.00000000000E+00 0.  1.
         23    2    1    2    0    0  0.18218545612E+03 -0.41165764426E+03  0.98560447160E+03  0.10872983722E+04  0.90266379038E+02 0.  0.
        254    2    1    2    0    0 -0.18218545612E+03  0.41165764426E+03  0.57424558756E+02  0.10150086514E+04  0.90790496523E+03 0.  0.
        -24    2    4    4    0    0 -0.24646080508E+03 -0.21308154409E+03 -0.12232148192E+03  0.35689541965E+03  0.79152528436E+02 0.  0.
         24    2    4    4    0    0  0.64275348962E+02  0.62473918834E+03  0.17974604067E+03  0.65811323171E+03  0.79837413981E+02 0.  0.
         13    1    3    3    0    0  0.17833686373E+03 -0.40800703931E+03  0.98609705319E+03  0.10819709698E+04  0.00000000000E+00 0. -1.
        -13    1    3    3    0    0  0.38485923870E+01 -0.36506049432E+01 -0.49258158727E+00  0.53274024095E+01  0.00000000000E+00 0.  1.
          4    1    6    6  502    0  0.65348709740E+02  0.36538681988E+03  0.13473588021E+03  0.39488193099E+03  0.00000000000E+00 0. -1.
          3    1    5    5  503    0 -0.20275655362E+03 -0.16095637142E+03 -0.12770112517E+03  0.28866026901E+03  0.00000000000E+00 0. -1.
         -4    1    5    5    0  503 -0.43704251456E+02 -0.52125172674E+02  0.53796432474E+01  0.68235150642E+02  0.00000000000E+00 0.  1.
         -3    1    6    6    0  502 -0.10733607779E+01  0.25935236847E+03  0.45010160464E+02  0.26323130072E+03  0.00000000000E+00 0.  1.
<mgrwt>
<rscale>  0 0.18253179E+04</rscale>
<asrwt>0</asrwt>
<pdfrwt beam="1">  1        1 0.24194892E+00 0.18253179E+04</pdfrwt>
<pdfrwt beam="2">  1       -1 0.81482923E-01 0.18253179E+04</pdfrwt>
<totfact> 0.82283402E+00</totfact>
</mgrwt>
</event>
<event>
12    1  0.1442183E-007  0.1254282E+04  0.7818608E-02  0.9066627E-01
          2   -1    0    0  501    0  0.00000000000E+00  0.00000000000E+00  0.36606295687E+03  0.36606295687E+03  0.00000000000E+00 0. -1.
         -2   -1    0    0    0  501 -0.00000000000E+00 -0.00000000000E+00 -0.10744212477E+04  0.10744212477E+04  0.00000000000E+00 0.  1.
         23    2    1    2    0    0  0.82479309872E+02  0.28317638159E+03 -0.20133209669E+03  0.36848741841E+03  0.90866191330E+02 0.  0.
        254    2    1    2    0    0 -0.82479309872E+02 -0.28317638159E+03 -0.50702619411E+03  0.10719967861E+04  0.89727913624E+03 0.  0.
        -24    2    4    4    0    0 -0.32346383211E+03 -0.24447040617E+03  0.88970430490E+02  0.42298512337E+03  0.81277591726E+02 0.  0.
         24    2    4    4    0    0  0.24098452224E+03 -0.38705975415E+02 -0.59599662460E+03  0.64901166276E+03  0.80202676863E+02 0.  0.
         11    1    3    3    0    0  0.22953810152E+02  0.43207453802E+02 -0.78291823628E+02  0.92322105216E+02  0.00000000000E+00 0.  1.
        -11    1    3    3    0    0  0.59525499720E+02  0.23996892778E+03 -0.12304027306E+03  0.27616531320E+03  0.00000000000E+00 0. -1.
          2    1    6    6  502    0  0.57898980489E+02  0.20440064505E+02 -0.19118730969E+03  0.20080506857E+03  0.00000000000E+00 0. -1.
          3    1    5    5  503    0 -0.71550344992E+02 -0.16430383380E+02  0.95702266225E+01  0.74033766648E+02  0.00000000000E+00 0. -1.
         -4    1    5    5    0  503 -0.25191348712E+03 -0.22804002279E+03  0.79400203868E+02  0.34895135673E+03  0.00000000000E+00 0.  1.
         -1    1    6    6    0  502  0.18308554175E+03 -0.59146039921E+02 -0.40480931491E+03  0.44820659419E+03  0.00000000000E+00 0.  1.
<mgrwt>
<rscale>  0 0.12542820E+04</rscale>
<asrwt>0</asrwt>
<pdfrwt beam="1">  1        2 0.56317378E-01 0.12542820E+04</pdfrwt>
<pdfrwt beam="2">  1       -2 0.16529558E+00 0.12542820E+04</pdfrwt>
<totfact> 0.19879851E+01</totfact>
</mgrwt>
</event>
<event>
12    1  0.1442183E-007  0.3798436E+04  0.7818608E-02  0.8046491E-01
         -2   -1    0    0    0  501 -0.00000000000E+00  0.00000000000E+00  0.28431904644E+04  0.28431904644E+04  0.00000000000E+00 0.  1.
          2   -1    0    0  501    0  0.00000000000E+00 -0.00000000000E+00 -0.12686553620E+04  0.12686553620E+04  0.00000000000E+00 0. -1.
         23    2    1    2    0    0 -0.53609922928E+01  0.45966294080E+03 -0.11308006922E+04  0.12242081791E+04  0.93041393672E+02 0.  0.
        254    2    1    2    0    0  0.53609922928E+01 -0.45966294080E+03  0.27053357946E+04  0.28876376472E+04  0.89904986556E+03 0.  0.
        -24    2    4    4    0    0 -0.28422996939E+03 -0.46355438424E+03  0.23911075158E+04  0.24534502968E+04  0.79711127403E+02 0.  0.
         24    2    4    4    0    0  0.28959096168E+03  0.38914434471E+01  0.31422827877E+03  0.43418735046E+03  0.76819110216E+02 0.  0.
         13    1    3    3    0    0  0.34709563338E+02  0.25579640551E+03 -0.55578396149E+03  0.61280695714E+03  0.00000000000E+00 0. -1.
        -13    1    3    3    0    0 -0.40070555631E+02  0.20386653528E+03 -0.57501673072E+03  0.61140122199E+03  0.00000000000E+00 0.  1.
          4    1    6    6  502    0  0.13288314959E+03  0.99893846552E+01  0.90952803283E+02  0.16133856227E+03  0.00000000000E+00 0. -1.
          1    1    5    5  503    0 -0.11218202823E+03 -0.24760350801E+03  0.12806189489E+04  0.13091513270E+04  0.00000000000E+00 0. -1.
         -2    1    5    5    0  503 -0.17204794116E+03 -0.21595087624E+03  0.11104885669E+04  0.11442989698E+04  0.00000000000E+00 0.  1.
         -3    1    6    6    0  502  0.15670781209E+03 -0.60979412081E+01  0.22327547549E+03  0.27284878818E+03  0.00000000000E+00 0.  1.
<mgrwt>
<rscale>  0 0.37984359E+04</rscale>
<asrwt>0</asrwt>
<pdfrwt beam="1">  1        2 0.19517775E+00 0.37984359E+04</pdfrwt>
<pdfrwt beam="2">  1       -2 0.43741392E+00 0.37984359E+04</pdfrwt>
<totfact> 0.58116734E-02</totfact>
</mgrwt>
</event>
<event>
12    1  0.1442183E-007  0.2125443E+04  0.7818608E-02  0.8550118E-01
          1   -1    0    0  501    0  0.00000000000E+00  0.00000000000E+00  0.22156811165E+04  0.22156811165E+04  0.00000000000E+00 0. -1.
         -1   -1    0    0    0  501 -0.00000000000E+00 -0.00000000000E+00 -0.50971977416E+03  0.50971977416E+03  0.00000000000E+00 0.  1.
         23    2    1    2    0    0  0.72381648638E+03 -0.44831168517E+03  0.93909287122E+03  0.12711267945E+04  0.94732432689E+02 0.  0.
        254    2    1    2    0    0 -0.72381648638E+03  0.44831168517E+03  0.76686847116E+03  0.14542740962E+04  0.89550668446E+03 0.  0.
        -24    2    4    4    0    0 -0.64960059169E+03 -0.90792794361E+02  0.56144536576E+03  0.86707741199E+03  0.79862878866E+02 0.  0.
         24    2    4    4    0    0 -0.74215894688E+02  0.53910447953E+03  0.20542310541E+03  0.58719668425E+03  0.80371978224E+02 0.  0.
         13    1    3    3    0    0  0.53890312106E+03 -0.30687212091E+03  0.62827015826E+03  0.88278562757E+03  0.00000000000E+00 0. -1.
        -13    1    3    3    0    0  0.18491336532E+03 -0.14143956427E+03  0.31082271295E+03  0.38834116689E+03  0.00000000000E+00 0.  1.
          4    1    6    6  502    0 -0.25311553304E+02  0.34328448361E+02  0.10824478819E+02  0.44003254871E+02  0.00000000000E+00 0. -1.
          3    1    5    5  503    0 -0.11163876647E+03 -0.45783905664E+02  0.93389132483E+02  0.15258083190E+03  0.00000000000E+00 0. -1.
         -4    1    5    5    0  503 -0.53796182522E+03 -0.45008888697E+02  0.46805623327E+03  0.71449658009E+03  0.00000000000E+00 0.  1.
         -3    1    6    6    0  502 -0.48904341384E+02  0.50477603117E+03  0.19459862659E+03  0.54319342938E+03  0.00000000000E+00 0.  1.
<mgrwt>
<rscale>  0 0.21254425E+04</rscale>
<asrwt>0</asrwt>
<pdfrwt beam="1">  1        1 0.34087401E+00 0.21254425E+04</pdfrwt>
<pdfrwt beam="2">  1       -1 0.78418428E-01 0.21254425E+04</pdfrwt>
<totfact> 0.31743130E+00</totfact>
</mgrwt>
</event>
<event>
12    1  0.1442183E-007  0.1287986E+04  0.7818608E-02  0.9039147E-01
          1   -1    0    0  501    0  0.00000000000E+00  0.00000000000E+00  0.68066099016E+03  0.68066099016E+03  0.00000000000E+00 0. -1.
         -1   -1    0    0    0  501 -0.00000000000E+00 -0.00000000000E+00 -0.60930038831E+03  0.60930038831E+03  0.00000000000E+00 0.  1.
         23    2    1    2    0    0 -0.12021190405E+02  0.16138984974E+03  0.28780136711E+03  0.34343950262E+03  0.94498002237E+02 0.  0.
        254    2    1    2    0    0  0.12021190405E+02 -0.16138984974E+03 -0.21644076526E+03  0.94652187586E+03  0.90711954228E+03 0.  0.
        -24    2    4    4    0    0 -0.34263787125E+03 -0.21367731691E+03 -0.36514496575E+03  0.55008967997E+03  0.78797864278E+02 0.  0.
         24    2    4    4    0    0  0.35465906166E+03  0.52287467169E+02  0.14870420049E+03  0.39643219589E+03  0.80799241661E+02 0.  0.
         11    1    3    3    0    0  0.12158292337E+02  0.60394322229E+02  0.19382955235E+03  0.20338434943E+03  0.00000000000E+00 0.  1.
        -11    1    3    3    0    0 -0.24179482742E+02  0.10099552752E+03  0.93971814764E+02  0.14005515319E+03  0.00000000000E+00 0. -1.
          4    1    6    6  502    0  0.86369389570E+02  0.12380270029E+02  0.31281165662E+00  0.87252738592E+02  0.00000000000E+00 0. -1.
          1    1    5    5  503    0 -0.16909865629E+02 -0.62149962576E+01 -0.44958035779E+02  0.48433404951E+02  0.00000000000E+00 0. -1.
         -2    1    5    5    0  503 -0.32572800562E+03 -0.20746232066E+03 -0.32018692998E+03  0.50165627502E+03  0.00000000000E+00 0.  1.
         -3    1    6    6    0  502  0.26828967208E+03  0.39907197140E+02  0.14839138884E+03  0.30917945729E+03  0.00000000000E+00 0.  1.
<mgrwt>
<rscale>  0 0.12879860E+04</rscale>
<asrwt>0</asrwt>
<pdfrwt beam="1">  1        1 0.10471708E+00 0.12879860E+04</pdfrwt>
<pdfrwt beam="2">  1       -1 0.93738522E-01 0.12879860E+04</pdfrwt>
<totfact> 0.30859946E+01</totfact>
</mgrwt>
</event>
<event>
12    1  0.1442183E-007  0.2016175E+04  0.7818608E-02  0.8599095E-01
          1   -1    0    0  501    0  0.00000000000E+00  0.00000000000E+00  0.48618440215E+03  0.48618440215E+03  0.00000000000E+00 0.  1.
         -1   -1    0    0    0  501 -0.00000000000E+00 -0.00000000000E+00 -0.20902371204E+04  0.20902371204E+04  0.00000000000E+00 0. -1.
         23    2    1    2    0    0 -0.65709936591E+03  0.35351764652E+03 -0.26606177973E+03  0.79763548674E+03  0.93162202601E+02 0.  0.
        254    2    1    2    0    0  0.65709936591E+03 -0.35351764652E+03 -0.13379909386E+04  0.17787860358E+04  0.90393899492E+03 0.  0.
        -24    2    4    4    0    0  0.70272562647E+03 -0.29374404658E+03 -0.45873404612E+03  0.89262833981E+03  0.78990866414E+02 0.  0.
         24    2    4    4    0    0 -0.45626260557E+02 -0.59773599942E+02 -0.87925689243E+03  0.88615769601E+03  0.80796908410E+02 0.  0.
         13    1    3    3    0    0 -0.57099161123E+03  0.34003964183E+03 -0.24137650231E+03  0.70705091328E+03  0.00000000000E+00 0.  1.
        -13    1    3    3    0    0 -0.86107754685E+02  0.13478004690E+02 -0.24685277422E+02  0.90584573458E+02  0.00000000000E+00 0. -1.
          4    1    6    6  502    0 -0.51112972927E+02 -0.57193793663E+02 -0.87585136136E+03  0.87920377230E+03  0.00000000000E+00 0. -1.
          1    1    5    5  503    0  0.36302968509E+03 -0.10907380462E+03 -0.22351038783E+03  0.44005061138E+03  0.00000000000E+00 0. -1.
         -2    1    5    5    0  503  0.33969594138E+03 -0.18467024196E+03 -0.23522365829E+03  0.45257772843E+03  0.00000000000E+00 0.  1.
         -3    1    6    6    0  502  0.54867123702E+01 -0.25798062790E+01 -0.34055310728E+01  0.69539237095E+01  0.00000000000E+00 0.  1.
<mgrwt>
<rscale>  0 0.20161753E+04</rscale>
<asrwt>0</asrwt>
<pdfrwt beam="1">  1        1 0.74797600E-01 0.20161753E+04</pdfrwt>
<pdfrwt beam="2">  1       -1 0.32157494E+00 0.20161753E+04</pdfrwt>
<totfact> 0.10211407E+00</totfact>
</mgrwt>
</event>
<event>
12    1  0.1442183E-007  0.2702143E+04  0.7818608E-02  0.8334310E-01
         -1   -1    0    0    0  501 -0.00000000000E+00  0.00000000000E+00  0.12978746481E+04  0.12978746481E+04  0.00000000000E+00 0.  1.
          1   -1    0    0  501    0  0.00000000000E+00 -0.00000000000E+00 -0.14064489141E+04  0.14064489141E+04  0.00000000000E+00 0. -1.
         23    2    1    2    0    0  0.21273377573E+03 -0.59347017963E+03 -0.10610466724E+04  0.12374064262E+04  0.88837544221E+02 0.  0.
        254    2    1    2    0    0 -0.21273377573E+03  0.59347017963E+03  0.95247240632E+03  0.14669171359E+04  0.92042364454E+03 0.  0.
        -24    2    4    4    0    0  0.88426686402E+02  0.59719107029E+03  0.98037469108E+03  0.11542127432E+04  0.81339218229E+02 0.  0.
         24    2    4    4    0    0 -0.30116046213E+03 -0.37208906597E+01 -0.27902284761E+02  0.31270439270E+03  0.79334927602E+02 0.  0.
         11    1    3    3    0    0  0.39891586497E+02 -0.85072356406E+02 -0.10517373762E+03  0.14103247705E+03  0.00000000000E+00 0.  1.
        -11    1    3    3    0    0  0.17284218923E+03 -0.50839782322E+03 -0.95587293474E+03  0.10963739492E+04  0.00000000000E+00 0. -1.
          2    1    6    6  502    0 -0.41218771663E+02  0.19921005685E+02 -0.23935020348E+02  0.51659643862E+02  0.00000000000E+00 0. -1.
          1    1    5    5  503    0  0.40978356134E+02  0.20719083310E+03  0.41618461859E+03  0.46670858546E+03  0.00000000000E+00 0. -1.
         -2    1    5    5    0  503  0.47448330267E+02  0.39000023719E+03  0.56419007249E+03  0.68750415777E+03  0.00000000000E+00 0.  1.
         -1    1    6    6    0  502 -0.25994169047E+03 -0.23641896345E+02 -0.39672644129E+01  0.26104474883E+03  0.00000000000E+00 0.  1.
<mgrwt>
<rscale>  0 0.27021431E+04</rscale>
<asrwt>0</asrwt>
<pdfrwt beam="1">  1        1 0.21637676E+00 0.27021431E+04</pdfrwt>
<pdfrwt beam="2">  1       -1 0.19967302E+00 0.27021431E+04</pdfrwt>
<totfact> 0.10042196E+00</totfact>
</mgrwt>
</event>
<event>
12    1  0.1442183E-007  0.1759367E+04  0.7818608E-02  0.8728211E-01
         -1   -1    0    0    0  501 -0.00000000000E+00  0.00000000000E+00  0.16509945405E+04  0.16509945405E+04  0.00000000000E+00 0.  1.
          1   -1    0    0  501    0  0.00000000000E+00 -0.00000000000E+00 -0.46871311909E+03  0.46871311909E+03  0.00000000000E+00 0. -1.
         23    2    1    2    0    0  0.43879358821E+03  0.32376692606E+03  0.85009269537E+03  0.10140656550E+04  0.91141245077E+02 0.  0.
        254    2    1    2    0    0 -0.43879358821E+03 -0.32376692606E+03  0.33218872604E+03  0.11056420045E+04  0.90262398431E+03 0.  0.
        -24    2    4    4    0    0 -0.69010431986E+03 -0.36239525773E+03  0.21733301656E+03  0.81318659061E+03  0.80402089148E+02 0.  0.
         24    2    4    4    0    0  0.25131073165E+03  0.38628331673E+02  0.11485570948E+03  0.29245541394E+03  0.87687532122E+02 0.  0.
         13    1    3    3    0    0  0.31428136262E+03  0.27879556366E+03  0.66199035187E+03  0.78404780924E+03  0.00000000000E+00 0.  1.
        -13    1    3    3    0    0  0.12451222559E+03  0.44971362401E+02  0.18810234350E+03  0.23001784581E+03  0.00000000000E+00 0. -1.
          4    1    6    6  502    0  0.18735170198E+01 -0.10466301944E+02 -0.45767779503E+01  0.11575855857E+02  0.00000000000E+00 0. -1.
          3    1    5    5  503    0 -0.17503288873E+03 -0.76922511639E+02  0.20571777434E+02  0.19229348133E+03  0.00000000000E+00 0. -1.
         -4    1    5    5    0  503 -0.51507143113E+03 -0.28547274610E+03  0.19676123913E+03  0.62089310928E+03  0.00000000000E+00 0.  1.
         -3    1    6    6    0  502  0.24943721463E+03  0.49094633617E+02  0.11943248744E+03  0.28087955808E+03  0.00000000000E+00 0.  1.
<mgrwt>
<rscale>  0 0.17593667E+04</rscale>
<asrwt>0</asrwt>
<pdfrwt beam="1">  1        1 0.72109712E-01 0.17593667E+04</pdfrwt>
<pdfrwt beam="2">  1       -1 0.25399916E+00 0.17593667E+04</pdfrwt>
<totfact> 0.30118377E+00</totfact>
</mgrwt>
</event>
<event>
12    1  0.1442183E-007  0.1251277E+04  0.7818608E-02  0.9069121E-01
          2   -1    0    0  501    0  0.00000000000E+00  0.00000000000E+00  0.13429605434E+04  0.13429605434E+04  0.00000000000E+00 0. -1.
         -2   -1    0    0    0  501 -0.00000000000E+00 -0.00000000000E+00 -0.29146299001E+03  0.29146299001E+03  0.00000000000E+00 0.  1.
         23    2    1    2    0    0 -0.19747481410E+03  0.73738894268E+02  0.52836690114E+03  0.57628741387E+03  0.92205609566E+02 0.  0.
        254    2    1    2    0    0  0.19747481410E+03 -0.73738894268E+02  0.52313065227E+03  0.10581361196E+04  0.89529472323E+03 0.  0.
        -24    2    4    4    0    0  0.33799936584E+03  0.19420347116E+03  0.61440727689E+03  0.73220150153E+03  0.81634413259E+02 0.  0.
         24    2    4    4    0    0 -0.14052455175E+03 -0.26794236543E+03 -0.91276624615E+02  0.32593461803E+03  0.79760216861E+02 0.  0.
         13    1    3    3    0    0 -0.15916190845E+03  0.95893855163E+02  0.42568080117E+03  0.46446990112E+03  0.00000000000E+00 0. -1.
        -13    1    3    3    0    0 -0.38312905651E+02 -0.22154960894E+02  0.10268609996E+03  0.11181751275E+03  0.00000000000E+00 0.  1.
          2    1    6    6  502    0 -0.42867514357E-01 -0.34983570351E+02  0.87978811506E+01  0.36072908739E+02  0.00000000000E+00 0. -1.
          3    1    5    5  503    0  0.19283012503E+03  0.15505567962E+03  0.39944665191E+03  0.46987588641E+03  0.00000000000E+00 0. -1.
         -4    1    5    5    0  503  0.14516924081E+03  0.39147791545E+02  0.21496062497E+03  0.26232561512E+03  0.00000000000E+00 0.  1.
         -1    1    6    6    0  502 -0.14048168423E+03 -0.23295879508E+03 -0.10007450577E+03  0.28986170929E+03  0.00000000000E+00 0.  1.
<mgrwt>
<rscale>  0 0.12512766E+04</rscale>
<asrwt>0</asrwt>
<pdfrwt beam="1">  1        2 0.20660931E+00 0.12512766E+04</pdfrwt>
<pdfrwt beam="2">  1       -2 0.44840461E-01 0.12512766E+04</pdfrwt>
<totfact> 0.72362140E+01</totfact>
</mgrwt>
</event>
<event>
12    1  0.1442183E-007  0.1913977E+04  0.7818608E-02  0.8647930E-01
         -2   -1    0    0    0  501 -0.00000000000E+00  0.00000000000E+00  0.67244151968E+03  0.67244151968E+03  0.00000000000E+00 0.  1.
          2   -1    0    0  501    0  0.00000000000E+00 -0.00000000000E+00 -0.13619432490E+04  0.13619432490E+04  0.00000000000E+00 0. -1.
         23    2    1    2    0    0 -0.24685699200E+03  0.21923118216E+03  0.38066509747E+03  0.51209292915E+03  0.91282889506E+02 0.  0.
        254    2    1    2    0    0  0.24685699200E+03 -0.21923118216E+03 -0.10701668267E+04  0.15222918395E+04  0.10310745472E+04 0.  0.
        -24    2    4    4    0    0 -0.12424988904E+03 -0.18229536416E+03 -0.11129434148E+04  0.11374409163E+04  0.80368891372E+02 0.  0.
         24    2    4    4    0    0  0.37110688104E+03 -0.36935818005E+02  0.42776588086E+02  0.38485092321E+03  0.84828207588E+02 0.  0.
         11    1    3    3    0    0 -0.10119724738E+03  0.70665574041E+02  0.82307739971E+02  0.14835454253E+03  0.00000000000E+00 0. -1.
        -11    1    3    3    0    0 -0.14565974462E+03  0.14856560812E+03  0.29835735750E+03  0.36373838661E+03  0.00000000000E+00 0.  1.
          2    1    6    6  502    0  0.11786826857E+03 -0.18297110020E+02 -0.25356636883E+02  0.12194536483E+03  0.00000000000E+00 0. -1.
          3    1    5    5  503    0 -0.13429945036E+03 -0.16054358602E+03 -0.95318415673E+03  0.97589478020E+03  0.00000000000E+00 0. -1.
         -4    1    5    5    0  503  0.10049561318E+02 -0.21751778134E+02 -0.15975925810E+03  0.16154613608E+03  0.00000000000E+00 0.  1.
         -1    1    6    6    0  502  0.25323861247E+03 -0.18638707985E+02  0.68133224969E+02  0.26290555838E+03  0.00000000000E+00 0.  1.
<mgrwt>
<rscale>  0 0.19139772E+04</rscale>
<asrwt>0</asrwt>
<pdfrwt beam="1">  1        2 0.20952973E+00 0.19139772E+04</pdfrwt>
<pdfrwt beam="2">  1       -2 0.10345254E+00 0.19139772E+04</pdfrwt>
<totfact> 0.10846549E+01</totfact>
</mgrwt>
</event>
<event>
12    1  0.1442183E-007  0.1969701E+04  0.7818608E-02  0.8620919E-01
         -1   -1    0    0    0  501 -0.00000000000E+00  0.00000000000E+00  0.76513293379E+03  0.76513293379E+03  0.00000000000E+00 0.  1.
          1   -1    0    0  501    0  0.00000000000E+00 -0.00000000000E+00 -0.12676624225E+04  0.12676624225E+04  0.00000000000E+00 0. -1.
         23    2    1    2    0    0 -0.10003351417E+03 -0.46050206284E+03 -0.82777967447E+03  0.95692299115E+03  0.91725501898E+02 0.  0.
        254    2    1    2    0    0  0.10003351417E+03  0.46050206284E+03  0.32525018579E+03  0.10758723651E+04  0.91084840056E+03 0.  0.
        -24    2    4    4    0    0  0.39800902534E+03  0.54776071724E+03  0.11163939249E+03  0.69062773019E+03  0.77783803889E+02 0.  0.
         24    2    4    4    0    0 -0.29797551117E+03 -0.87258654401E+02  0.21361079331E+03  0.38524463492E+03  0.79877278968E+02 0.  0.
         11    1    3    3    0    0 -0.65178527907E+02 -0.42629645058E+03 -0.74373826967E+03  0.85972293098E+03  0.00000000000E+00 0. -1.
        -11    1    3    3    0    0 -0.34854986267E+02 -0.34205612258E+02 -0.84041404795E+02  0.97200060172E+02  0.00000000000E+00 0.  1.
          4    1    6    6  502    0 -0.26004638760E+03 -0.89805654784E+02  0.21177536414E+03  0.34718580643E+03  0.00000000000E+00 0. -1.
          1    1    5    5  503    0  0.37933720730E+03  0.51518915857E+03  0.86870116343E+02  0.64564928798E+03  0.00000000000E+00 0. -1.
         -2    1    5    5    0  503  0.18671818039E+02  0.32571558663E+02  0.24769276145E+02  0.44978442207E+02  0.00000000000E+00 0.  1.
         -3    1    6    6    0  502 -0.37929123567E+02  0.25470003835E+01  0.18354291712E+01  0.38058828487E+02  0.00000000000E+00 0.  1.
<mgrwt>
<rscale>  0 0.19697008E+04</rscale>
<asrwt>0</asrwt>
<pdfrwt beam="1">  1        1 0.19502499E+00 0.19697008E+04</pdfrwt>
<pdfrwt beam="2">  1       -1 0.11771276E+00 0.19697008E+04</pdfrwt>
<totfact> 0.57591318E+00</totfact>
</mgrwt>
</event>
<event>
12    1  0.1442183E-007  0.2122425E+04  0.7818608E-02  0.8551429E-01
         -2   -1    0    0    0  501 -0.00000000000E+00  0.00000000000E+00  0.13476392068E+04  0.13476392068E+04  0.00000000000E+00 0.  1.
          2   -1    0    0  501    0  0.00000000000E+00 -0.00000000000E+00 -0.83566253438E+03  0.83566253438E+03  0.00000000000E+00 0. -1.
         23    2    1    2    0    0 -0.82463610600E+01 -0.70452558003E+03  0.73103583065E+03  0.10193771226E+04  0.91060622443E+02 0.  0.
        254    2    1    2    0    0  0.82463610600E+01  0.70452558003E+03 -0.21905915818E+03  0.11639246186E+04  0.90017182122E+03 0.  0.
        -24    2    4    4    0    0  0.21704847324E+03  0.25035452587E+03 -0.48373554173E+03  0.59169326844E+03  0.79457040062E+02 0.  0.
         24    2    4    4    0    0 -0.20880211218E+03  0.45417105416E+03  0.26467638355E+03  0.57223135021E+03  0.86749418801E+02 0.  0.
         11    1    3    3    0    0  0.33273824544E+02 -0.13391360075E+03  0.13000372170E+03  0.18958103154E+03  0.00000000000E+00 0. -1.
        -11    1    3    3    0    0 -0.41520185604E+02 -0.57061197929E+03  0.60103210895E+03  0.82979609104E+03  0.00000000000E+00 0.  1.
          2    1    6    6  502    0 -0.31892421607E+01  0.78001621766E+02  0.31108605974E+02  0.84036715960E+02  0.00000000000E+00 0. -1.
          1    1    5    5  503    0  0.52355947921E+02  0.57971061164E+02 -0.61856372519E+02  0.99639349839E+02  0.00000000000E+00 0. -1.
         -4    1    5    5    0  503  0.16469252532E+03  0.19238346471E+03 -0.42187916921E+03  0.49205391860E+03  0.00000000000E+00 0.  1.
         -1    1    6    6    0  502 -0.20561287002E+03  0.37616943240E+03  0.23356777758E+03  0.48819463425E+03  0.00000000000E+00 0.  1.
<mgrwt>
<rscale>  0 0.21224246E+04</rscale>
<asrwt>0</asrwt>
<pdfrwt beam="1">  1        2 0.12856347E+00 0.21224246E+04</pdfrwt>
<pdfrwt beam="2">  1       -2 0.20732911E+00 0.21224246E+04</pdfrwt>
<totfact> 0.35585125E+00</totfact>
</mgrwt>
</event>
<event>
12    1  0.1442183E-007  0.2065716E+04  0.7818608E-02  0.8576498E-01
          2   -1    0    0  501    0  0.00000000000E+00  0.00000000000E+00  0.14653862428E+04  0.14653862428E+04  0.00000000000E+00 0. -1.
         -2   -1    0    0    0  501 -0.00000000000E+00 -0.00000000000E+00 -0.72799620223E+03  0.72799620223E+03  0.00000000000E+00 0.  1.
         23    2    1    2    0    0  0.21825769232E+03 -0.60527792210E+03  0.85799773710E+03  0.10764731938E+04  0.92933508045E+02 0.  0.
        254    2    1    2    0    0 -0.21825769232E+03  0.60527792210E+03 -0.12060769658E+03  0.11169092512E+04  0.90495429477E+03 0.  0.
        -24    2    4    4    0    0 -0.36588268191E+03  0.37816949161E+03  0.29956772914E+03  0.61074186704E+03  0.79890565810E+02 0.  0.
         24    2    4    4    0    0  0.14762498959E+03  0.22710843049E+03 -0.42017542572E+03  0.50616738412E+03  0.79288433106E+02 0.  0.
         11    1    3    3    0    0  0.25498079251E+02 -0.16697912830E+02  0.33844688959E+02  0.45545969186E+02  0.00000000000E+00 0.  1.
        -11    1    3    3    0    0  0.19275961307E+03 -0.58858000927E+03  0.82415304814E+03  0.10309272246E+04  0.00000000000E+00 0. -1.
          4    1    6    6  502    0  0.33567990186E+02  0.96869693753E+02 -0.21142427238E+03  0.23496972249E+03  0.00000000000E+00 0. -1.
          1    1    5    5  503    0 -0.41792060149E+01  0.26758121344E+02  0.23299701724E+02  0.35725885870E+02  0.00000000000E+00 0. -1.
         -2    1    5    5    0  503 -0.36170347590E+03  0.35141137027E+03  0.27626802742E+03  0.57501598117E+03  0.00000000000E+00 0.  1.
         -3    1    6    6    0  502  0.11405699940E+03  0.13023873673E+03 -0.20875115333E+03  0.27119766164E+03  0.00000000000E+00 0.  1.
<mgrwt>
<rscale>  0 0.20657160E+04</rscale>
<asrwt>0</asrwt>
<pdfrwt beam="1">  1        2 0.22544404E+00 0.20657160E+04</pdfrwt>
<pdfrwt beam="2">  1       -2 0.11199942E+00 0.20657160E+04</pdfrwt>
<totfact> 0.77193759E+00</totfact>
</mgrwt>
</event>
<event>
12    1  0.1442183E-007  0.1843946E+04  0.7818608E-02  0.8683272E-01
         -1   -1    0    0    0  501 -0.00000000000E+00  0.00000000000E+00  0.27447407962E+03  0.27447407962E+03  0.00000000000E+00 0.  1.
          1   -1    0    0  501    0  0.00000000000E+00 -0.00000000000E+00 -0.30969568571E+04  0.30969568571E+04  0.00000000000E+00 0. -1.
         23    2    1    2    0    0 -0.37088154627E+03  0.46072276094E+03 -0.17600998072E+04  0.18591190014E+04  0.92485385134E+02 0.  0.
        254    2    1    2    0    0  0.37088154627E+03 -0.46072276094E+03 -0.10623829703E+04  0.15123119353E+04  0.89922813023E+03 0.  0.
        -24    2    4    4    0    0 -0.23355751584E+03 -0.25005242557E+03 -0.67130726721E+03  0.75798803007E+03  0.82565598064E+02 0.  0.
         24    2    4    4    0    0  0.60443906211E+03 -0.21067033537E+03 -0.39107570306E+03  0.75432390519E+03  0.79597603014E+02 0.  0.
         11    1    3    3    0    0 -0.36663657241E+03  0.46269026624E+03 -0.17569538796E+04  0.18534809396E+04  0.00000000000E+00 0. -1.
        -11    1    3    3    0    0 -0.42449738622E+01 -0.19675052989E+01 -0.31459275995E+01  0.56380617816E+01  0.00000000000E+00 0.  1.
          2    1    6    6  502    0  0.49930909910E+02  0.44532961615E+01 -0.26465605786E+02  0.56686470173E+02  0.00000000000E+00 0. -1.
          1    1    5    5  503    0 -0.10342576729E+01  0.58214453045E+01 -0.76323915418E+01  0.96546525062E+01  0.00000000000E+00 0. -1.
         -2    1    5    5    0  503 -0.23252325817E+03 -0.25587387087E+03 -0.66367487567E+03  0.74833337757E+03  0.00000000000E+00 0.  1.
         -1    1    6    6    0  502  0.55450815220E+03 -0.21512363153E+03 -0.36461009728E+03  0.69763743502E+03  0.00000000000E+00 0.  1.
<mgrwt>
<rscale>  0 0.18439462E+04</rscale>
<asrwt>0</asrwt>
<pdfrwt beam="1">  1        1 0.47645492E+00 0.18439462E+04</pdfrwt>
<pdfrwt beam="2">  1       -1 0.42226780E-01 0.18439462E+04</pdfrwt>
<totfact> 0.26375753E+00</totfact>
</mgrwt>
</event>
<event>
12    1  0.1442183E-007  0.1590647E+04  0.7818608E-02  0.8826314E-01
          1   -1    0    0  501    0  0.00000000000E+00  0.00000000000E+00  0.73605123440E+03  0.73605123440E+03  0.00000000000E+00 0. -1.
         -1   -1    0    0    0  501 -0.00000000000E+00 -0.00000000000E+00 -0.85936929458E+03  0.85936929458E+03  0.00000000000E+00 0.  1.
         23    2    1    2    0    0  0.39468738765E+03  0.46475833141E+02  0.31669202708E+03  0.51617649867E+03  0.90588082701E+02 0.  0.
        254    2    1    2    0    0 -0.39468738765E+03 -0.46475833141E+02 -0.44001008726E+03  0.10792440303E+04  0.90178748218E+03 0.  0.
        -24    2    4    4    0    0 -0.26442582529E+03 -0.33290170594E+03  0.10483995441E+03  0.44501253233E+03  0.79373641645E+02 0.  0.
         24    2    4    4    0    0 -0.13026156236E+03  0.28642587280E+03 -0.54485004167E+03  0.63423149798E+03  0.79875965618E+02 0.  0.
         13    1    3    3    0    0  0.31171861324E+03  0.36360045906E+02  0.29288404552E+03  0.42926869312E+03  0.00000000000E+00 0. -1.
        -13    1    3    3    0    0  0.82968774414E+02  0.10115787235E+02  0.23807981562E+02  0.86907805548E+02  0.00000000000E+00 0.  1.
          4    1    6    6  502    0  0.43700922448E+01  0.30163030984E+01 -0.36242152193E+02  0.36629078424E+02  0.00000000000E+00 0. -1.
          3    1    5    5  503    0 -0.38134632559E+02 -0.86496381871E+02  0.36800325504E+00  0.94530469710E+02  0.00000000000E+00 0. -1.
         -4    1    5    5    0  503 -0.22629119273E+03 -0.24640532407E+03  0.10447195115E+03  0.35048206262E+03  0.00000000000E+00 0.  1.
         -3    1    6    6    0  502 -0.13463165461E+03  0.28340956970E+03 -0.50860788948E+03  0.59760241956E+03  0.00000000000E+00 0.  1.
<mgrwt>
<rscale>  0 0.15906475E+04</rscale>
<asrwt>0</asrwt>
<pdfrwt beam="1">  1        1 0.11323865E+00 0.15906475E+04</pdfrwt>
<pdfrwt beam="2">  1       -1 0.13221066E+00 0.15906475E+04</pdfrwt>
<totfact> 0.11769687E+01</totfact>
</mgrwt>
</event>
<event>
12    1  0.1442183E-007  0.1838275E+04  0.7818608E-02  0.8686206E-01
         -1   -1    0    0    0  501 -0.00000000000E+00  0.00000000000E+00  0.11838288536E+04  0.11838288536E+04  0.00000000000E+00 0.  1.
          1   -1    0    0  501    0  0.00000000000E+00 -0.00000000000E+00 -0.71362833696E+03  0.71362833696E+03  0.00000000000E+00 0. -1.
         23    2    1    2    0    0  0.12619503904E+03 -0.65780660509E+02 -0.52397356435E+03  0.55039545198E+03  0.90191874626E+02 0.  0.
        254    2    1    2    0    0 -0.12619503904E+03  0.65780660509E+02  0.99417408103E+03  0.13470617386E+04  0.89774213506E+03 0.  0.
        -24    2    4    4    0    0  0.16183723091E+02  0.46358927287E+03  0.42884590564E+03  0.63663399840E+03  0.78848654519E+02 0.  0.
         24    2    4    4    0    0 -0.14237876213E+03 -0.39780861236E+03  0.56532817539E+03  0.71042774021E+03  0.81167876653E+02 0.  0.
         11    1    3    3    0    0 -0.95181827241E+01  0.93132636073E+01 -0.37511489743E+02  0.39805081888E+02  0.00000000000E+00 0.  1.
        -11    1    3    3    0    0  0.13571322176E+03 -0.75093924117E+02 -0.48646207461E+03  0.51059037009E+03  0.00000000000E+00 0. -1.
          4    1    6    6  502    0 -0.84827350753E+02 -0.13420188225E+03  0.24016354928E+03  0.28789643110E+03  0.00000000000E+00 0. -1.
          1    1    5    5  503    0  0.45368340052E+02  0.20662815843E+03  0.18057186438E+03  0.27813608242E+03  0.00000000000E+00 0. -1.
         -4    1    5    5    0  503 -0.29184616961E+02  0.25696111444E+03  0.24827404125E+03  0.35849791598E+03  0.00000000000E+00 0.  1.
         -3    1    6    6    0  502 -0.57551411376E+02 -0.26360673011E+03  0.32516462611E+03  0.42253130912E+03  0.00000000000E+00 0.  1.
<mgrwt>
<rscale>  0 0.18382751E+04</rscale>
<asrwt>0</asrwt>
<pdfrwt beam="1">  1        1 0.10978897E+00 0.18382751E+04</pdfrwt>
<pdfrwt beam="2">  1       -1 0.18212752E+00 0.18382751E+04</pdfrwt>
<totfact> 0.49984566E+00</totfact>
</mgrwt>
</event>
<event>
12    1  0.1608131E-007  0.1767492E+04  0.7818608E-02  0.8723780E-01
         -2   -1    0    0    0  501 -0.00000000000E+00  0.00000000000E+00  0.36069522152E+03  0.36069522152E+03  0.00000000000E+00 0.  1.
          2   -1    0    0  501    0  0.00000000000E+00 -0.00000000000E+00 -0.21652833509E+04  0.21652833509E+04  0.00000000000E+00 0. -1.
         23    2    1    2    0    0  0.22630976757E+03 -0.95601606268E+02 -0.15315694491E+04  0.15537982500E+04  0.90709681856E+02 0.  0.
        254    2    1    2    0    0 -0.22630976757E+03  0.95601606268E+02 -0.27301868026E+03  0.97218032237E+03  0.90013310205E+03 0.  0.
        -24    2    4    4    0    0 -0.35898285762E+03 -0.20633394671E+03  0.13337023930E+03  0.44240880193E+03  0.80594898503E+02 0.  0.
         24    2    4    4    0    0  0.13267309005E+03  0.30193555298E+03 -0.40638891955E+03  0.52977152043E+03  0.82089481351E+02 0.  0.
         11    1    3    3    0    0  0.11733746664E+02  0.15488249715E+02 -0.85455156049E+02  0.87636467211E+02  0.00000000000E+00 0.  1.
        -11    1    3    3    0    0  0.21457602091E+03 -0.11108985598E+03 -0.14461142931E+04  0.14661617828E+04  0.00000000000E+00 0. -1.
          2    1    6    6  502    0  0.83086523208E+00  0.30865010778E+02 -0.11422395077E+02  0.32921274834E+02  0.00000000000E+00 0. -1.
          1    1    5    5  503    0 -0.11022583474E+03 -0.64657517672E+02  0.29428875290E+01  0.12782405808E+03  0.00000000000E+00 0. -1.
         -2    1    5    5    0  503 -0.24875702288E+03 -0.14167642904E+03  0.13042735177E+03  0.31458474386E+03  0.00000000000E+00 0.  1.
         -1    1    6    6    0  502  0.13184222482E+03  0.27107054220E+03 -0.39496652448E+03  0.49685024560E+03  0.00000000000E+00 0.  1.
<mgrwt>
<rscale>  0 0.17674924E+04</rscale>
<asrwt>0</asrwt>
<pdfrwt beam="1">  1        2 0.33312051E+00 0.17674924E+04</pdfrwt>
<pdfrwt beam="2">  1       -2 0.55491573E-01 0.17674924E+04</pdfrwt>
<totfact> 0.15606552E+01</totfact>
</mgrwt>
</event>
<event>
12    1  0.1442183E-007  0.1394010E+04  0.7818608E-02  0.8958166E-01
         -2   -1    0    0    0  501 -0.00000000000E+00  0.00000000000E+00  0.18052792773E+03  0.18052792773E+03  0.00000000000E+00 0.  1.
          2   -1    0    0  501    0  0.00000000000E+00 -0.00000000000E+00 -0.26910866267E+04  0.26910866267E+04  0.00000000000E+00 0. -1.
         23    2    1    2    0    0 -0.13604881465E+03 -0.37500190989E+03 -0.85538898472E+03  0.94856166934E+03  0.94568562361E+02 0.  0.
        254    2    1    2    0    0  0.13604881465E+03  0.37500190989E+03 -0.16551697143E+04  0.19230528851E+04  0.89409725616E+03 0.  0.
        -24    2    4    4    0    0 -0.34260290374E+03  0.21070799762E+03 -0.42496253433E+03  0.59047585057E+03  0.79334510815E+02 0.  0.
         24    2    4    4    0    0  0.47865171839E+03  0.16429391227E+03 -0.12302071800E+04  0.13325770346E+04  0.79068895572E+02 0.  0.
         13    1    3    3    0    0 -0.89741435292E+02 -0.32333563043E+03 -0.64560882562E+03  0.72760580731E+03  0.00000000000E+00 0. -1.
        -13    1    3    3    0    0 -0.46307379355E+02 -0.51666279455E+02 -0.20978015910E+03  0.22095586204E+03  0.00000000000E+00 0.  1.
          4    1    6    6  502    0  0.10218590834E+03  0.54675976257E+01 -0.21059582160E+03  0.23414195387E+03  0.00000000000E+00 0. -1.
          3    1    5    5  503    0 -0.16180844275E+02 -0.69627394531E+01 -0.17686272068E+02  0.24962044825E+02  0.00000000000E+00 0. -1.
         -4    1    5    5    0  503 -0.32642205947E+03  0.21767073707E+03 -0.40727626226E+03  0.56551380574E+03  0.00000000000E+00 0.  1.
         -3    1    6    6    0  502  0.37646581005E+03  0.15882631464E+03 -0.10196113584E+04  0.10984350807E+04  0.00000000000E+00 0.  1.
<mgrwt>
<rscale>  0 0.13940105E+04</rscale>
<asrwt>0</asrwt>
<pdfrwt beam="1">  1        2 0.41401333E+00 0.13940105E+04</pdfrwt>
<pdfrwt beam="2">  1       -2 0.27773527E-01 0.13940105E+04</pdfrwt>
<totfact> 0.31146800E+01</totfact>
</mgrwt>
</event>
<event>
12    1  0.1442183E-007  0.2410459E+04  0.7818608E-02  0.8435598E-01
         -2   -1    0    0    0  501 -0.00000000000E+00  0.00000000000E+00  0.13641102005E+04  0.13641102005E+04  0.00000000000E+00 0.  1.
          2   -1    0    0  501    0  0.00000000000E+00 -0.00000000000E+00 -0.10648536182E+04  0.10648536182E+04  0.00000000000E+00 0. -1.
         23    2    1    2    0    0  0.78606674105E+03 -0.61048699821E+03  0.42931775706E+03  0.10878429898E+04  0.92159305147E+02 0.  0.
        254    2    1    2    0    0 -0.78606674105E+03  0.61048699821E+03 -0.13006117478E+03  0.13411208289E+04  0.88943457996E+03 0.  0.
        -24    2    4    4    0    0  0.77436272054E+02  0.54165882447E+02  0.22233133992E+03  0.25206258989E+03  0.71930559987E+02 0.  0.
         24    2    4    4    0    0 -0.86350301310E+03  0.55632111576E+03 -0.35239251470E+03  0.10890582390E+04  0.82077560674E+02 0.  0.
         13    1    3    3    0    0  0.18142325287E+02 -0.53007156412E+01  0.21064312765E+02  0.28301003964E+02  0.00000000000E+00 0. -1.
        -13    1    3    3    0    0  0.76792441576E+03 -0.60518628256E+03  0.40825344429E+03  0.10595419858E+04  0.00000000000E+00 0.  1.
          2    1    6    6  502    0 -0.26950422227E+03  0.15597603964E+03 -0.14380959234E+03  0.34299015965E+03  0.00000000000E+00 0. -1.
          3    1    5    5  503    0  0.70020124696E+02  0.56607726898E+02  0.22611747883E+03  0.24338522313E+03  0.00000000000E+00 0. -1.
         -4    1    5    5    0  503  0.74161473583E+01 -0.24418444514E+01 -0.37861389105E+01  0.86773667558E+01  0.00000000000E+00 0.  1.
         -1    1    6    6    0  502 -0.59399879083E+03  0.40034507612E+03 -0.20858292236E+03  0.74606807932E+03  0.00000000000E+00 0.  1.
<mgrwt>
<rscale>  0 0.24104586E+04</rscale>
<asrwt>0</asrwt>
<pdfrwt beam="1">  1        2 0.16382363E+00 0.24104586E+04</pdfrwt>
<pdfrwt beam="2">  1       -2 0.20986311E+00 0.24104586E+04</pdfrwt>
<totfact> 0.23615544E+00</totfact>
</mgrwt>
</event>
<event>
12    1  0.1442183E-007  0.1816854E+04  0.7818608E-02  0.8697388E-01
          1   -1    0    0  501    0  0.00000000000E+00  0.00000000000E+00  0.18109935068E+04  0.18109935068E+04  0.00000000000E+00 0. -1.
         -1   -1    0    0    0  501 -0.00000000000E+00 -0.00000000000E+00 -0.45568345707E+03  0.45568345707E+03  0.00000000000E+00 0.  1.
         23    2    1    2    0    0  0.56989882235E+03  0.23828856346E+03  0.26190211710E+03  0.67696031948E+03  0.90091331599E+02 0.  0.
        254    2    1    2    0    0 -0.56989882235E+03 -0.23828856346E+03  0.10934079326E+04  0.15897166444E+04  0.97472662583E+03 0.  0.
        -24    2    4    4    0    0  0.20633998995E+03  0.88311651569E+02  0.50715034123E+03  0.56040056962E+03  0.80449925862E+02 0.  0.
         24    2    4    4    0    0 -0.77623881229E+03 -0.32660021503E+03  0.58625759137E+03  0.10293160747E+04  0.81112416480E+02 0.  0.
         13    1    3    3    0    0  0.20141955346E+03  0.43176453533E+02  0.66224292116E+02  0.21637860228E+03  0.00000000000E+00 0. -1.
        -13    1    3    3    0    0  0.36847926888E+03  0.19511210992E+03  0.19567782498E+03  0.46058171721E+03  0.00000000000E+00 0.  1.
          2    1    6    6  502    0 -0.21124944593E+03 -0.55065510446E+02  0.13112067074E+03  0.25465892707E+03  0.00000000000E+00 0. -1.
          3    1    5    5  503    0  0.42104088806E+02 -0.12140243954E+02  0.67893187377E+02  0.80806093270E+02  0.00000000000E+00 0. -1.
         -4    1    5    5    0  503  0.16423590114E+03  0.10045189552E+03  0.43925715385E+03  0.47959447635E+03  0.00000000000E+00 0.  1.
         -1    1    6    6    0  502 -0.56498936637E+03 -0.27153470458E+03  0.45513692063E+03  0.77465714766E+03  0.00000000000E+00 0.  1.
<mgrwt>
<rscale>  0 0.18168542E+04</rscale>
<asrwt>0</asrwt>
<pdfrwt beam="1">  1        1 0.27861438E+00 0.18168542E+04</pdfrwt>
<pdfrwt beam="2">  1       -1 0.70105148E-01 0.18168542E+04</pdfrwt>
<totfact> 0.77607439E+00</totfact>
</mgrwt>
</event>
<event>
12    1  0.1442183E-007  0.2045595E+04  0.7818608E-02  0.8585595E-01
          1   -1    0    0  501    0  0.00000000000E+00  0.00000000000E+00  0.58666518927E+03  0.58666518927E+03  0.00000000000E+00 0. -1.
         -1   -1    0    0    0  501 -0.00000000000E+00 -0.00000000000E+00 -0.17831546779E+04  0.17831546779E+04  0.00000000000E+00 0.  1.
         23    2    1    2    0    0 -0.65639884323E+02 -0.87242155345E+02  0.45848131942E+03  0.48062871115E+03  0.94228709208E+02 0.  0.
        254    2    1    2    0    0  0.65639884323E+02  0.87242155345E+02 -0.16549708080E+04  0.18891911560E+04  0.90454135363E+03 0.  0.
        -24    2    4    4    0    0 -0.13241955486E+03 -0.30296878340E+03 -0.12222109406E+04  0.12686638180E+04  0.79895417322E+02 0.  0.
         24    2    4    4    0    0  0.19805943918E+03  0.39021093874E+03 -0.43275986746E+03  0.62052733798E+03  0.79252483453E+02 0.  0.
         13    1    3    3    0    0 -0.49228345779E+02 -0.30921119196E+02  0.87587937043E+02  0.10512465151E+03  0.00000000000E+00 0.  1.
        -13    1    3    3    0    0 -0.16411538545E+02 -0.56321036149E+02  0.37089338238E+03  0.37550405964E+03  0.00000000000E+00 0. -1.
          4    1    6    6  502    0  0.43840344962E+02  0.14638854269E+03 -0.18734996973E+03  0.24176764141E+03  0.00000000000E+00 0. -1.
          1    1    5    5  503    0 -0.48791215298E+02 -0.17728852729E+03 -0.78052733650E+03  0.80189446164E+03  0.00000000000E+00 0. -1.
         -2    1    5    5    0  503 -0.83628339563E+02 -0.12568025611E+03 -0.44168360407E+03  0.46676935638E+03  0.00000000000E+00 0.  1.
         -3    1    6    6    0  502  0.15421909422E+03  0.24382239606E+03 -0.24540989774E+03  0.37875969657E+03  0.00000000000E+00 0.  1.
<mgrwt>
<rscale>  0 0.20455950E+04</rscale>
<asrwt>0</asrwt>
<pdfrwt beam="1">  1        1 0.90256183E-01 0.20455950E+04</pdfrwt>
<pdfrwt beam="2">  1       -1 0.27433149E+00 0.20455950E+04</pdfrwt>
<totfact> 0.15836356E+00</totfact>
</mgrwt>
</event>
<event>
12    1  0.1442183E-007  0.1787019E+04  0.7818608E-02  0.8713233E-01
         -2   -1    0    0    0  501 -0.00000000000E+00  0.00000000000E+00  0.43941795085E+03  0.43941795085E+03  0.00000000000E+00 0. -1.
          2   -1    0    0  501    0  0.00000000000E+00 -0.00000000000E+00 -0.18168555959E+04  0.18168555959E+04  0.00000000000E+00 0.  1.
         23    2    1    2    0    0  0.44879900663E+03 -0.40818983333E+03 -0.17206233490E+03  0.63701840280E+03  0.90263558717E+02 0.  0.
        254    2    1    2    0    0 -0.44879900663E+03  0.40818983333E+03 -0.12053753101E+04  0.16192551439E+04  0.89499614215E+03 0.  0.
        -24    2    4    4    0    0 -0.71503011238E+03  0.30932189210E+03 -0.81591559502E+03  0.11309965985E+04  0.80541623315E+02 0.  0.
         24    2    4    4    0    0  0.26623110575E+03  0.98867941231E+02 -0.38945971508E+03  0.48825854540E+03  0.77869544840E+02 0.  0.
         11    1    3    3    0    0  0.41440445305E+03 -0.34256262418E+03 -0.16587046822E+03  0.56266616606E+03  0.00000000000E+00 0. -1.
        -11    1    3    3    0    0  0.34394553577E+02 -0.65627209148E+02 -0.61918666805E+01  0.74352236747E+02  0.00000000000E+00 0.  1.
          4    1    6    6  502    0  0.20367681422E+03  0.43488797589E+02 -0.30614275453E+03  0.37026869475E+03  0.00000000000E+00 0. -1.
          1    1    5    5  503    0 -0.70653316810E+03  0.31262860906E+03 -0.81266633341E+03  0.11213172318E+04  0.00000000000E+00 0. -1.
         -2    1    5    5    0  503 -0.84969442789E+01 -0.33067169585E+01 -0.32492616066E+01  0.96793667206E+01  0.00000000000E+00 0.  1.
         -3    1    6    6    0  502  0.62554291527E+02  0.55379143642E+02 -0.83316960557E+02  0.11798985065E+03  0.00000000000E+00 0.  1.
<mgrwt>
<rscale>  0 0.17870187E+04</rscale>
<asrwt>0</asrwt>
<pdfrwt beam="1">  1        2 0.27951625E+00 0.17870187E+04</pdfrwt>
<pdfrwt beam="2">  1       -2 0.67602761E-01 0.17870187E+04</pdfrwt>
<totfact> 0.16004036E+01</totfact>
</mgrwt>
</event>
<event>
12    1  0.1442183E-007  0.1386482E+04  0.7818608E-02  0.8963662E-01
          1   -1    0    0  501    0  0.00000000000E+00  0.00000000000E+00  0.15609499130E+04  0.15609499130E+04  0.00000000000E+00 0. -1.
         -1   -1    0    0    0  501 -0.00000000000E+00 -0.00000000000E+00 -0.30787842709E+03  0.30787842709E+03  0.00000000000E+00 0.  1.
         23    2    1    2    0    0  0.11851451813E+03  0.37970671364E+02 -0.14531517217E+03  0.21083434726E+03  0.88584196276E+02 0.  0.
        254    2    1    2    0    0 -0.11851451813E+03 -0.37970671364E+02  0.13983866581E+04  0.16579939928E+04  0.88202685440E+03 0.  0.
        -24    2    4    4    0    0 -0.15107158815E+03 -0.16025022002E+03 -0.16972618789E+02  0.23467408959E+03  0.79253395968E+02 0.  0.
         24    2    4    4    0    0  0.32557070027E+02  0.12227954866E+03  0.14153592769E+04  0.14233199032E+04  0.81150560873E+02 0.  0.
         13    1    3    3    0    0  0.34280198335E+02  0.43775097588E+02 -0.10144674955E+03  0.11568420013E+03  0.00000000000E+00 0. -1.
        -13    1    3    3    0    0  0.84234319792E+02 -0.58044262241E+01 -0.43868422628E+02  0.95150147128E+02  0.00000000000E+00 0.  1.
          4    1    6    6  502    0  0.58470806386E+02  0.10099005571E+03  0.11196846800E+04  0.11257493545E+04  0.00000000000E+00 0. -1.
          1    1    5    5  503    0 -0.11710579797E+03 -0.12364033452E+03  0.21480782824E+02  0.17164534444E+03  0.00000000000E+00 0. -1.
         -4    1    5    5    0  503 -0.33965790184E+02 -0.36609885502E+02 -0.38453401613E+02  0.63028745147E+02  0.00000000000E+00 0.  1.
         -3    1    6    6    0  502 -0.25913736359E+02  0.21289492945E+02  0.29567459687E+03  0.29757054874E+03  0.00000000000E+00 0.  1.
<mgrwt>
<rscale>  0 0.13864816E+04</rscale>
<asrwt>0</asrwt>
<pdfrwt beam="1">  1        1 0.24014614E+00 0.13864816E+04</pdfrwt>
<pdfrwt beam="2">  1       -1 0.47365913E-01 0.13864816E+04</pdfrwt>
<totfact> 0.25772325E+01</totfact>
</mgrwt>
</event>
<event>
12    1  0.1442183E-007  0.2138857E+04  0.7818608E-02  0.8544317E-01
          2   -1    0    0  501    0  0.00000000000E+00  0.00000000000E+00  0.32526177593E+04  0.32526177593E+04  0.00000000000E+00 0. -1.
         -2   -1    0    0    0  501 -0.00000000000E+00 -0.00000000000E+00 -0.35161735854E+03  0.35161735854E+03  0.00000000000E+00 0.  1.
         23    2    1    2    0    0 -0.18403145174E+03 -0.48104757765E+03 -0.12202548307E+01  0.52619279208E+03  0.10771730696E+03 0.  0.
        254    2    1    2    0    0  0.18403145174E+03  0.48104757765E+03  0.29022206556E+04  0.30780423258E+04  0.88667100906E+03 0.  0.
        -24    2    4    4    0    0  0.20402804171E+03  0.38065498352E+03  0.29145632221E+04  0.29474409190E+04  0.78762534288E+02 0.  0.
         24    2    4    4    0    0 -0.19996589963E+02  0.10039259413E+03 -0.12342566532E+02  0.13060140680E+03  0.80161411803E+02 0.  0.
         11    1    3    3    0    0 -0.23994501497E+02 -0.25152573380E+02  0.24199672586E+02  0.42355781223E+02  0.00000000000E+00 0. -1.
        -11    1    3    3    0    0 -0.16003695025E+03 -0.45589500427E+03 -0.25419927416E+02  0.48383701085E+03  0.00000000000E+00 0.  1.
          2    1    6    6  502    0 -0.38196176896E+01 -0.88535914287E+01 -0.17568238215E+02  0.20040423011E+02  0.00000000000E+00 0. -1.
          3    1    5    5  503    0  0.33741934052E+02  0.11971060464E+03  0.68345877311E+03  0.69468341100E+03  0.00000000000E+00 0. -1.
         -4    1    5    5    0  503  0.17028610766E+03  0.26094437888E+03  0.22311044490E+04  0.22527575080E+04  0.00000000000E+00 0.  1.
         -1    1    6    6    0  502 -0.16176972274E+02  0.10924618556E+03  0.52256716834E+01  0.11056098378E+03  0.00000000000E+00 0.  1.
<mgrwt>
<rscale>  0 0.21388566E+04</rscale>
<asrwt>0</asrwt>
<pdfrwt beam="1">  1        2 0.50040271E+00 0.21388566E+04</pdfrwt>
<pdfrwt beam="2">  1       -2 0.54094980E-01 0.21388566E+04</pdfrwt>
<totfact> 0.35497918E+00</totfact>
</mgrwt>
</event>
<event>
12    1  0.1442183E-007  0.2769286E+04  0.7818608E-02  0.8312868E-01
         -2   -1    0    0    0  501 -0.00000000000E+00  0.00000000000E+00  0.10417399507E+04  0.10417399507E+04  0.00000000000E+00 0.  1.
          2   -1    0    0  501    0  0.00000000000E+00 -0.00000000000E+00 -0.18404167601E+04  0.18404167601E+04  0.00000000000E+00 0. -1.
         23    2    1    2    0    0  0.23033230756E+03 -0.44260420832E+03 -0.15362805886E+04  0.16176069599E+04  0.86849137229E+02 0.  0.
        254    2    1    2    0    0 -0.23033230756E+03  0.44260420832E+03  0.73760377920E+03  0.12645497509E+04  0.89781695256E+03 0.  0.
        -24    2    4    4    0    0 -0.16198067949E+03 -0.13266355280E+03 -0.97740768899E+02  0.24489304574E+03  0.81129447014E+02 0.  0.
         24    2    4    4    0    0 -0.68351628069E+02  0.57526776113E+03  0.83534454810E+03  0.10196567052E+04  0.79336878633E+02 0.  0.
         11    1    3    3    0    0  0.19864068560E+03 -0.32422851424E+03 -0.10725061699E+04  0.11379155223E+04  0.00000000000E+00 0. -1.
        -11    1    3    3    0    0  0.31691621963E+02 -0.11837569408E+03 -0.46377441874E+03  0.47969143763E+03  0.00000000000E+00 0.  1.
          2    1    6    6  502    0 -0.13442294698E+02  0.13153917480E+03  0.25297872481E+03  0.28544961902E+03  0.00000000000E+00 0. -1.
          3    1    5    5  503    0 -0.10927213656E+03 -0.50477032348E+02 -0.24489784777E+02  0.12283354665E+03  0.00000000000E+00 0. -1.
         -4    1    5    5    0  503 -0.52708542930E+02 -0.82186520455E+02 -0.73250984122E+02  0.12205949909E+03  0.00000000000E+00 0.  1.
         -1    1    6    6    0  502 -0.54909333371E+02  0.44372858633E+03  0.58236582329E+03  0.73420708615E+03  0.00000000000E+00 0.  1.
<mgrwt>
<rscale>  0 0.27692856E+04</rscale>
<asrwt>0</asrwt>
<pdfrwt beam="1">  1        2 0.28314104E+00 0.27692856E+04</pdfrwt>
<pdfrwt beam="2">  1       -2 0.16026769E+00 0.27692856E+04</pdfrwt>
<totfact> 0.17926467E+00</totfact>
</mgrwt>
</event>
<event>
12    1  0.1442183E-007  0.1732080E+04  0.7818608E-02  0.8743277E-01
          2   -1    0    0  501    0  0.00000000000E+00  0.00000000000E+00  0.29420779918E+04  0.29420779918E+04  0.00000000000E+00 0. -1.
         -2   -1    0    0    0  501 -0.00000000000E+00 -0.00000000000E+00 -0.25493034053E+03  0.25493034053E+03  0.00000000000E+00 0.  1.
         23    2    1    2    0    0  0.58518881384E+02 -0.14824200407E+03  0.21176903533E+04  0.21254931232E+04  0.87797681215E+02 0.  0.
        254    2    1    2    0    0 -0.58518881384E+02  0.14824200407E+03  0.56945729790E+03  0.10715152091E+04  0.89356761243E+03 0.  0.
        -24    2    4    4    0    0  0.23831344526E+03  0.14216790710E+03  0.68439060942E+03  0.74293658394E+03  0.80989193735E+02 0.  0.
         24    2    4    4    0    0 -0.29683232664E+03  0.60740969716E+01 -0.11493331151E+03  0.32857862518E+03  0.81289126184E+02 0.  0.
         13    1    3    3    0    0  0.37694707913E+02 -0.15474035223E+03  0.17865229741E+04  0.17936080410E+04  0.00000000000E+00 0. -1.
        -13    1    3    3    0    0  0.20824173470E+02  0.64983481652E+01  0.33116737923E+03  0.33188508222E+03  0.00000000000E+00 0.  1.
          4    1    6    6  502    0 -0.32554446518E+02 -0.20033838057E+02  0.22890245746E+01  0.38293423572E+02  0.00000000000E+00 0. -1.
          3    1    5    5  503    0  0.44092054764E+02  0.49837296629E+02  0.24298508086E+03  0.25193176645E+03  0.00000000000E+00 0. -1.
         -4    1    5    5    0  503  0.19422139049E+03  0.92330610469E+02  0.44140552856E+03  0.49100481749E+03  0.00000000000E+00 0.  1.
         -3    1    6    6    0  502 -0.26427788012E+03  0.26107935028E+02 -0.11722233609E+03  0.29028520161E+03  0.00000000000E+00 0.  1.
<mgrwt>
<rscale>  0 0.17320796E+04</rscale>
<asrwt>0</asrwt>
<pdfrwt beam="1">  1        2 0.45262736E+00 0.17320796E+04</pdfrwt>
<pdfrwt beam="2">  1       -2 0.39220054E-01 0.17320796E+04</pdfrwt>
<totfact> 0.11084731E+01</totfact>
</mgrwt>
</event>
<event>
12    1  0.1442183E-007  0.1218239E+04  0.7818608E-02  0.9097040E-01
          1   -1    0    0  501    0  0.00000000000E+00  0.00000000000E+00  0.12437366013E+04  0.12437366013E+04  0.00000000000E+00 0. -1.
         -1   -1    0    0    0  501 -0.00000000000E+00 -0.00000000000E+00 -0.29831592273E+03  0.29831592273E+03  0.00000000000E+00 0.  1.
         23    2    1    2    0    0 -0.16764024077E+03  0.90532989252E+02  0.44528952133E+03  0.49244533644E+03  0.88995388150E+02 0.  0.
        254    2    1    2    0    0  0.16764024077E+03 -0.90532989252E+02  0.50013115726E+03  0.10496071876E+04  0.90290896625E+03 0.  0.
        -24    2    4    4    0    0 -0.94720203165E+02 -0.43647382516E+03  0.12876527231E+03  0.47211062683E+03  0.82623433015E+02 0.  0.
         24    2    4    4    0    0  0.26236044393E+03  0.34594083590E+03  0.37136588496E+03  0.57749656077E+03  0.84152199649E+02 0.  0.
         11    1    3    3    0    0  0.48347553232E+01 -0.93641925418E+01  0.30109013262E+02  0.31900088411E+02  0.00000000000E+00 0.  1.
        -11    1    3    3    0    0 -0.17247499609E+03  0.99897181793E+02  0.41518050807E+03  0.46054524803E+03  0.00000000000E+00 0. -1.
          2    1    6    6  502    0  0.38325983086E+02  0.44680886760E+02  0.93239259992E+02  0.11026704959E+03  0.00000000000E+00 0. -1.
          1    1    5    5  503    0 -0.50941797858E+02 -0.96079857421E+02  0.11152917141E+02  0.10931968410E+03  0.00000000000E+00 0. -1.
         -2    1    5    5    0  503 -0.43778405306E+02 -0.34039396773E+03  0.11761235517E+03  0.36279094273E+03  0.00000000000E+00 0.  1.
         -1    1    6    6    0  502  0.22403446085E+03  0.30125994914E+03  0.27812662496E+03  0.46722951118E+03  0.00000000000E+00 0.  1.
<mgrwt>
<rscale>  0 0.12182388E+04</rscale>
<asrwt>0</asrwt>
<pdfrwt beam="1">  1        1 0.19134409E+00 0.12182388E+04</pdfrwt>
<pdfrwt beam="2">  1       -1 0.45894758E-01 0.12182388E+04</pdfrwt>
<totfact> 0.46311242E+01</totfact>
</mgrwt>
</event>
<event>
12    1  0.1442183E-007  0.1855335E+04  0.7818608E-02  0.8677414E-01
          1   -1    0    0  501    0  0.00000000000E+00  0.00000000000E+00  0.17602101433E+04  0.17602101433E+04  0.00000000000E+00 0. -1.
         -1   -1    0    0    0  501 -0.00000000000E+00 -0.00000000000E+00 -0.48890035868E+03  0.48890035868E+03  0.00000000000E+00 0.  1.
         23    2    1    2    0    0 -0.74000268834E+02 -0.12053988249E+03  0.13216218269E+04  0.13347600260E+04  0.12204167551E+03 0.  0.
        254    2    1    2    0    0  0.74000268834E+02  0.12053988249E+03 -0.50312042305E+02  0.91435047598E+03  0.90194212024E+03 0.  0.
        -24    2    4    4    0    0 -0.35054270075E+03  0.18128734473E+03  0.15434385419E+03  0.43127451276E+03  0.80189735104E+02 0.  0.
         24    2    4    4    0    0  0.42454296959E+03 -0.60747462241E+02 -0.20465589649E+03  0.48307596322E+03  0.86898579259E+02 0.  0.
         11    1    3    3    0    0  0.10576899742E+02 -0.19914718880E+02  0.65025736218E+03  0.65064821825E+03  0.00000000000E+00 0.  1.
        -11    1    3    3    0    0 -0.84577168576E+02 -0.10062516361E+03  0.67136446471E+03  0.68411180773E+03  0.00000000000E+00 0. -1.
          4    1    6    6  502    0  0.15134409753E+03 -0.64107743120E+02 -0.77357382102E+02  0.18165627749E+03  0.00000000000E+00 0. -1.
          1    1    5    5  503    0 -0.43364006873E+02  0.21237178927E+01  0.36277063587E+02  0.56577138600E+02  0.00000000000E+00 0. -1.
         -2    1    5    5    0  503 -0.30717869388E+03  0.17916362684E+03  0.11806679060E+03  0.37469737416E+03  0.00000000000E+00 0.  1.
         -3    1    6    6    0  502  0.27319887205E+03  0.33602808793E+01 -0.12729851439E+03  0.30141968573E+03  0.00000000000E+00 0.  1.
<mgrwt>
<rscale>  0 0.18553354E+04</rscale>
<asrwt>0</asrwt>
<pdfrwt beam="1">  1        1 0.27080156E+00 0.18553354E+04</pdfrwt>
<pdfrwt beam="2">  1       -1 0.75215441E-01 0.18553354E+04</pdfrwt>
<totfact> 0.72367369E+00</totfact>
</mgrwt>
</event>
<event>
12    1  0.1442183E-007  0.1765208E+04  0.7818608E-02  0.8725023E-01
         -2   -1    0    0    0  501 -0.00000000000E+00  0.00000000000E+00  0.28815258174E+03  0.28815258174E+03  0.00000000000E+00 0.  1.
          2   -1    0    0  501    0  0.00000000000E+00 -0.00000000000E+00 -0.27033930312E+04  0.27033930312E+04  0.00000000000E+00 0. -1.
         23    2    1    2    0    0 -0.26570409656E+01 -0.22105898992E+03  0.14055724919E+03  0.27694031176E+03  0.89807901026E+02 0.  0.
        254    2    1    2    0    0  0.26570409656E+01  0.22105898992E+03 -0.25557976987E+04  0.27146053012E+04  0.88775330350E+03 0.  0.
        -24    2    4    4    0    0 -0.11894173193E+03  0.42455796190E+03 -0.23454193619E+04  0.23878691185E+04  0.80810553148E+02 0.  0.
         24    2    4    4    0    0  0.12159877289E+03 -0.20349897197E+03 -0.21037833682E+03  0.32673618271E+03  0.79368730141E+02 0.  0.
         11    1    3    3    0    0 -0.33371381055E+02 -0.19562129319E+03  0.11180114076E+03  0.22777364750E+03  0.00000000000E+00 0.  1.
        -11    1    3    3    0    0  0.30714340090E+02 -0.25437696737E+02  0.28756108427E+02  0.49166664259E+02  0.00000000000E+00 0. -1.
          2    1    6    6  502    0  0.10526219057E+03 -0.11016280350E+03 -0.10512461165E+03  0.18511390011E+03  0.00000000000E+00 0. -1.
          3    1    5    5  503    0 -0.12762900999E+03  0.41250898956E+03 -0.22227353072E+04  0.22642890886E+04  0.00000000000E+00 0. -1.
         -4    1    5    5    0  503  0.86872780665E+01  0.12048972339E+02 -0.12268405467E+03  0.12358002996E+03  0.00000000000E+00 0.  1.
         -3    1    6    6    0  502  0.16336582326E+02 -0.93336168471E+02 -0.10525372517E+03  0.14162228260E+03  0.00000000000E+00 0.  1.
<mgrwt>
<rscale>  0 0.17652078E+04</rscale>
<asrwt>0</asrwt>
<pdfrwt beam="1">  1        2 0.41590663E+00 0.17652078E+04</pdfrwt>
<pdfrwt beam="2">  1       -2 0.44331165E-01 0.17652078E+04</pdfrwt>
<totfact> 0.12102508E+01</totfact>
</mgrwt>
</event>
<event>
12    1  0.1442183E-007  0.3913132E+04  0.7818608E-02  0.8022304E-01
          2   -1    0    0  501    0  0.00000000000E+00  0.00000000000E+00  0.25198363653E+04  0.25198363653E+04  0.00000000000E+00 0. -1.
         -2   -1    0    0    0  501 -0.00000000000E+00 -0.00000000000E+00 -0.15192058081E+04  0.15192058081E+04  0.00000000000E+00 0.  1.
         23    2    1    2    0    0  0.41694275843E+03  0.17154064979E+04  0.10622202947E+04  0.20623629032E+04  0.92563886606E+02 0.  0.
        254    2    1    2    0    0 -0.41694275843E+03 -0.17154064979E+04 -0.61589737494E+02  0.19766792702E+04  0.88713410736E+03 0.  0.
        -24    2    4    4    0    0 -0.50542295545E+03 -0.17009001255E+04 -0.20985295229E+03  0.17885701491E+04  0.80195485369E+02 0.  0.
         24    2    4    4    0    0  0.88480197023E+02 -0.14506372453E+02  0.14826321480E+03  0.18810912109E+03  0.73238517659E+02 0.  0.
         11    1    3    3    0    0  0.20379066236E+03  0.70740069759E+03  0.48193402997E+03  0.87989021489E+03  0.00000000000E+00 0. -1.
        -11    1    3    3    0    0  0.21315209607E+03  0.10080058003E+04  0.58028626468E+03  0.11824726883E+04  0.00000000000E+00 0.  1.
          2    1    6    6  502    0  0.75410055889E+02  0.20521232862E+02  0.94605876938E+02  0.12271132580E+03  0.00000000000E+00 0. -1.
          1    1    5    5  503    0 -0.39977037350E+03 -0.12193322693E+04 -0.15083276470E+03  0.12920286597E+04  0.00000000000E+00 0. -1.
         -2    1    5    5    0  503 -0.10565258196E+03 -0.48156785617E+03 -0.59020187589E+02  0.49654148942E+03  0.00000000000E+00 0.  1.
         -1    1    6    6    0  502  0.13070141134E+02 -0.35027605316E+02  0.53657337859E+02  0.65397795295E+02  0.00000000000E+00 0.  1.
<mgrwt>
<rscale>  0 0.39131318E+04</rscale>
<asrwt>0</asrwt>
<pdfrwt beam="1">  1        2 0.38766713E+00 0.39131318E+04</pdfrwt>
<pdfrwt beam="2">  1       -2 0.23372397E+00 0.39131318E+04</pdfrwt>
<totfact> 0.21823604E-01</totfact>
</mgrwt>
</event>
<event>
12    1  0.1442183E-007  0.1198566E+04  0.7818608E-02  0.9114113E-01
          2   -1    0    0  501    0  0.00000000000E+00  0.00000000000E+00  0.13799510626E+04  0.13799510626E+04  0.00000000000E+00 0. -1.
         -2   -1    0    0    0  501 -0.00000000000E+00 -0.00000000000E+00 -0.26025561507E+03  0.26025561507E+03  0.00000000000E+00 0.  1.
         23    2    1    2    0    0  0.18749125622E+03 -0.42941450995E+02  0.37021153473E+02  0.21565453948E+03  0.90218486033E+02 0.  0.
        254    2    1    2    0    0 -0.18749125622E+03  0.42941450995E+02  0.10826742940E+04  0.14245521382E+04  0.90563139744E+03 0.  0.
        -24    2    4    4    0    0  0.26321131636E+02  0.14174196188E+03 -0.11535792653E+03  0.20106754514E+03  0.79606034737E+02 0.  0.
         24    2    4    4    0    0 -0.21381238785E+03 -0.98800510880E+02  0.11980322206E+04  0.12234845930E+04  0.78460625295E+02 0.  0.
         13    1    3    3    0    0  0.53256280613E+02 -0.44346477035E+02 -0.16327819676E+02  0.71199993999E+02  0.00000000000E+00 0. -1.
        -13    1    3    3    0    0  0.13423497560E+03  0.14050260401E+01  0.53348973149E+02  0.14445454548E+03  0.00000000000E+00 0.  1.
          4    1    6    6  502    0 -0.12828003348E+03 -0.92519390652E+02  0.66178811890E+03  0.68042568951E+03  0.00000000000E+00 0. -1.
          1    1    5    5  503    0  0.29959159999E+02  0.11548497698E+03 -0.12505817898E+03  0.17284061822E+03  0.00000000000E+00 0. -1.
         -2    1    5    5    0  503 -0.36380283630E+01  0.26256984892E+02  0.97002524417E+01  0.28226926921E+02  0.00000000000E+00 0.  1.
         -1    1    6    6    0  502 -0.85532354375E+02 -0.62811202283E+01  0.53624410167E+03  0.54305890351E+03  0.00000000000E+00 0.  1.
<mgrwt>
<rscale>  0 0.11985658E+04</rscale>
<asrwt>0</asrwt>
<pdfrwt beam="1">  1        2 0.21230016E+00 0.11985658E+04</pdfrwt>
<pdfrwt beam="2">  1       -2 0.40039326E-01 0.11985658E+04</pdfrwt>
<totfact> 0.86504464E+01</totfact>
</mgrwt>
</event>
<event>
12    1  0.1442183E-007  0.2041420E+04  0.7818608E-02  0.8587497E-01
          2   -1    0    0  501    0  0.00000000000E+00  0.00000000000E+00  0.15823769677E+04  0.15823769677E+04  0.00000000000E+00 0. -1.
         -2   -1    0    0    0  501 -0.00000000000E+00 -0.00000000000E+00 -0.65840734254E+03  0.65840734254E+03  0.00000000000E+00 0.  1.
         23    2    1    2    0    0 -0.34073513094E+03 -0.15830987399E+03 -0.42510932841E+03  0.57468377763E+03  0.91548115802E+02 0.  0.
        254    2    1    2    0    0  0.34073513094E+03  0.15830987399E+03  0.13490789535E+04  0.16661005326E+04  0.90261537551E+03 0.  0.
        -24    2    4    4    0    0  0.42384632572E+03 -0.10339347874E+03  0.20852250933E+03  0.49042223560E+03  0.81831613679E+02 0.  0.
         24    2    4    4    0    0 -0.83111194780E+02  0.26170335273E+03  0.11405564442E+04  0.11756782970E+04  0.77164370238E+02 0.  0.
         13    1    3    3    0    0 -0.12164615275E+02 -0.13476422566E+02 -0.59603834448E+02  0.62307374450E+02  0.00000000000E+00 0. -1.
        -13    1    3    3    0    0 -0.32857051567E+03 -0.14483345142E+03 -0.36550549396E+03  0.51237640318E+03  0.00000000000E+00 0.  1.
          2    1    6    6  502    0 -0.70747410039E+02  0.10301101601E+03  0.55290199011E+03  0.56684837136E+03  0.00000000000E+00 0. -1.
          1    1    5    5  503    0  0.37742463893E+03 -0.80108858325E+02  0.15487800624E+03  0.41575712149E+03  0.00000000000E+00 0. -1.
         -2    1    5    5    0  503  0.46421686789E+02 -0.23284620414E+02  0.53644503093E+02  0.74665114105E+02  0.00000000000E+00 0.  1.
         -1    1    6    6    0  502 -0.12363784741E+02  0.15869233672E+03  0.58765445408E+03  0.60882992560E+03  0.00000000000E+00 0.  1.
<mgrwt>
<rscale>  0 0.20414197E+04</rscale>
<asrwt>0</asrwt>
<pdfrwt beam="1">  1        2 0.24344261E+00 0.20414197E+04</pdfrwt>
<pdfrwt beam="2">  1       -2 0.10129344E+00 0.20414197E+04</pdfrwt>
<totfact> 0.84634925E+00</totfact>
</mgrwt>
</event>
<event>
12    1  0.1442183E-007  0.2238144E+04  0.7818608E-02  0.8502717E-01
          1   -1    0    0  501    0  0.00000000000E+00  0.00000000000E+00  0.41324693864E+04  0.41324693864E+04  0.00000000000E+00 0. -1.
         -1   -1    0    0    0  501 -0.00000000000E+00 -0.00000000000E+00 -0.30304445572E+03  0.30304445572E+03  0.00000000000E+00 0.  1.
         23    2    1    2    0    0 -0.79774452645E+03  0.50107789531E+03  0.15852333158E+04  0.18462690672E+04  0.90936331575E+02 0.  0.
        254    2    1    2    0    0  0.79774452645E+03 -0.50107789531E+03  0.22441916149E+04  0.25892447749E+04  0.88335559852E+03 0.  0.
        -24    2    4    4    0    0  0.53458118440E+03 -0.43489709640E+02  0.18441718518E+04  0.19221784739E+04  0.78306252877E+02 0.  0.
         24    2    4    4    0    0  0.26316334206E+03 -0.45758818567E+03  0.40001976313E+03  0.66706630099E+03  0.79496834871E+02 0.  0.
         13    1    3    3    0    0 -0.68490682409E+03  0.45758092230E+03  0.13418252934E+04  0.15744753971E+04  0.00000000000E+00 0. -1.
        -13    1    3    3    0    0 -0.11283770236E+03  0.43496973009E+02  0.24340802243E+03  0.27179367012E+03  0.00000000000E+00 0.  1.
          4    1    6    6  502    0  0.22501723332E+02 -0.77062943282E+02  0.35573687468E+02  0.87809521239E+02  0.00000000000E+00 0. -1.
          3    1    5    5  503    0  0.30006552871E+03  0.13387180975E+02  0.98789294750E+03  0.10325458895E+04  0.00000000000E+00 0. -1.
         -4    1    5    5    0  503  0.23451565568E+03 -0.56876890614E+02  0.85627890428E+03  0.88963258448E+03  0.00000000000E+00 0.  1.
         -3    1    6    6    0  502  0.24066161873E+03 -0.38052524239E+03  0.36444607567E+03  0.57925677976E+03  0.00000000000E+00 0.  1.
<mgrwt>
<rscale>  0 0.22381438E+04</rscale>
<asrwt>0</asrwt>
<pdfrwt beam="1">  1        1 0.63576448E+00 0.22381438E+04</pdfrwt>
<pdfrwt beam="2">  1       -1 0.46622227E-01 0.22381438E+04</pdfrwt>
<totfact> 0.30580379E-01</totfact>
</mgrwt>
</event>
<event>
12    1  0.1442183E-007  0.1778427E+04  0.7818608E-02  0.8717857E-01
         -1   -1    0    0    0  501 -0.00000000000E+00  0.00000000000E+00  0.64064006357E+03  0.64064006357E+03  0.00000000000E+00 0.  1.
          1   -1    0    0  501    0  0.00000000000E+00 -0.00000000000E+00 -0.12342355651E+04  0.12342355651E+04  0.00000000000E+00 0. -1.
         23    2    1    2    0    0  0.35569458572E+03  0.94509779656E+01 -0.79168075425E+03  0.87263529565E+03  0.90144235872E+02 0.  0.
        254    2    1    2    0    0 -0.35569458572E+03 -0.94509779656E+01  0.19808525269E+03  0.10022403330E+04  0.91577287498E+03 0.  0.
        -24    2    4    4    0    0 -0.42250594500E+03  0.31504170269E+02 -0.27850238335E+03  0.51315559466E+03  0.79128379846E+02 0.  0.
         24    2    4    4    0    0  0.66811359277E+02 -0.40955148235E+02  0.47658763605E+03  0.48908473838E+03  0.76987171609E+02 0.  0.
         11    1    3    3    0    0  0.27638157013E+03  0.24549985088E+02 -0.68329712729E+03  0.73748521222E+03  0.00000000000E+00 0. -1.
        -11    1    3    3    0    0  0.79313015587E+02 -0.15099007122E+02 -0.10838362696E+03  0.13515008343E+03  0.00000000000E+00 0.  1.
          4    1    6    6  502    0  0.19094632486E+02  0.16650314818E+01  0.31064230968E+03  0.31123306682E+03  0.00000000000E+00 0. -1.
          3    1    5    5  503    0 -0.14271789357E+03  0.10690498242E+01 -0.13826588673E+03  0.19871334995E+03  0.00000000000E+00 0. -1.
         -4    1    5    5    0  503 -0.27978805143E+03  0.30435120445E+02 -0.14023649662E+03  0.31444224472E+03  0.00000000000E+00 0.  1.
         -1    1    6    6    0  502  0.47716726791E+02 -0.42620179716E+02  0.16594532636E+03  0.17785167156E+03  0.00000000000E+00 0.  1.
<mgrwt>
<rscale>  0 0.17784271E+04</rscale>
<asrwt>0</asrwt>
<pdfrwt beam="1">  1        1 0.18988239E+00 0.17784271E+04</pdfrwt>
<pdfrwt beam="2">  1       -1 0.98560010E-01 0.17784271E+04</pdfrwt>
<totfact> 0.93972038E+00</totfact>
</mgrwt>
</event>
<event>
12    1  0.1442183E-007  0.1903277E+04  0.7818608E-02  0.8653227E-01
          1   -1    0    0  501    0  0.00000000000E+00  0.00000000000E+00  0.10389581887E+04  0.10389581887E+04  0.00000000000E+00 0. -1.
         -1   -1    0    0    0  501 -0.00000000000E+00 -0.00000000000E+00 -0.87165729215E+03  0.87165729215E+03  0.00000000000E+00 0.  1.
         23    2    1    2    0    0  0.94275917964E+02 -0.72557599408E+03  0.16803082981E+02  0.73921836030E+03  0.10398542548E+03 0.  0.
        254    2    1    2    0    0 -0.94275917964E+02  0.72557599408E+03  0.15049781354E+03  0.11713971205E+04  0.90231543830E+03 0.  0.
        -24    2    4    4    0    0  0.11655664070E+03  0.20019069797E+03  0.46010020146E+03  0.52110705220E+03  0.78731178187E+02 0.  0.
         24    2    4    4    0    0 -0.21083255866E+03  0.52538529611E+03 -0.30960238792E+03  0.65029006833E+03  0.80891638656E+02 0.  0.
         11    1    3    3    0    0  0.65989953257E+02 -0.42967937309E+03 -0.40144503700E+02  0.43656685486E+03  0.00000000000E+00 0. -1.
        -11    1    3    3    0    0  0.28285964707E+02 -0.29589662100E+03  0.56947586682E+02  0.30265150544E+03  0.00000000000E+00 0.  1.
          2    1    6    6  502    0 -0.20125353266E+03  0.52239518027E+03 -0.29562300640E+03  0.63308188309E+03  0.00000000000E+00 0. -1.
          1    1    5    5  503    0  0.11604487236E+03  0.19975656934E+03  0.40693157034E+03  0.46793418590E+03  0.00000000000E+00 0. -1.
         -2    1    5    5    0  503  0.51176833975E+00  0.43412862533E+00  0.53168631121E+02  0.53172866293E+02  0.00000000000E+00 0.  1.
         -1    1    6    6    0  502 -0.95790259988E+01  0.29901158410E+01 -0.13979381517E+02  0.17208185245E+02  0.00000000000E+00 0.  1.
<mgrwt>
<rscale>  0 0.19032766E+04</rscale>
<asrwt>0</asrwt>
<pdfrwt beam="1">  1        1 0.15983972E+00 0.19032766E+04</pdfrwt>
<pdfrwt beam="2">  1       -1 0.13410112E+00 0.19032766E+04</pdfrwt>
<totfact> 0.61864005E+00</totfact>
</mgrwt>
</event>
<event>
12    1  0.1442183E-007  0.1718781E+04  0.7818608E-02  0.8750725E-01
          2   -1    0    0  501    0  0.00000000000E+00  0.00000000000E+00  0.10945115559E+04  0.10945115559E+04  0.00000000000E+00 0. -1.
         -2   -1    0    0    0  501 -0.00000000000E+00 -0.00000000000E+00 -0.67477746073E+03  0.67477746073E+03  0.00000000000E+00 0.  1.
         23    2    1    2    0    0  0.14318272820E+03 -0.26953335575E+03 -0.41049904631E+03  0.51989008739E+03  0.92880097035E+02 0.  0.
        254    2    1    2    0    0 -0.14318272820E+03  0.26953335575E+03  0.83023314150E+03  0.12493989293E+04  0.88236108917E+03 0.  0.
        -24    2    4    4    0    0 -0.15105415444E+03 -0.19604858862E+03 -0.36185440384E+02  0.26246461194E+03  0.79535399381E+02 0.  0.
         24    2    4    4    0    0  0.78714262353E+01  0.46558194436E+03  0.86641858188E+03  0.98693431732E+03  0.80806444103E+02 0.  0.
         13    1    3    3    0    0  0.92284604431E+02 -0.20876818873E+03 -0.35881461366E+03  0.42526289730E+03  0.00000000000E+00 0.  1.
        -13    1    3    3    0    0  0.50898123769E+02 -0.60765167017E+02 -0.51684432649E+02  0.94627190089E+02  0.00000000000E+00 0. -1.
          2    1    6    6  502    0 -0.23168841028E+02  0.10265101155E+03  0.24468646093E+03  0.26635594518E+03  0.00000000000E+00 0. -1.
          3    1    5    5  503    0 -0.11483297621E+02 -0.15679399482E+02  0.19679392253E+02  0.27658419547E+02  0.00000000000E+00 0. -1.
         -4    1    5    5    0  503 -0.13957085681E+03 -0.18036918913E+03 -0.55864832637E+02  0.23480619239E+03  0.00000000000E+00 0.  1.
         -1    1    6    6    0  502  0.31040267263E+02  0.36293093281E+03  0.62173212095E+03  0.72057837214E+03  0.00000000000E+00 0.  1.
<mgrwt>
<rscale>  0 0.17187806E+04</rscale>
<asrwt>0</asrwt>
<pdfrwt beam="1">  1        2 0.16838639E+00 0.17187806E+04</pdfrwt>
<pdfrwt beam="2">  1       -2 0.10381192E+00 0.17187806E+04</pdfrwt>
<totfact> 0.15763121E+01</totfact>
</mgrwt>
</event>
<event>
12    1  0.1442183E-007  0.1978728E+04  0.7818608E-02  0.8616631E-01
         -2   -1    0    0    0  501 -0.00000000000E+00  0.00000000000E+00  0.24987297625E+03  0.24987297625E+03  0.00000000000E+00 0.  1.
          2   -1    0    0  501    0  0.00000000000E+00 -0.00000000000E+00 -0.39173535448E+04  0.39173535448E+04  0.00000000000E+00 0. -1.
         23    2    1    2    0    0 -0.28344132959E+03  0.68468088978E+03 -0.19795879078E+04  0.21156252377E+04  0.89302596208E+02 0.  0.
        254    2    1    2    0    0  0.28344132959E+03 -0.68468088978E+03 -0.16878926608E+04  0.20516012833E+04  0.90053277749E+03 0.  0.
        -24    2    4    4    0    0  0.28543545305E+03 -0.84305571520E+03 -0.16395847285E+04  0.18672784682E+04  0.79211482008E+02 0.  0.
         24    2    4    4    0    0 -0.19941234641E+01  0.15837482542E+03 -0.48307932255E+02  0.18432281517E+03  0.80960990710E+02 0.  0.
         13    1    3    3    0    0 -0.28065985695E+03  0.67937469209E+03 -0.19767518042E+04  0.21089968286E+04  0.00000000000E+00 0. -1.
        -13    1    3    3    0    0 -0.27814726379E+01  0.53061976895E+01 -0.28361035490E+01  0.66284091075E+01  0.00000000000E+00 0.  1.
          2    1    6    6  502    0 -0.37724277177E+02  0.11737662265E+03 -0.29400855128E+02  0.12674700358E+03  0.00000000000E+00 0. -1.
          3    1    5    5  503    0  0.18326076632E+03 -0.55843642026E+03 -0.11581370041E+04  0.12987367186E+04  0.00000000000E+00 0. -1.
         -4    1    5    5    0  503  0.10217468673E+03 -0.28461929495E+03 -0.48144772444E+03  0.56854174959E+03  0.00000000000E+00 0.  1.
         -1    1    6    6    0  502  0.35730153713E+02  0.40998202771E+02 -0.18907077126E+02  0.57575811591E+02  0.00000000000E+00 0.  1.
<mgrwt>
<rscale>  0 0.19787277E+04</rscale>
<asrwt>0</asrwt>
<pdfrwt beam="1">  1        2 0.60266977E+00 0.19787277E+04</pdfrwt>
<pdfrwt beam="2">  1       -2 0.38441997E-01 0.19787277E+04</pdfrwt>
<totfact> 0.23933152E+00</totfact>
</mgrwt>
</event>
<event>
12    1  0.1442183E-007  0.1564135E+04  0.7818608E-02  0.8842889E-01
          2   -1    0    0  501    0  0.00000000000E+00  0.00000000000E+00  0.27872212772E+04  0.27872212772E+04  0.00000000000E+00 0. -1.
         -2   -1    0    0    0  501 -0.00000000000E+00 -0.00000000000E+00 -0.21944056760E+03  0.21944056760E+03  0.00000000000E+00 0.  1.
         23    2    1    2    0    0  0.32627055984E+03 -0.47958926456E+02  0.16431412539E+04  0.16783634487E+04  0.90764249414E+02 0.  0.
        254    2    1    2    0    0 -0.32627055984E+03  0.47958926456E+02  0.92463945568E+03  0.13282983960E+04  0.89479940159E+03 0.  0.
        -24    2    4    4    0    0  0.21652742255E+03 -0.22832718344E+03  0.43777352320E+03  0.54457252272E+03  0.76786375557E+02 0.  0.
         24    2    4    4    0    0 -0.54279798239E+03  0.27628610990E+03  0.48686593248E+03  0.78372587332E+03  0.78893244936E+02 0.  0.
         11    1    3    3    0    0  0.24020320791E+03  0.20830869413E+01  0.12451376025E+04  0.12680968297E+04  0.00000000000E+00 0. -1.
        -11    1    3    3    0    0  0.86067351935E+02 -0.50042013397E+02  0.39800365137E+03  0.41026661901E+03  0.00000000000E+00 0.  1.
          2    1    6    6  502    0 -0.45592099025E+03  0.25151926581E+03  0.38500221480E+03  0.64757439405E+03  0.00000000000E+00 0. -1.
          1    1    5    5  503    0  0.20867667983E+03 -0.20112188446E+03  0.42264426802E+03  0.51246867846E+03  0.00000000000E+00 0. -1.
         -2    1    5    5    0  503  0.78507427196E+01 -0.27205298979E+02  0.15129255181E+02  0.32103844257E+02  0.00000000000E+00 0.  1.
         -1    1    6    6    0  502 -0.86876992138E+02  0.24766844090E+02  0.10186371768E+03  0.13615147928E+03  0.00000000000E+00 0.  1.
<mgrwt>
<rscale>  0 0.15641348E+04</rscale>
<asrwt>0</asrwt>
<pdfrwt beam="1">  1        2 0.42880325E+00 0.15641348E+04</pdfrwt>
<pdfrwt beam="2">  1       -2 0.33760089E-01 0.15641348E+04</pdfrwt>
<totfact> 0.18659084E+01</totfact>
</mgrwt>
</event>
<event>
12    1  0.1442183E-007  0.1357778E+04  0.7818608E-02  0.8984961E-01
          1   -1    0    0  501    0  0.00000000000E+00  0.00000000000E+00  0.18371938223E+04  0.18371938223E+04  0.00000000000E+00 0. -1.
         -1   -1    0    0    0  501 -0.00000000000E+00 -0.00000000000E+00 -0.25086632144E+03  0.25086632144E+03  0.00000000000E+00 0.  1.
         23    2    1    2    0    0  0.33001422200E+02  0.97498040744E+02 -0.11057650465E+03  0.17637337999E+03  0.91024414149E+02 0.  0.
        254    2    1    2    0    0 -0.33001422200E+02 -0.97498040744E+02  0.16969040055E+04  0.19116867638E+04  0.87433867408E+03 0.  0.
        -24    2    4    4    0    0 -0.67296278176E+01 -0.33957300316E+03  0.21946000406E+03  0.41224191231E+03  0.80159768697E+02 0.  0.
         24    2    4    4    0    0 -0.26271794382E+02  0.24207496242E+03  0.14774440015E+04  0.14994448515E+04  0.78762874954E+02 0.  0.
         13    1    3    3    0    0 -0.19504976580E+02  0.51000458317E+02 -0.12867474850E+02  0.56098687765E+02  0.00000000000E+00 0. -1.
        -13    1    3    3    0    0  0.52506398780E+02  0.46497582426E+02 -0.97709029803E+02  0.12027469222E+03  0.00000000000E+00 0.  1.
          4    1    6    6  502    0 -0.30677739046E+02  0.57523101565E+02  0.54644178876E+03  0.55031687180E+03  0.00000000000E+00 0. -1.
          3    1    5    5  503    0  0.31484040109E+02 -0.75001480941E+02  0.58681037916E+02  0.10029920805E+03  0.00000000000E+00 0. -1.
         -4    1    5    5    0  503 -0.38213667927E+02 -0.26457152222E+03  0.16077896614E+03  0.31194270426E+03  0.00000000000E+00 0.  1.
         -3    1    6    6    0  502  0.44059446644E+01  0.18455186086E+03  0.93100221273E+03  0.94912797967E+03  0.00000000000E+00 0.  1.
<mgrwt>
<rscale>  0 0.13577777E+04</rscale>
<asrwt>0</asrwt>
<pdfrwt beam="1">  1        1 0.28264519E+00 0.13577777E+04</pdfrwt>
<pdfrwt beam="2">  1       -1 0.38594820E-01 0.13577777E+04</pdfrwt>
<totfact> 0.24460857E+01</totfact>
</mgrwt>
</event>
<event>
12    1  0.1530903E-007  0.1796102E+04  0.7818608E-02  0.8708375E-01
         -2   -1    0    0    0  501 -0.00000000000E+00  0.00000000000E+00  0.32382904705E+03  0.32382904705E+03  0.00000000000E+00 0.  1.
          2   -1    0    0  501    0  0.00000000000E+00 -0.00000000000E+00 -0.24904977438E+04  0.24904977438E+04  0.00000000000E+00 0. -1.
         23    2    1    2    0    0  0.19619519994E+03  0.26386833358E+02 -0.18288135332E+04  0.18417881412E+04  0.91846591590E+02 0.  0.
        254    2    1    2    0    0 -0.19619519994E+03 -0.26386833358E+02 -0.33785516356E+03  0.97253864967E+03  0.89022272050E+03 0.  0.
        -24    2    4    4    0    0 -0.26440575465E+03  0.43940270404E+02 -0.61122363194E+03  0.67224485556E+03  0.80483955662E+02 0.  0.
         24    2    4    4    0    0  0.68210554710E+02 -0.70327103763E+02  0.27336846838E+03  0.30029379411E+03  0.76468699329E+02 0.  0.
         11    1    3    3    0    0 -0.99881491728E+01  0.13594247187E+01 -0.62917464722E+02  0.63719844056E+02  0.00000000000E+00 0.  1.
        -11    1    3    3    0    0  0.20618334911E+03  0.25027408640E+02 -0.17658960685E+04  0.17780682971E+04  0.00000000000E+00 0. -1.
          4    1    6    6  502    0  0.51361376651E+02 -0.59463734671E+02  0.26836478804E+03  0.27963116102E+03  0.00000000000E+00 0. -1.
          3    1    5    5  503    0 -0.17469228761E+03  0.28441904858E+02 -0.48749151004E+03  0.51862733216E+03  0.00000000000E+00 0. -1.
         -4    1    5    5    0  503 -0.89713467046E+02  0.15498365546E+02 -0.12373212190E+03  0.15361752340E+03  0.00000000000E+00 0.  1.
         -3    1    6    6    0  502  0.16849178058E+02 -0.10863369091E+02  0.50036803422E+01  0.20662633090E+02  0.00000000000E+00 0.  1.
<mgrwt>
<rscale>  0 0.17961019E+04</rscale>
<asrwt>0</asrwt>
<pdfrwt beam="1">  1        2 0.38315351E+00 0.17961019E+04</pdfrwt>
<pdfrwt beam="2">  1       -2 0.49819852E-01 0.17961019E+04</pdfrwt>
<totfact> 0.12707277E+01</totfact>
</mgrwt>
</event>
<event>
12    1  0.1442183E-007  0.2742542E+04  0.7818608E-02  0.8321332E-01
          2   -1    0    0  501    0  0.00000000000E+00  0.00000000000E+00  0.14531889242E+04  0.14531889242E+04  0.00000000000E+00 0. -1.
         -2   -1    0    0    0  501 -0.00000000000E+00 -0.00000000000E+00 -0.12939706717E+04  0.12939706717E+04  0.00000000000E+00 0.  1.
         23    2    1    2    0    0 -0.10774021823E+04 -0.18706617116E+03  0.61749746883E+03  0.12590408022E+04  0.89952225551E+02 0.  0.
        254    2    1    2    0    0  0.10774021823E+04  0.18706617116E+03 -0.45827921631E+03  0.14881187937E+04  0.89927108772E+03 0.  0.
        -24    2    4    4    0    0 -0.13029436679E+03  0.14873814284E+02 -0.17135967665E+03  0.23236762018E+03  0.86213222639E+02 0.  0.
         24    2    4    4    0    0  0.12076965491E+04  0.17219235688E+03 -0.28691953965E+03  0.12557511735E+04  0.80043894924E+02 0.  0.
         13    1    3    3    0    0 -0.16464219813E+03 -0.61713922510E+02  0.94185905596E+02  0.19946590298E+03  0.00000000000E+00 0.  1.
        -13    1    3    3    0    0 -0.91275998414E+03 -0.12535224865E+03  0.52331156323E+03  0.10595748992E+04  0.00000000000E+00 0. -1.
          2    1    6    6  502    0  0.27450681315E+03  0.85909330236E+01 -0.50002200437E+02  0.27915589666E+03  0.00000000000E+00 0. -1.
          1    1    5    5  503    0 -0.12863758113E+02 -0.16936478821E+02 -0.72646170215E+02  0.75695354115E+02  0.00000000000E+00 0. -1.
         -2    1    5    5    0  503 -0.11743060867E+03  0.31810293104E+02 -0.98713506438E+02  0.15667226606E+03  0.00000000000E+00 0.  1.
         -1    1    6    6    0  502  0.93318973591E+03  0.16360142386E+03 -0.23691733922E+03  0.97659527683E+03  0.00000000000E+00 0.  1.
<mgrwt>
<rscale>  0 0.27425418E+04</rscale>
<asrwt>0</asrwt>
<pdfrwt beam="1">  1        2 0.22356753E+00 0.27425418E+04</pdfrwt>
<pdfrwt beam="2">  1       -2 0.19907241E+00 0.27425418E+04</pdfrwt>
<totfact> 0.15913434E+00</totfact>
</mgrwt>
</event>
<event>
12    1  0.1442183E-007  0.2734307E+04  0.7818608E-02  0.8323958E-01
          1   -1    0    0  501    0  0.00000000000E+00  0.00000000000E+00  0.12464205877E+04  0.12464205877E+04  0.00000000000E+00 0. -1.
         -1   -1    0    0    0  501 -0.00000000000E+00 -0.00000000000E+00 -0.14995815605E+04  0.14995815605E+04  0.00000000000E+00 0.  1.
         23    2    1    2    0    0  0.84461813262E+03 -0.37545304995E+03 -0.90920044583E+03  0.12997575295E+04  0.91539074297E+02 0.  0.
        254    2    1    2    0    0 -0.84461813262E+03  0.37545304995E+03  0.65603947302E+03  0.14462446186E+04  0.89827107492E+03 0.  0.
        -24    2    4    4    0    0 -0.58885596064E+03  0.50830030601E+03  0.79627325914E+03  0.11158762375E+04  0.77512133453E+02 0.  0.
         24    2    4    4    0    0 -0.25576217198E+03 -0.13284725606E+03 -0.14023378612E+03  0.33036838107E+03  0.80094134465E+02 0.  0.
         11    1    3    3    0    0  0.56411035540E+03 -0.27521397148E+03 -0.66648482033E+03  0.91551364757E+03  0.00000000000E+00 0.  1.
        -11    1    3    3    0    0  0.28050777722E+03 -0.10023907847E+03 -0.24271562551E+03  0.38424388193E+03  0.00000000000E+00 0. -1.
          2    1    6    6  502    0 -0.42447669210E+02 -0.18612509579E+02  0.73623112122E+01  0.46930094402E+02  0.00000000000E+00 0. -1.
          3    1    5    5  503    0 -0.31521843943E+03  0.24304517807E+03  0.36119688628E+03  0.53749122207E+03  0.00000000000E+00 0. -1.
         -4    1    5    5    0  503 -0.27363752120E+03  0.26525512794E+03  0.43507637286E+03  0.57838501548E+03  0.00000000000E+00 0.  1.
         -1    1    6    6    0  502 -0.21331450278E+03 -0.11423474648E+03 -0.14759609733E+03  0.28343828666E+03  0.00000000000E+00 0.  1.
<mgrwt>
<rscale>  0 0.27343075E+04</rscale>
<asrwt>0</asrwt>
<pdfrwt beam="1">  1        1 0.19175701E+00 0.27343075E+04</pdfrwt>
<pdfrwt beam="2">  1       -1 0.23070485E+00 0.27343075E+04</pdfrwt>
<totfact> 0.80367277E-01</totfact>
</mgrwt>
</event>
<event>
12    1  0.1442183E-007  0.1914899E+04  0.7818608E-02  0.8647476E-01
         -2   -1    0    0    0  501 -0.00000000000E+00  0.00000000000E+00  0.43397452614E+03  0.43397452614E+03  0.00000000000E+00 0.  1.
          2   -1    0    0  501    0  0.00000000000E+00 -0.00000000000E+00 -0.21123571440E+04  0.21123571440E+04  0.00000000000E+00 0. -1.
         23    2    1    2    0    0 -0.29592939702E+03 -0.93990925554E+02 -0.15507227176E+04  0.15841628616E+04  0.91774304998E+02 0.  0.
        254    2    1    2    0    0  0.29592939702E+03  0.93990925554E+02 -0.12765990031E+03  0.96216880861E+03  0.90170020739E+03 0.  0.
        -24    2    4    4    0    0 -0.24931887770E+03 -0.14046289545E+03 -0.20079704910E+03  0.35879604603E+03  0.80780071420E+02 0.  0.
         24    2    4    4    0    0  0.54524827473E+03  0.23445382100E+03  0.73137148787E+02  0.60337276258E+03  0.80283079269E+02 0.  0.
         11    1    3    3    0    0 -0.15776202088E+03 -0.22397860922E+01 -0.73262142309E+03  0.74941845550E+03  0.00000000000E+00 0.  1.
        -11    1    3    3    0    0 -0.13816737614E+03 -0.91751139462E+02 -0.81810129448E+03  0.83474440606E+03  0.00000000000E+00 0. -1.
          4    1    6    6  502    0  0.17837937303E+03  0.92902585549E+02 -0.10311226396E+02  0.20138622722E+03  0.00000000000E+00 0. -1.
          1    1    5    5  503    0 -0.57005208042E+02 -0.95530747545E+01 -0.73825856941E+02  0.93760930745E+02  0.00000000000E+00 0. -1.
         -2    1    5    5    0  503 -0.19231366966E+03 -0.13090982070E+03 -0.12697119216E+03  0.26503511528E+03  0.00000000000E+00 0.  1.
         -3    1    6    6    0  502  0.36686890170E+03  0.14155123546E+03  0.83448375183E+02  0.40198653537E+03  0.00000000000E+00 0.  1.
<mgrwt>
<rscale>  0 0.19148986E+04</rscale>
<asrwt>0</asrwt>
<pdfrwt beam="1">  1        2 0.32497802E+00 0.19148986E+04</pdfrwt>
<pdfrwt beam="2">  1       -2 0.66765312E-01 0.19148986E+04</pdfrwt>
<totfact> 0.11146734E+01</totfact>
</mgrwt>
</event>
<event>
12    1  0.1442183E-007  0.2754360E+04  0.7818608E-02  0.8317580E-01
          2   -1    0    0  501    0  0.00000000000E+00  0.00000000000E+00  0.30669717874E+04  0.30669717874E+04  0.00000000000E+00 0. -1.
         -2   -1    0    0    0  501 -0.00000000000E+00 -0.00000000000E+00 -0.61840288119E+03  0.61840288119E+03  0.00000000000E+00 0.  1.
         23    2    1    2    0    0 -0.25695273433E+03  0.46880873938E+03 -0.38397872293E+03  0.66425578138E+03  0.89385354692E+02 0.  0.
        254    2    1    2    0    0  0.25695273433E+03 -0.46880873938E+03  0.28325476292E+04  0.30211188872E+04  0.90444840515E+03 0.  0.
        -24    2    4    4    0    0  0.10737046709E+03 -0.42938730869E+03  0.46331346755E+03  0.64548592620E+03  0.78043793088E+02 0.  0.
         24    2    4    4    0    0  0.14958226723E+03 -0.39421430696E+02  0.23692341616E+04  0.23756329610E+04  0.80203174412E+02 0.  0.
         13    1    3    3    0    0 -0.54241481789E+02  0.16946921906E+03 -0.15768260240E+03  0.23775146194E+03  0.00000000000E+00 0. -1.
        -13    1    3    3    0    0 -0.20271125254E+03  0.29933952033E+03 -0.22629612053E+03  0.42650431944E+03  0.00000000000E+00 0.  1.
          4    1    6    6  502    0  0.83521911502E+02 -0.52784900713E+02  0.17391514345E+04  0.17419557594E+04  0.00000000000E+00 0. -1.
          3    1    5    5  503    0  0.11479264258E+03 -0.41785815256E+03  0.45869301165E+03  0.63101669185E+03  0.00000000000E+00 0. -1.
         -4    1    5    5    0  503 -0.74221754908E+01 -0.11529156128E+02  0.46204559050E+01  0.14469234354E+02  0.00000000000E+00 0.  1.
         -3    1    6    6    0  502  0.66060355732E+02  0.13363470017E+02  0.63008272707E+03  0.63367720164E+03  0.00000000000E+00 0.  1.
<mgrwt>
<rscale>  0 0.27543596E+04</rscale>
<asrwt>0</asrwt>
<pdfrwt beam="1">  1        2 0.47184180E+00 0.27543596E+04</pdfrwt>
<pdfrwt beam="2">  1       -2 0.95138907E-01 0.27543596E+04</pdfrwt>
<totfact> 0.12810222E+00</totfact>
</mgrwt>
</event>
<event>
12    1  0.1442183E-007  0.2303848E+04  0.7818608E-02  0.8476405E-01
          1   -1    0    0  501    0  0.00000000000E+00  0.00000000000E+00  0.51321294109E+03  0.51321294109E+03  0.00000000000E+00 0.  1.
         -1   -1    0    0    0  501 -0.00000000000E+00 -0.00000000000E+00 -0.25855328433E+04  0.25855328433E+04  0.00000000000E+00 0. -1.
         23    2    1    2    0    0  0.75801866273E+02  0.96510801564E+03 -0.10459017391E+04  0.14280421790E+04  0.90634498134E+02 0.  0.
        254    2    1    2    0    0 -0.75801866273E+02 -0.96510801564E+03 -0.10264181631E+04  0.16707036054E+04  0.89472726953E+03 0.  0.
        -24    2    4    4    0    0 -0.97502584671E+02  0.87642432487E+02 -0.43382389862E+03  0.46005037224E+03  0.79089948741E+02 0.  0.
         24    2    4    4    0    0  0.21700718398E+02 -0.10527504481E+04 -0.59259426445E+03  0.12106532332E+04  0.75887162959E+02 0.  0.
         13    1    3    3    0    0  0.32806084693E+02  0.35097797210E+03 -0.31842538935E+03  0.47503316166E+03  0.00000000000E+00 0. -1.
        -13    1    3    3    0    0  0.42995781580E+02  0.61413004354E+03 -0.72747634975E+03  0.95300901730E+03  0.00000000000E+00 0.  1.
          2    1    6    6  502    0 -0.20062718775E+02 -0.72509660926E+03 -0.41113477457E+03  0.83378618860E+03  0.00000000000E+00 0. -1.
          1    1    5    5  503    0  0.12541131438E+02  0.46335933418E+01 -0.21721068743E+02  0.25505979541E+02  0.00000000000E+00 0. -1.
         -2    1    5    5    0  503 -0.11004371611E+03  0.83008839145E+02 -0.41210282988E+03  0.43454439270E+03  0.00000000000E+00 0.  1.
         -1    1    6    6    0  502  0.41763437173E+02 -0.32765383886E+03 -0.18145948989E+03  0.37686704456E+03  0.00000000000E+00 0.  1.
<mgrwt>
<rscale>  0 0.23038480E+04</rscale>
<asrwt>0</asrwt>
<pdfrwt beam="1">  1        1 0.78955837E-01 0.23038480E+04</pdfrwt>
<pdfrwt beam="2">  1       -1 0.39777429E+00 0.23038480E+04</pdfrwt>
<totfact> 0.28633644E-01</totfact>
</mgrwt>
</event>
<event>
12    1  0.1442183E-007  0.1513245E+04  0.7818608E-02  0.8875693E-01
          2   -1    0    0  501    0  0.00000000000E+00  0.00000000000E+00  0.35408310839E+04  0.35408310839E+04  0.00000000000E+00 0. -1.
         -2   -1    0    0    0  501 -0.00000000000E+00 -0.00000000000E+00 -0.16167880832E+03  0.16167880832E+03  0.00000000000E+00 0.  1.
         23    2    1    2    0    0  0.26289256379E+03 -0.24758669040E+03  0.31283544995E+03  0.48647127993E+03  0.91523866258E+02 0.  0.
        254    2    1    2    0    0 -0.26289256379E+03  0.24758669040E+03  0.30663168257E+04  0.32160386123E+04  0.90010766648E+03 0.  0.
        -24    2    4    4    0    0 -0.35203381706E+03 -0.16665001068E+03  0.65248750395E+03  0.76400115265E+03  0.79106156629E+02 0.  0.
         24    2    4    4    0    0  0.89141253266E+02  0.41423670108E+03  0.24138293217E+04  0.24520374597E+04  0.79859262127E+02 0.  0.
         13    1    3    3    0    0  0.10646207273E+03 -0.49265101030E+02  0.12697500645E+03  0.17286953280E+03  0.00000000000E+00 0. -1.
        -13    1    3    3    0    0  0.15643049107E+03 -0.19832158937E+03  0.18586044349E+03  0.31360174713E+03  0.00000000000E+00 0.  1.
          2    1    6    6  502    0  0.56424941832E+02  0.31596475400E+03  0.16209187635E+04  0.16523907340E+04  0.00000000000E+00 0. -1.
          3    1    5    5  503    0 -0.40724954568E+02 -0.50036242503E+02  0.12061054339E+03  0.13678103182E+03  0.00000000000E+00 0. -1.
         -4    1    5    5    0  503 -0.31130886249E+03 -0.11661376818E+03  0.53187696057E+03  0.62722012083E+03  0.00000000000E+00 0.  1.
         -1    1    6    6    0  502  0.32716311434E+02  0.98271947085E+02  0.79291055820E+03  0.79964672570E+03  0.00000000000E+00 0.  1.
<mgrwt>
<rscale>  0 0.15132447E+04</rscale>
<asrwt>0</asrwt>
<pdfrwt beam="1">  1        2 0.54474319E+00 0.15132447E+04</pdfrwt>
<pdfrwt beam="2">  1       -2 0.24873665E-01 0.15132447E+04</pdfrwt>
<totfact> 0.10789112E+01</totfact>
</mgrwt>
</event>
<event>
12    1  0.1442183E-007  0.2295760E+04  0.7818608E-02  0.8479595E-01
          2   -1    0    0  501    0  0.00000000000E+00  0.00000000000E+00  0.12106973420E+04  0.12106973420E+04  0.00000000000E+00 0. -1.
         -2   -1    0    0    0  501 -0.00000000000E+00 -0.00000000000E+00 -0.10883222988E+04  0.10883222988E+04  0.00000000000E+00 0.  1.
         23    2    1    2    0    0  0.98210532296E+02  0.55774754659E+03  0.83600939093E+03  0.10138219067E+04  0.90529124320E+02 0.  0.
        254    2    1    2    0    0 -0.98210532296E+02 -0.55774754659E+03 -0.71363434768E+03  0.12851977341E+04  0.90649412527E+03 0.  0.
        -24    2    4    4    0    0 -0.29810585922E+03 -0.35250377191E+03 -0.84075068865E+03  0.96221432755E+03  0.76607304934E+02 0.  0.
         24    2    4    4    0    0  0.19989532693E+03 -0.20524377468E+03  0.12711634097E+03  0.32298340654E+03  0.77952344334E+02 0.  0.
         11    1    3    3    0    0  0.27037851387E+02  0.19733108193E+03  0.22159390416E+03  0.29795043155E+03  0.00000000000E+00 0.  1.
        -11    1    3    3    0    0  0.71172680909E+02  0.36041646466E+03  0.61441548677E+03  0.71587147512E+03  0.00000000000E+00 0. -1.
          2    1    6    6  502    0  0.19525535009E+03 -0.17874169500E+03  0.95369597376E+02  0.28136916209E+03  0.00000000000E+00 0. -1.
          3    1    5    5  503    0 -0.18603894036E+03 -0.17431156573E+03 -0.41039742336E+03  0.48313668291E+03  0.00000000000E+00 0. -1.
         -4    1    5    5    0  503 -0.11206691886E+03 -0.17819220618E+03 -0.43035326529E+03  0.47907764464E+03  0.00000000000E+00 0.  1.
         -1    1    6    6    0  502  0.46399768327E+01 -0.26502079678E+02  0.31746743594E+02  0.41614244449E+02  0.00000000000E+00 0.  1.
<mgrwt>
<rscale>  0 0.22957604E+04</rscale>
<asrwt>0</asrwt>
<pdfrwt beam="1">  1        2 0.18626113E+00 0.22957604E+04</pdfrwt>
<pdfrwt beam="2">  1       -2 0.16743420E+00 0.22957604E+04</pdfrwt>
<totfact> 0.37635931E+00</totfact>
</mgrwt>
</event>
<event>
12    1  0.1442183E-007  0.2124856E+04  0.7818608E-02  0.8550372E-01
          2   -1    0    0  501    0  0.00000000000E+00  0.00000000000E+00  0.22331171669E+04  0.22331171669E+04  0.00000000000E+00 0.  1.
         -2   -1    0    0    0  501 -0.00000000000E+00 -0.00000000000E+00 -0.50546098303E+03  0.50546098303E+03  0.00000000000E+00 0. -1.
         23    2    1    2    0    0  0.72666586784E+03 -0.50749832314E+03  0.53085690014E+03  0.10370985508E+04  0.90368822539E+02 0.  0.
        254    2    1    2    0    0 -0.72666586784E+03  0.50749832314E+03  0.11967992837E+04  0.17014795991E+04  0.82286479408E+03 0.  0.
        -24    2    4    4    0    0 -0.37844447015E+03  0.67971742368E+03  0.96577880782E+03  0.12426784899E+04  0.79278814896E+02 0.  0.
         24    2    4    4    0    0 -0.34822139770E+03 -0.17221910054E+03  0.23102047588E+03  0.45880110927E+03  0.78806327116E+02 0.  0.
         11    1    3    3    0    0  0.20756940756E+03 -0.98639413739E+02  0.12450219981E+03  0.26137251319E+03  0.00000000000E+00 0.  1.
        -11    1    3    3    0    0  0.51909646029E+03 -0.40885890940E+03  0.40635470034E+03  0.77572603757E+03  0.00000000000E+00 0. -1.
          4    1    6    6  502    0 -0.31149101564E+03 -0.12662700240E+03  0.21080391792E+03  0.39686186812E+03  0.00000000000E+00 0. -1.
          3    1    5    5  503    0 -0.30472513279E+02  0.11203925518E+03  0.14838489172E+03  0.18841296361E+03  0.00000000000E+00 0. -1.
         -4    1    5    5    0  503 -0.34797195687E+03  0.56767816850E+03  0.81739391611E+03  0.10542655263E+04  0.00000000000E+00 0.  1.
         -3    1    6    6    0  502 -0.36730382059E+02 -0.45592098138E+02  0.20216557958E+02  0.61939241152E+02  0.00000000000E+00 0.  1.
<mgrwt>
<rscale>  0 0.21248563E+04</rscale>
<asrwt>0</asrwt>
<pdfrwt beam="1">  1        2 0.34355648E+00 0.21248563E+04</pdfrwt>
<pdfrwt beam="2">  1       -2 0.77763230E-01 0.21248563E+04</pdfrwt>
<totfact> 0.67012527E+00</totfact>
</mgrwt>
</event>
<event>
12    1  0.1442183E-007  0.2394980E+04  0.7818608E-02  0.8441385E-01
          2   -1    0    0  501    0  0.00000000000E+00  0.00000000000E+00  0.30702569894E+04  0.30702569894E+04  0.00000000000E+00 0. -1.
         -2   -1    0    0    0  501 -0.00000000000E+00 -0.00000000000E+00 -0.46705611429E+03  0.46705611429E+03  0.00000000000E+00 0.  1.
         23    2    1    2    0    0 -0.66377774481E+02 -0.27634518764E+03  0.25594151813E+04  0.25768632198E+04  0.94049516868E+02 0.  0.
        254    2    1    2    0    0  0.66377774481E+02  0.27634518764E+03  0.43785693802E+02  0.96044988388E+03  0.91639190350E+03 0.  0.
        -24    2    4    4    0    0 -0.34908236908E+03  0.21607707478E+03  0.24824718103E+03  0.48686294977E+03  0.82831553925E+02 0.  0.
         24    2    4    4    0    0  0.41546014356E+03  0.60268112861E+02 -0.20446148722E+03  0.47358693411E+03  0.78998152462E+02 0.  0.
         11    1    3    3    0    0 -0.74059818951E+02 -0.27696602637E+03  0.25372510490E+04  0.25533973295E+04  0.00000000000E+00 0. -1.
        -11    1    3    3    0    0  0.76820444705E+01  0.62083872653E+00  0.22164132291E+02  0.23465890313E+02  0.00000000000E+00 0.  1.
          4    1    6    6  502    0  0.13437009601E+03  0.37720185419E+01 -0.29221835523E+02  0.13756259120E+03  0.00000000000E+00 0. -1.
          3    1    5    5  503    0 -0.14024325764E+02  0.34403137898E+02  0.29251625539E+02  0.47285465071E+02  0.00000000000E+00 0. -1.
         -4    1    5    5    0  503 -0.33505804331E+03  0.18167393688E+03  0.21899555549E+03  0.43957748470E+03  0.00000000000E+00 0.  1.
         -3    1    6    6    0  502  0.28109004754E+03  0.56496094319E+02 -0.17523965170E+03  0.33602434291E+03  0.00000000000E+00 0.  1.
<mgrwt>
<rscale>  0 0.23949800E+04</rscale>
<asrwt>0</asrwt>
<pdfrwt beam="1">  1        2 0.47234722E+00 0.23949800E+04</pdfrwt>
<pdfrwt beam="2">  1       -2 0.71854789E-01 0.23949800E+04</pdfrwt>
<totfact> 0.24839562E+00</totfact>
</mgrwt>
</event>
<event>
12    1  0.1442183E-007  0.1594411E+04  0.7818608E-02  0.8823989E-01
          2   -1    0    0  501    0  0.00000000000E+00  0.00000000000E+00  0.17292389262E+04  0.17292389262E+04  0.00000000000E+00 0.  1.
         -2   -1    0    0    0  501 -0.00000000000E+00 -0.00000000000E+00 -0.36752382583E+03  0.36752382583E+03  0.00000000000E+00 0. -1.
         23    2    1    2    0    0  0.42906822826E+03 -0.30318895544E+03  0.30971043241E+03  0.61655310861E+03  0.90521249387E+02 0.  0.
        254    2    1    2    0    0 -0.42906822826E+03  0.30318895544E+03  0.10520046680E+04  0.14802096434E+04  0.89904598320E+03 0.  0.
        -24    2    4    4    0    0 -0.11862561975E+03  0.59103741901E+03  0.66643887699E+03  0.90242654910E+03  0.82677877469E+02 0.  0.
         24    2    4    4    0    0 -0.31044260851E+03 -0.28784846358E+03  0.38556579099E+03  0.57778309435E+03  0.77077712561E+02 0.  0.
         13    1    3    3    0    0  0.13415244338E+03 -0.10793118025E+03  0.15046741164E+03  0.22866232681E+03  0.00000000000E+00 0.  1.
        -13    1    3    3    0    0  0.29491578488E+03 -0.19525777518E+03  0.15924302077E+03  0.38789078180E+03  0.00000000000E+00 0. -1.
          4    1    6    6  502    0 -0.43931010425E+02 -0.31281595476E+02  0.19515392563E+02  0.57352614931E+02  0.00000000000E+00 0. -1.
          1    1    5    5  503    0 -0.15188286123E+02  0.14863116376E+03  0.21608976671E+03  0.26271028559E+03  0.00000000000E+00 0. -1.
         -2    1    5    5    0  503 -0.10343733362E+03  0.44240625525E+03  0.45034911028E+03  0.63971626351E+03  0.00000000000E+00 0.  1.
         -3    1    6    6    0  502 -0.26651159808E+03 -0.25656686810E+03  0.36605039842E+03  0.52043047942E+03  0.00000000000E+00 0.  1.
<mgrwt>
<rscale>  0 0.15944109E+04</rscale>
<asrwt>0</asrwt>
<pdfrwt beam="1">  1        2 0.26603675E+00 0.15944109E+04</pdfrwt>
<pdfrwt beam="2">  1       -2 0.56542128E-01 0.15944109E+04</pdfrwt>
<totfact> 0.26591292E+01</totfact>
</mgrwt>
</event>
<event>
12    1  0.1442183E-007  0.2180479E+04  0.7818608E-02  0.8526597E-01
          3   -1    0    0  501    0  0.00000000000E+00  0.00000000000E+00  0.28622847024E+04  0.28622847024E+04  0.00000000000E+00 0. -1.
         -3   -1    0    0    0  501 -0.00000000000E+00 -0.00000000000E+00 -0.41527029590E+03  0.41527029590E+03  0.00000000000E+00 0.  1.
         23    2    1    2    0    0  0.38656605076E+03 -0.40744466502E+03 -0.28086343030E+02  0.56981003703E+03  0.91924800696E+02 0.  0.
        254    2    1    2    0    0 -0.38656605076E+03  0.40744466502E+03  0.24751007496E+04  0.27077449613E+04  0.94356482994E+03 0.  0.
        -24    2    4    4    0    0  0.14514000455E+03  0.50410071448E+03  0.14894111193E+04  0.15811039830E+04  0.79756953360E+02 0.  0.
         24    2    4    4    0    0 -0.53170605531E+03 -0.96656049454E+02  0.98568963029E+03  0.11266409783E+04  0.75379875028E+02 0.  0.
         13    1    3    3    0    0  0.20309727098E+03 -0.25395266509E+03  0.20094191662E+02  0.32579784242E+03  0.00000000000E+00 0.  1.
        -13    1    3    3    0    0  0.18346877978E+03 -0.15349199993E+03 -0.48180534692E+02  0.24401219462E+03  0.00000000000E+00 0. -1.
          2    1    6    6  502    0 -0.11860759126E+03 -0.44180632478E+01  0.16532889922E+03  0.20352131315E+03  0.00000000000E+00 0. -1.
          3    1    5    5  503    0  0.12371826422E+03  0.30241529432E+03  0.96649234317E+03  0.10202297136E+04  0.00000000000E+00 0. -1.
         -2    1    5    5    0  503  0.21421740330E+02  0.20168542016E+03  0.52291877610E+03  0.56087426938E+03  0.00000000000E+00 0.  1.
         -1    1    6    6    0  502 -0.41309846405E+03 -0.92237986206E+02  0.82036073107E+03  0.92311966514E+03  0.00000000000E+00 0.  1.
<mgrwt>
<rscale>  0 0.21804787E+04</rscale>
<asrwt>0</asrwt>
<pdfrwt beam="1">  1        3 0.44035148E+00 0.21804787E+04</pdfrwt>
<pdfrwt beam="2">  1       -3 0.63887739E-01 0.21804787E+04</pdfrwt>
<totfact> 0.38935223E-02</totfact>
</mgrwt>
</event>
<event>
12    1  0.1442183E-007  0.1315071E+04  0.7818608E-02  0.9017698E-01
         -2   -1    0    0    0  501 -0.00000000000E+00  0.00000000000E+00  0.37563171908E+03  0.37563171908E+03  0.00000000000E+00 0.  1.
          2   -1    0    0  501    0  0.00000000000E+00 -0.00000000000E+00 -0.11510019669E+04  0.11510019669E+04  0.00000000000E+00 0. -1.
         23    2    1    2    0    0 -0.13151389414E+03 -0.28805547519E+03 -0.48745989053E+02  0.33183185136E+03  0.86396440849E+02 0.  0.
        254    2    1    2    0    0  0.13151389414E+03  0.28805547519E+03 -0.72662425873E+03  0.11948018346E+04  0.89403397554E+03 0.  0.
        -24    2    4    4    0    0  0.39465961206E+03  0.45639173944E+03 -0.36351200883E+03  0.70899449428E+03  0.80514490198E+02 0.  0.
         24    2    4    4    0    0 -0.26314571791E+03 -0.16833626425E+03 -0.36311224990E+03  0.48580734031E+03  0.81089451566E+02 0.  0.
         11    1    3    3    0    0 -0.72203726998E+01 -0.96092775647E+01 -0.22834504203E+02  0.25804778229E+02  0.00000000000E+00 0. -1.
        -11    1    3    3    0    0 -0.12429352144E+03 -0.27844619762E+03 -0.25911484850E+02  0.30602707313E+03  0.00000000000E+00 0.  1.
          4    1    6    6  502    0 -0.23922036816E+03 -0.13548858813E+03 -0.34545278596E+03  0.44149877620E+03  0.00000000000E+00 0. -1.
          1    1    5    5  503    0  0.34388148889E+03  0.35845310796E+03 -0.31704524512E+03  0.58928838140E+03  0.00000000000E+00 0. -1.
         -2    1    5    5    0  503  0.50778123166E+02  0.97938631484E+02 -0.46466763715E+02  0.11970611287E+03  0.00000000000E+00 0.  1.
         -3    1    6    6    0  502 -0.23925349753E+02 -0.32847676122E+02 -0.17659463944E+02  0.44308564118E+02  0.00000000000E+00 0.  1.
<mgrwt>
<rscale>  0 0.13150709E+04</rscale>
<asrwt>0</asrwt>
<pdfrwt beam="1">  1        2 0.17707723E+00 0.13150709E+04</pdfrwt>
<pdfrwt beam="2">  1       -2 0.57789495E-01 0.13150709E+04</pdfrwt>
<totfact> 0.55648564E+01</totfact>
</mgrwt>
</event>
<event>
12    1  0.1442183E-007  0.2298405E+04  0.7818608E-02  0.8478550E-01
         -2   -1    0    0    0  501 -0.00000000000E+00  0.00000000000E+00  0.77001608438E+03  0.77001608438E+03  0.00000000000E+00 0.  1.
          2   -1    0    0  501    0  0.00000000000E+00 -0.00000000000E+00 -0.17151150354E+04  0.17151150354E+04  0.00000000000E+00 0. -1.
         23    2    1    2    0    0  0.85043508617E+03  0.14656377064E+03  0.79158443837E+02  0.87125275947E+03  0.89969644910E+02 0.  0.
        254    2    1    2    0    0 -0.85043508617E+03 -0.14656377064E+03 -0.10242573948E+04  0.16138783603E+04  0.90043288272E+03 0.  0.
        -24    2    4    4    0    0 -0.31424517291E+03  0.29748163137E+03 -0.73196204667E+03  0.85447203909E+03  0.84312977191E+02 0.  0.
         24    2    4    4    0    0 -0.53618991325E+03 -0.44404540201E+03 -0.29229534817E+03  0.75940632120E+03  0.81150773257E+02 0.  0.
         13    1    3    3    0    0  0.41373657558E+03  0.83129270901E+02  0.82322192172E+02  0.42995973413E+03  0.00000000000E+00 0.  1.
        -13    1    3    3    0    0  0.43669851059E+03  0.63434499742E+02 -0.31637483344E+01  0.44129302534E+03  0.00000000000E+00 0. -1.
          4    1    6    6  502    0 -0.98338551672E+02 -0.81568756582E+02 -0.20695467331E+02  0.12943042596E+03  0.00000000000E+00 0. -1.
          1    1    5    5  503    0 -0.26433413489E+02  0.68781467768E+01 -0.82965388828E+02  0.87345806969E+02  0.00000000000E+00 0. -1.
         -2    1    5    5    0  503 -0.28781175943E+03  0.29060348459E+03 -0.64899665784E+03  0.76712623212E+03  0.00000000000E+00 0.  1.
         -3    1    6    6    0  502 -0.43785136158E+03 -0.36247664543E+03 -0.27159988084E+03  0.62997589524E+03  0.00000000000E+00 0.  1.
<mgrwt>
<rscale>  0 0.22984048E+04</rscale>
<asrwt>0</asrwt>
<pdfrwt beam="1">  1        2 0.26386385E+00 0.22984048E+04</pdfrwt>
<pdfrwt beam="2">  1       -2 0.11846401E+00 0.22984048E+04</pdfrwt>
<totfact> 0.47823141E+00</totfact>
</mgrwt>
</event>
<event>
12    1  0.1442183E-007  0.1793573E+04  0.7818608E-02  0.8709725E-01
          2   -1    0    0  501    0  0.00000000000E+00  0.00000000000E+00  0.52217184016E+03  0.52217184016E+03  0.00000000000E+00 0. -1.
         -2   -1    0    0    0  501 -0.00000000000E+00 -0.00000000000E+00 -0.15401557507E+04  0.15401557507E+04  0.00000000000E+00 0.  1.
         23    2    1    2    0    0  0.24971560299E+03 -0.18996498773E+03 -0.10638317646E+04  0.11132089056E+04  0.95139189172E+02 0.  0.
        254    2    1    2    0    0 -0.24971560299E+03  0.18996498773E+03  0.45847854047E+02  0.94911868522E+03  0.89458351984E+03 0.  0.
        -24    2    4    4    0    0 -0.19990570781E+03  0.51342877615E+03 -0.12767301275E+03  0.57037973947E+03  0.73900262664E+02 0.  0.
         24    2    4    4    0    0 -0.49809895175E+02 -0.32346378841E+03  0.17352086679E+03  0.37873894575E+03  0.78891379380E+02 0.  0.
         13    1    3    3    0    0 -0.17657000158E+01 -0.68335523446E+01 -0.10360310326E+03  0.10384323829E+03  0.00000000000E+00 0. -1.
        -13    1    3    3    0    0  0.25148130300E+03 -0.18313143539E+03 -0.96022866132E+03  0.10093656673E+04  0.00000000000E+00 0.  1.
          4    1    6    6  502    0 -0.59964970414E+02 -0.19309050458E+03  0.77620735889E+02  0.21657497380E+03  0.00000000000E+00 0. -1.
          3    1    5    5  503    0 -0.19567839136E+03  0.44081466468E+03 -0.12161401479E+03  0.49739076191E+03  0.00000000000E+00 0. -1.
         -4    1    5    5    0  503 -0.42273164502E+01  0.72614111471E+02 -0.60589979598E+01  0.72988977561E+02  0.00000000000E+00 0.  1.
         -3    1    6    6    0  502  0.10155075239E+02 -0.13037328383E+03  0.95900130905E+02  0.16216397195E+03  0.00000000000E+00 0.  1.
<mgrwt>
<rscale>  0 0.17935729E+04</rscale>
<asrwt>0</asrwt>
<pdfrwt beam="1">  1        2 0.80334130E-01 0.17935729E+04</pdfrwt>
<pdfrwt beam="2">  1       -2 0.23694704E+00 0.17935729E+04</pdfrwt>
<totfact> 0.42763502E+00</totfact>
</mgrwt>
</event>
<event>
12    1  0.1442183E-007  0.1963395E+04  0.7818608E-02  0.8623928E-01
         -1   -1    0    0    0  501 -0.00000000000E+00  0.00000000000E+00  0.11212088931E+04  0.11212088931E+04  0.00000000000E+00 0.  1.
          1   -1    0    0  501    0  0.00000000000E+00 -0.00000000000E+00 -0.85954574241E+03  0.85954574241E+03  0.00000000000E+00 0. -1.
         23    2    1    2    0    0  0.45387430332E+02  0.40075004610E+03 -0.55967280688E+03  0.69606652750E+03  0.92813477810E+02 0.  0.
        254    2    1    2    0    0 -0.45387430332E+02 -0.40075004610E+03  0.82133595760E+03  0.12846881080E+04  0.90175948092E+03 0.  0.
        -24    2    4    4    0    0 -0.93292729080E+02 -0.64375827942E+03  0.78546284768E+03  0.10231656315E+04  0.82387915932E+02 0.  0.
         24    2    4    4    0    0  0.47905298747E+02  0.24300823332E+03  0.35873109914E+02  0.26152247658E+03  0.75889436883E+02 0.  0.
         13    1    3    3    0    0  0.13066571851E+02  0.30686502803E+03 -0.47458614309E+03  0.56530424370E+03  0.00000000000E+00 0. -1.
        -13    1    3    3    0    0  0.32320858481E+02  0.93885018065E+02 -0.85086663792E+02  0.13076228380E+03  0.00000000000E+00 0.  1.
          4    1    6    6  502    0  0.29371167990E+02  0.23806170625E+03  0.33392454610E+02  0.24217988669E+03  0.00000000000E+00 0. -1.
          1    1    5    5  503    0 -0.75991426719E+02 -0.44115276754E+03  0.59468052131E+03  0.74433553164E+03  0.00000000000E+00 0. -1.
         -2    1    5    5    0  503 -0.17301302361E+02 -0.20260551188E+03  0.19078232638E+03  0.27883009982E+03  0.00000000000E+00 0.  1.
         -3    1    6    6    0  502  0.18534130757E+02  0.49465270761E+01  0.24806553039E+01  0.19342589893E+02  0.00000000000E+00 0.  1.
<mgrwt>
<rscale>  0 0.19633954E+04</rscale>
<asrwt>0</asrwt>
<pdfrwt beam="1">  1        1 0.13223781E+00 0.19633954E+04</pdfrwt>
<pdfrwt beam="2">  1       -1 0.17249368E+00 0.19633954E+04</pdfrwt>
<totfact> 0.43160693E+00</totfact>
</mgrwt>
</event>
<event>
12    1  0.1442183E-007  0.2265124E+04  0.7818608E-02  0.8491800E-01
          2   -1    0    0  501    0  0.00000000000E+00  0.00000000000E+00  0.11798523862E+04  0.11798523862E+04  0.00000000000E+00 0. -1.
         -2   -1    0    0    0  501 -0.00000000000E+00 -0.00000000000E+00 -0.10871675393E+04  0.10871675393E+04  0.00000000000E+00 0.  1.
         23    2    1    2    0    0  0.91348770870E+03  0.25924328166E+03 -0.29740633744E+02  0.95434770784E+03  0.90709255984E+02 0.  0.
        254    2    1    2    0    0 -0.91348770870E+03 -0.25924328166E+03  0.12242548056E+03  0.13126722177E+04  0.89802754950E+03 0.  0.
        -24    2    4    4    0    0 -0.73312819641E+03  0.13941895189E+03 -0.18320604418E+03  0.77264254846E+03  0.80606802197E+02 0.  0.
         24    2    4    4    0    0 -0.18035951230E+03 -0.39866223354E+03  0.30563152473E+03  0.54002966919E+03  0.82220949650E+02 0.  0.
         11    1    3    3    0    0  0.52315723313E+03  0.13585549435E+03  0.26368625814E+02  0.54115202148E+03  0.00000000000E+00 0. -1.
        -11    1    3    3    0    0  0.39033047557E+03  0.12338778731E+03 -0.56109259558E+02  0.41319568636E+03  0.00000000000E+00 0.  1.
          2    1    6    6  502    0 -0.17930804733E+02 -0.73519962629E+02  0.89347617719E+02  0.11708840872E+03  0.00000000000E+00 0. -1.
          1    1    5    5  503    0 -0.59863268976E+03  0.81894623956E+02 -0.15291790796E+03  0.62325894559E+03  0.00000000000E+00 0. -1.
         -2    1    5    5    0  503 -0.13449550665E+03  0.57524327930E+02 -0.30288136216E+02  0.14938360288E+03  0.00000000000E+00 0.  1.
         -1    1    6    6    0  502 -0.16242870756E+03 -0.32514227092E+03  0.21628390702E+03  0.42294126047E+03  0.00000000000E+00 0.  1.
<mgrwt>
<rscale>  0 0.22651245E+04</rscale>
<asrwt>0</asrwt>
<pdfrwt beam="1">  1        2 0.18151575E+00 0.22651245E+04</pdfrwt>
<pdfrwt beam="2">  1       -2 0.16725655E+00 0.22651245E+04</pdfrwt>
<totfact> 0.39485985E+00</totfact>
</mgrwt>
</event>
<event>
12    1  0.1442183E-007  0.2646508E+04  0.7818608E-02  0.8352573E-01
         -1   -1    0    0    0  501 -0.00000000000E+00  0.00000000000E+00  0.42326764980E+03  0.42326764980E+03  0.00000000000E+00 0.  1.
          1   -1    0    0  501    0  0.00000000000E+00 -0.00000000000E+00 -0.41368646241E+04  0.41368646241E+04  0.00000000000E+00 0. -1.
         23    2    1    2    0    0 -0.14095903093E+03  0.48276254625E+03  0.17212962234E+03  0.53929305213E+03  0.90990465017E+02 0.  0.
        254    2    1    2    0    0  0.14095903093E+03 -0.48276254625E+03 -0.38857265967E+04  0.40208392218E+04  0.90296607851E+03 0.  0.
        -24    2    4    4    0    0 -0.16408027213E+03  0.20332966579E+03 -0.85721599491E+03  0.89951687132E+03  0.77756357689E+02 0.  0.
         24    2    4    4    0    0  0.30503930305E+03 -0.68609221204E+03 -0.30285106018E+04  0.31213223505E+04  0.83697376062E+02 0.  0.
         11    1    3    3    0    0  0.17754107876E+01  0.12722599835E+03  0.55501324390E+02  0.13881643905E+03  0.00000000000E+00 0. -1.
        -11    1    3    3    0    0 -0.14273444172E+03  0.35553654790E+03  0.11662829795E+03  0.40047661308E+03  0.00000000000E+00 0.  1.
          2    1    6    6  502    0  0.77900901011E+02 -0.10055447797E+03 -0.48076272640E+03  0.49730529106E+03  0.00000000000E+00 0. -1.
          3    1    5    5  503    0 -0.11424203873E+03  0.80952749409E+02 -0.46675663572E+03  0.48730518984E+03  0.00000000000E+00 0. -1.
         -4    1    5    5    0  503 -0.49838233391E+02  0.12237691638E+03 -0.39045935919E+03  0.41221168148E+03  0.00000000000E+00 0.  1.
         -1    1    6    6    0  502  0.22713840204E+03 -0.58553773407E+03 -0.25477478754E+04  0.26240170594E+04  0.00000000000E+00 0.  1.
<mgrwt>
<rscale>  0 0.26465079E+04</rscale>
<asrwt>0</asrwt>
<pdfrwt beam="1">  1        1 0.63644073E+00 0.26465079E+04</pdfrwt>
<pdfrwt beam="2">  1       -1 0.65118098E-01 0.26465079E+04</pdfrwt>
<totfact> 0.15195445E-01</totfact>
</mgrwt>
</event>
<event>
12    1  0.1442183E-007  0.1328136E+04  0.7818608E-02  0.9007546E-01
          1   -1    0    0  501    0  0.00000000000E+00  0.00000000000E+00  0.94215081730E+03  0.94215081730E+03  0.00000000000E+00 0. -1.
         -1   -1    0    0    0  501 -0.00000000000E+00 -0.00000000000E+00 -0.46806314076E+03  0.46806314076E+03  0.00000000000E+00 0.  1.
         23    2    1    2    0    0 -0.49459318930E+02  0.20127003334E+03  0.43914439288E+03  0.49764422257E+03  0.10883990036E+03 0.  0.
        254    2    1    2    0    0  0.49459318930E+02 -0.20127003334E+03  0.34943283653E+02  0.91256973549E+03  0.88803526873E+03 0.  0.
        -24    2    4    4    0    0 -0.22518506643E+02  0.33060814762E+03  0.12353652176E+03  0.36284586548E+03  0.81160455072E+02 0.  0.
         24    2    4    4    0    0  0.71977825573E+02 -0.53187818097E+03 -0.88593238110E+02  0.54972387001E+03  0.79198261739E+02 0.  0.
         11    1    3    3    0    0 -0.75618106382E+01  0.17478799273E+03  0.39186433941E+03  0.42914529461E+03  0.00000000000E+00 0. -1.
        -11    1    3    3    0    0 -0.41897508292E+02  0.26482040610E+02  0.47280053467E+02  0.68498927961E+02  0.00000000000E+00 0.  1.
          4    1    6    6  502    0  0.86571061047E+02 -0.40891542670E+03 -0.80286258786E+02  0.42561985169E+03  0.00000000000E+00 0. -1.
          3    1    5    5  503    0 -0.11112193472E+02  0.32853047816E+03  0.12377556507E+03  0.35124940773E+03  0.00000000000E+00 0. -1.
         -2    1    5    5    0  503 -0.11406313171E+02  0.20776694635E+01 -0.23904330224E+00  0.11596457746E+02  0.00000000000E+00 0.  1.
         -3    1    6    6    0  502 -0.14593235474E+02 -0.12296275427E+03 -0.83069793235E+01  0.12410401833E+03  0.00000000000E+00 0.  1.
<mgrwt>
<rscale>  0 0.13281356E+04</rscale>
<asrwt>0</asrwt>
<pdfrwt beam="1">  1        1 0.14494628E+00 0.13281356E+04</pdfrwt>
<pdfrwt beam="2">  1       -1 0.72009714E-01 0.13281356E+04</pdfrwt>
<totfact> 0.32094856E+01</totfact>
</mgrwt>
</event>
<event>
12    1  0.1442183E-007  0.1032223E+04  0.7818608E-02  0.9273892E-01
         -1   -1    0    0    0  501 -0.00000000000E+00  0.00000000000E+00  0.21849756675E+03  0.21849756675E+03  0.00000000000E+00 0.  1.
          1   -1    0    0  501    0  0.00000000000E+00 -0.00000000000E+00 -0.12191038315E+04  0.12191038315E+04  0.00000000000E+00 0. -1.
         23    2    1    2    0    0  0.66623567923E+02  0.73584765983E+02 -0.13787052612E+03  0.19904697220E+03  0.10372076736E+03 0.  0.
        254    2    1    2    0    0 -0.66623567923E+02 -0.73584765983E+02 -0.86273573863E+03  0.12385544261E+04  0.88309155472E+03 0.  0.
        -24    2    4    4    0    0  0.22951264272E+03  0.26236801598E+03 -0.63837591208E+03  0.73167105284E+03  0.79408409273E+02 0.  0.
         24    2    4    4    0    0 -0.29613621064E+03 -0.33595278196E+03 -0.22435982655E+03  0.50688337322E+03  0.77669140053E+02 0.  0.
         13    1    3    3    0    0  0.49605408214E+02 -0.83518815064E+01 -0.88738532096E+02  0.10200479169E+03  0.00000000000E+00 0. -1.
        -13    1    3    3    0    0  0.17018159709E+02  0.81936647489E+02 -0.49131994024E+02  0.97042180511E+02  0.00000000000E+00 0.  1.
          4    1    6    6  502    0 -0.16373881185E+03 -0.20357934379E+03 -0.17086498214E+03  0.31216948897E+03  0.00000000000E+00 0. -1.
          1    1    5    5  503    0  0.66245452727E+02  0.61144856943E+02 -0.10298854981E+03  0.13687145403E+03  0.00000000000E+00 0. -1.
         -2    1    5    5    0  503  0.16326718999E+03  0.20122315904E+03 -0.53538736227E+03  0.59479959881E+03  0.00000000000E+00 0.  1.
         -3    1    6    6    0  502 -0.13239739879E+03 -0.13237343818E+03 -0.53494844408E+02  0.19471388425E+03  0.00000000000E+00 0.  1.
<mgrwt>
<rscale>  0 0.10322233E+04</rscale>
<asrwt>0</asrwt>
<pdfrwt beam="1">  1        1 0.18755443E+00 0.10322233E+04</pdfrwt>
<pdfrwt beam="2">  1       -1 0.33615011E-01 0.10322233E+04</pdfrwt>
<totfact> 0.86294345E+01</totfact>
</mgrwt>
</event>
<event>
12    1  0.1442183E-007  0.1483721E+04  0.7818608E-02  0.8895351E-01
         -2   -1    0    0    0  501 -0.00000000000E+00  0.00000000000E+00  0.21391652393E+03  0.21391652393E+03  0.00000000000E+00 0.  1.
          2   -1    0    0  501    0  0.00000000000E+00 -0.00000000000E+00 -0.25727665877E+04  0.25727665877E+04  0.00000000000E+00 0. -1.
         23    2    1    2    0    0 -0.20104757097E+03 -0.22309154847E+03 -0.10382439331E+03  0.33057298921E+03  0.91153890506E+02 0.  0.
        254    2    1    2    0    0  0.20104757097E+03  0.22309154847E+03 -0.22550256704E+04  0.24561101224E+04  0.92582190200E+03 0.  0.
        -24    2    4    4    0    0  0.47961570688E+03 -0.13243357152E+03 -0.99389111653E+03  0.11143364241E+04  0.79726014618E+02 0.  0.
         24    2    4    4    0    0 -0.27856813590E+03  0.35552511998E+03 -0.12611345539E+04  0.13417736983E+04  0.76798288439E+02 0.  0.
         11    1    3    3    0    0 -0.13238273626E+03 -0.93609645774E+02 -0.24668634693E+02  0.16400151274E+03  0.00000000000E+00 0.  1.
        -11    1    3    3    0    0 -0.68664834714E+02 -0.12948190269E+03 -0.79155758621E+02  0.16657147647E+03  0.00000000000E+00 0. -1.
          2    1    6    6  502    0 -0.32318816976E+02  0.28840651071E+02 -0.19710799409E+03  0.20181142291E+03  0.00000000000E+00 0. -1.
          1    1    5    5  503    0  0.15182128895E+02  0.92050590635E+01 -0.46313923499E+02  0.49600500602E+02  0.00000000000E+00 0. -1.
         -2    1    5    5    0  503  0.46443357798E+03 -0.14163863058E+03 -0.94757719304E+03  0.10647359235E+04  0.00000000000E+00 0.  1.
         -1    1    6    6    0  502 -0.24624931893E+03  0.32668446891E+03 -0.10640265598E+04  0.11399622754E+04  0.00000000000E+00 0.  1.
<mgrwt>
<rscale>  0 0.14837214E+04</rscale>
<asrwt>0</asrwt>
<pdfrwt beam="1">  1        2 0.39581023E+00 0.14837214E+04</pdfrwt>
<pdfrwt beam="2">  1       -2 0.32910236E-01 0.14837214E+04</pdfrwt>
<totfact> 0.26402382E+01</totfact>
</mgrwt>
</event>
<event>
12    1  0.1442183E-007  0.1266001E+04  0.7818608E-02  0.9056970E-01
         -2   -1    0    0    0  501 -0.00000000000E+00  0.00000000000E+00  0.34988778420E+03  0.34988778420E+03  0.00000000000E+00 0. -1.
          2   -1    0    0  501    0  0.00000000000E+00 -0.00000000000E+00 -0.11451945005E+04  0.11451945005E+04  0.00000000000E+00 0.  1.
         23    2    1    2    0    0 -0.22464546617E+03 -0.17908256224E+03 -0.34659118422E+03  0.45869572222E+03  0.87978219096E+02 0.  0.
        254    2    1    2    0    0  0.22464546617E+03  0.17908256224E+03 -0.44871553213E+03  0.10363865625E+04  0.88894056530E+03 0.  0.
        -24    2    4    4    0    0 -0.17795365429E+03  0.12191720570E+02 -0.54896130296E+03  0.58242168794E+03  0.77719812853E+02 0.  0.
         24    2    4    4    0    0  0.40259912046E+03  0.16689084167E+03  0.10024577083E+03  0.45396487458E+03  0.78078729212E+02 0.  0.
         11    1    3    3    0    0 -0.39641218543E+02 -0.63798607768E+02 -0.13730972757E+03  0.15651086176E+03  0.00000000000E+00 0. -1.
        -11    1    3    3    0    0 -0.18500424763E+03 -0.11528395447E+03 -0.20928145664E+03  0.30218486046E+03  0.00000000000E+00 0.  1.
          2    1    6    6  502    0  0.36880244079E+03  0.17377882039E+03  0.98528067044E+02  0.41943068408E+03  0.00000000000E+00 0. -1.
          1    1    5    5  503    0 -0.13050925990E+03 -0.15835463799E+02 -0.45377806493E+03  0.47243831454E+03  0.00000000000E+00 0. -1.
         -2    1    5    5    0  503 -0.47444394391E+02  0.28027184370E+02 -0.95183238034E+02  0.10998337340E+03  0.00000000000E+00 0.  1.
         -1    1    6    6    0  502  0.33796679668E+02 -0.68879787202E+01  0.17177037865E+01  0.34534190503E+02  0.00000000000E+00 0.  1.
<mgrwt>
<rscale>  0 0.12660009E+04</rscale>
<asrwt>0</asrwt>
<pdfrwt beam="1">  1        2 0.17618377E+00 0.12660009E+04</pdfrwt>
<pdfrwt beam="2">  1       -2 0.53828890E-01 0.12660009E+04</pdfrwt>
<totfact> 0.65276462E+01</totfact>
</mgrwt>
</event>
<event>
12    1  0.1442183E-007  0.1488818E+04  0.7818608E-02  0.8891923E-01
         -1   -1    0    0    0  501 -0.00000000000E+00  0.00000000000E+00  0.13609319999E+03  0.13609319999E+03  0.00000000000E+00 0.  1.
          1   -1    0    0  501    0  0.00000000000E+00 -0.00000000000E+00 -0.40718021834E+04  0.40718021834E+04  0.00000000000E+00 0. -1.
         23    2    1    2    0    0 -0.96291103987E+02 -0.46150036780E+03 -0.15907693704E+04  0.16617981679E+04  0.93655725216E+02 0.  0.
        254    2    1    2    0    0  0.96291103987E+02  0.46150036780E+03 -0.23449396131E+04  0.25460972155E+04  0.87270537745E+03 0.  0.
        -24    2    4    4    0    0  0.22452312727E+03 -0.11831825323E+03 -0.24212184413E+03  0.35958045797E+03  0.79153487727E+02 0.  0.
         24    2    4    4    0    0 -0.12823202328E+03  0.57981862103E+03 -0.21028177689E+04  0.21865167576E+04  0.79874130307E+02 0.  0.
         11    1    3    3    0    0 -0.46954259399E+02 -0.68972575003E+02 -0.22904374232E+03  0.24376823926E+03  0.00000000000E+00 0.  1.
        -11    1    3    3    0    0 -0.49336844588E+02 -0.39252779280E+03 -0.13617256281E+04  0.14180299286E+04  0.00000000000E+00 0. -1.
          2    1    6    6  502    0 -0.38451862293E+02  0.34027070497E+03 -0.12631187031E+04  0.13087137030E+04  0.00000000000E+00 0. -1.
          1    1    5    5  503    0  0.16973948688E+03 -0.58532236841E+02 -0.13211774076E+03  0.22291840117E+03  0.00000000000E+00 0. -1.
         -2    1    5    5    0  503  0.54783640391E+02 -0.59786016389E+02 -0.11000410337E+03  0.13666205680E+03  0.00000000000E+00 0.  1.
         -1    1    6    6    0  502 -0.89780160989E+02  0.23954791606E+03 -0.83969906586E+03  0.87780305457E+03  0.00000000000E+00 0.  1.
<mgrwt>
<rscale>  0 0.14888178E+04</rscale>
<asrwt>0</asrwt>
<pdfrwt beam="1">  1        1 0.62643107E+00 0.14888178E+04</pdfrwt>
<pdfrwt beam="2">  1       -1 0.20937417E-01 0.14888178E+04</pdfrwt>
<totfact> 0.15515938E+00</totfact>
</mgrwt>
</event>
<event>
12    1  0.1442183E-007  0.2950962E+04  0.7818608E-02  0.8257874E-01
         -2   -1    0    0    0  501 -0.00000000000E+00  0.00000000000E+00  0.10121532723E+04  0.10121532723E+04  0.00000000000E+00 0.  1.
          2   -1    0    0  501    0  0.00000000000E+00 -0.00000000000E+00 -0.21509038457E+04  0.21509038457E+04  0.00000000000E+00 0. -1.
         23    2    1    2    0    0 -0.10040643384E+04 -0.59130787346E+03  0.18621148845E+03  0.11835615881E+04  0.91395390666E+02 0.  0.
        254    2    1    2    0    0  0.10040643384E+04  0.59130787346E+03 -0.13249620618E+04  0.19794955300E+04  0.89726690067E+03 0.  0.
        -24    2    4    4    0    0  0.20043931466E+03 -0.19027236575E+03 -0.53040951372E+03  0.60332683958E+03  0.79306563908E+02 0.  0.
         24    2    4    4    0    0  0.80362502377E+03  0.78158023921E+03 -0.79455254812E+03  0.13761686904E+04  0.76456939528E+02 0.  0.
         11    1    3    3    0    0 -0.32338596324E+03 -0.14721060488E+03  0.36980908159E+02  0.35723525999E+03  0.00000000000E+00 0. -1.
        -11    1    3    3    0    0 -0.68067837518E+03 -0.44409726858E+03  0.14923058029E+03  0.82632632809E+03  0.00000000000E+00 0.  1.
          2    1    6    6  502    0  0.20042298758E+03  0.15056830082E+03 -0.17734488837E+03  0.30706904206E+03  0.00000000000E+00 0. -1.
          3    1    5    5  503    0 -0.42158494609E+01 -0.13804712768E+02 -0.12235978635E+02  0.18922543551E+02  0.00000000000E+00 0. -1.
         -4    1    5    5    0  503  0.20465516412E+03 -0.17646765299E+03 -0.51817353509E+03  0.58440429603E+03  0.00000000000E+00 0.  1.
         -1    1    6    6    0  502  0.60320203619E+03  0.63101193839E+03 -0.61720765976E+03  0.10690996484E+04  0.00000000000E+00 0.  1.
<mgrwt>
<rscale>  0 0.29509621E+04</rscale>
<asrwt>0</asrwt>
<pdfrwt beam="1">  1        2 0.33090828E+00 0.29509621E+04</pdfrwt>
<pdfrwt beam="2">  1       -2 0.15571589E+00 0.29509621E+04</pdfrwt>
<totfact> 0.12822729E+00</totfact>
</mgrwt>
</event>
<event>
12    1  0.1442183E-007  0.2860975E+04  0.7818608E-02  0.8284584E-01
         -2   -1    0    0    0  501 -0.00000000000E+00  0.00000000000E+00  0.37127079767E+04  0.37127079767E+04  0.00000000000E+00 0.  1.
          2   -1    0    0  501    0  0.00000000000E+00 -0.00000000000E+00 -0.55115950671E+03  0.55115950671E+03  0.00000000000E+00 0. -1.
         23    2    1    2    0    0 -0.96391538201E+03  0.19751477737E+03  0.18865665803E+03  0.10062932512E+04  0.94285851360E+02 0.  0.
        254    2    1    2    0    0  0.96391538201E+03 -0.19751477737E+03  0.29728918119E+04  0.32575742322E+04  0.89752949919E+03 0.  0.
        -24    2    4    4    0    0 -0.86489781476E+02  0.14725282486E+03  0.20659192899E+03  0.27746817316E+03  0.71725067189E+02 0.  0.
         24    2    4    4    0    0  0.10504051635E+04 -0.34476760223E+03  0.27662998830E+04  0.29801060591E+04  0.80008585521E+02 0.  0.
         13    1    3    3    0    0 -0.36433780959E+03  0.37783649845E+02  0.41864322670E+02  0.36867636919E+03  0.00000000000E+00 0.  1.
        -13    1    3    3    0    0 -0.59957757243E+03  0.15973112752E+03  0.14679233536E+03  0.63761688197E+03  0.00000000000E+00 0. -1.
          4    1    6    6  502    0  0.16327489992E+03 -0.57730641411E+02  0.36053121857E+03  0.39996784804E+03  0.00000000000E+00 0. -1.
          1    1    5    5  503    0 -0.15029673085E+02  0.37794281038E+02  0.10279931430E+03  0.11055314456E+03  0.00000000000E+00 0. -1.
         -2    1    5    5    0  503 -0.71460108391E+02  0.10945854382E+03  0.10379261469E+03  0.16691502860E+03  0.00000000000E+00 0.  1.
         -3    1    6    6    0  502  0.88713026357E+03 -0.28703696082E+03  0.24057686644E+04  0.25801382110E+04  0.00000000000E+00 0.  1.
<mgrwt>
<rscale>  0 0.28609749E+04</rscale>
<asrwt>0</asrwt>
<pdfrwt beam="1">  1        2 0.84793773E-01 0.28609749E+04</pdfrwt>
<pdfrwt beam="2">  1       -2 0.57118583E+00 0.28609749E+04</pdfrwt>
<totfact> 0.31642401E-02</totfact>
</mgrwt>
</event>
<event>
12    1  0.1442183E-007  0.1311245E+04  0.7818608E-02  0.9020695E-01
         -2   -1    0    0    0  501 -0.00000000000E+00  0.00000000000E+00  0.33522156345E+03  0.33522156345E+03  0.00000000000E+00 0.  1.
          2   -1    0    0  501    0  0.00000000000E+00 -0.00000000000E+00 -0.12822586933E+04  0.12822586933E+04  0.00000000000E+00 0. -1.
         23    2    1    2    0    0 -0.19006575395E+03  0.19365537877E+03 -0.50956353339E+03  0.58143432260E+03  0.69162709499E+02 0.  0.
        254    2    1    2    0    0  0.19006575395E+03 -0.19365537877E+03 -0.43747359646E+03  0.10360459342E+04  0.89909990186E+03 0.  0.
        -24    2    4    4    0    0  0.49525775903E+03 -0.32431130318E+03 -0.26432059237E+03  0.65323449442E+03  0.79949108180E+02 0.  0.
         24    2    4    4    0    0 -0.30519200508E+03  0.13065592441E+03 -0.17315300410E+03  0.38281143974E+03  0.79683781397E+02 0.  0.
         11    1    3    3    0    0 -0.22570168523E+01  0.25157211298E+02 -0.27559775696E+02  0.37383427368E+02  0.00000000000E+00 0.  1.
        -11    1    3    3    0    0 -0.18780873710E+03  0.16849816748E+03 -0.48200375769E+03  0.54405089523E+03  0.00000000000E+00 0. -1.
          2    1    6    6  502    0 -0.83061901343E+02 -0.89308790723E+00 -0.36786085562E+02  0.90847637018E+02  0.00000000000E+00 0. -1.
          1    1    5    5  503    0  0.82767917766E+01  0.22401678957E+01 -0.12392752474E+02  0.15069968420E+02  0.00000000000E+00 0. -1.
         -2    1    5    5    0  503  0.48698096725E+03 -0.32655147108E+03 -0.25192783989E+03  0.63816452600E+03  0.00000000000E+00 0.  1.
         -1    1    6    6    0  502 -0.22213010374E+03  0.13154901231E+03 -0.13636691853E+03  0.29196380272E+03  0.00000000000E+00 0.  1.
<mgrwt>
<rscale>  0 0.13112448E+04</rscale>
<asrwt>0</asrwt>
<pdfrwt beam="1">  1        2 0.19727057E+00 0.13112448E+04</pdfrwt>
<pdfrwt beam="2">  1       -2 0.51572548E-01 0.13112448E+04</pdfrwt>
<totfact> 0.58881696E+01</totfact>
</mgrwt>
</event>
<event>
12    1  0.1442183E-007  0.1586900E+04  0.7818608E-02  0.8828636E-01
          1   -1    0    0  501    0  0.00000000000E+00  0.00000000000E+00  0.16244023752E+04  0.16244023752E+04  0.00000000000E+00 0. -1.
         -1   -1    0    0    0  501 -0.00000000000E+00 -0.00000000000E+00 -0.38756601880E+03  0.38756601880E+03  0.00000000000E+00 0.  1.
         23    2    1    2    0    0 -0.48520599724E+03  0.10549694879E+03  0.17198667787E+03  0.53433104158E+03  0.96828604640E+02 0.  0.
        254    2    1    2    0    0  0.48520599724E+03 -0.10549694879E+03  0.10648496785E+04  0.14776373524E+04  0.89607635917E+03 0.  0.
        -24    2    4    4    0    0  0.20949194299E+03 -0.35961600659E+03  0.10042544835E+04  0.10899333662E+04  0.78848772073E+02 0.  0.
         24    2    4    4    0    0  0.27571405425E+03  0.25411905780E+03  0.60595195047E+02  0.38770398619E+03  0.77768039679E+02 0.  0.
         13    1    3    3    0    0 -0.12150518808E+03  0.14399168445E+02  0.12783498067E+01  0.12236208956E+03  0.00000000000E+00 0. -1.
        -13    1    3    3    0    0 -0.36370080916E+03  0.91097780340E+02  0.17070832806E+03  0.41196895202E+03  0.00000000000E+00 0.  1.
          2    1    6    6  502    0  0.19461958983E+03  0.18782175136E+03  0.78068210787E+02  0.28151099546E+03  0.00000000000E+00 0. -1.
          3    1    5    5  503    0  0.19412382049E+01 -0.52509923016E+02  0.14059818732E+03  0.15009633806E+03  0.00000000000E+00 0. -1.
         -4    1    5    5    0  503  0.20755070478E+03 -0.30710608357E+03  0.86365629618E+03  0.93983702819E+03  0.00000000000E+00 0.  1.
         -1    1    6    6    0  502  0.81094464418E+02  0.66297306440E+02 -0.17473015740E+02  0.10619299073E+03  0.00000000000E+00 0.  1.
<mgrwt>
<rscale>  0 0.15869003E+04</rscale>
<asrwt>0</asrwt>
<pdfrwt beam="1">  1        1 0.24990805E+00 0.15869003E+04</pdfrwt>
<pdfrwt beam="2">  1       -1 0.59625542E-01 0.15869003E+04</pdfrwt>
<totfact> 0.14706292E+01</totfact>
</mgrwt>
</event>
<event>
12    1  0.1442183E-007  0.2072140E+04  0.7818608E-02  0.8573616E-01
          1   -1    0    0  501    0  0.00000000000E+00  0.00000000000E+00  0.59692687836E+03  0.59692687836E+03  0.00000000000E+00 0. -1.
         -1   -1    0    0    0  501 -0.00000000000E+00 -0.00000000000E+00 -0.17982790062E+04  0.17982790062E+04  0.00000000000E+00 0.  1.
         23    2    1    2    0    0 -0.69934001414E+03 -0.30861679034E+03 -0.88744011717E+03  0.11748528456E+04  0.91697701966E+02 0.  0.
        254    2    1    2    0    0  0.69934001414E+03  0.30861679034E+03 -0.31391201069E+03  0.12203530390E+04  0.89799777878E+03 0.  0.
        -24    2    4    4    0    0  0.86809488941E+03  0.26029428895E+03 -0.73765104396E+02  0.91226205120E+03  0.73748935969E+02 0.  0.
         24    2    4    4    0    0 -0.16875487527E+03  0.48322501394E+02 -0.24014690629E+03  0.30809098780E+03  0.80226230717E+02 0.  0.
         11    1    3    3    0    0 -0.62019514655E+03 -0.30377701947E+03 -0.79650418424E+03  0.10542017895E+04  0.00000000000E+00 0.  1.
        -11    1    3    3    0    0 -0.79144867587E+02 -0.48397708697E+01 -0.90935932931E+02  0.12065105613E+03  0.00000000000E+00 0. -1.
          4    1    6    6  502    0 -0.14771779512E+03  0.39582570556E+02 -0.14672908099E+03  0.21193572161E+03  0.00000000000E+00 0. -1.
          1    1    5    5  503    0  0.60511988196E+03  0.15077504543E+03 -0.33027388938E+02  0.62449499141E+03  0.00000000000E+00 0. -1.
         -2    1    5    5    0  503  0.26297500745E+03  0.10951924352E+03 -0.40737715458E+02  0.28776705980E+03  0.00000000000E+00 0.  1.
         -3    1    6    6    0  502 -0.21037080153E+02  0.87399308377E+01 -0.93417825301E+02  0.96155266192E+02  0.00000000000E+00 0.  1.
<mgrwt>
<rscale>  0 0.20721400E+04</rscale>
<asrwt>0</asrwt>
<pdfrwt beam="1">  1        1 0.91834907E-01 0.20721400E+04</pdfrwt>
<pdfrwt beam="2">  1       -1 0.27665830E+00 0.20721400E+04</pdfrwt>
<totfact> 0.14884028E+00</totfact>
</mgrwt>
</event>
<event>
12    1  0.1442183E-007  0.1430080E+04  0.7818608E-02  0.8932328E-01
         -2   -1    0    0    0  501 -0.00000000000E+00  0.00000000000E+00  0.34722213151E+03  0.34722213151E+03  0.00000000000E+00 0.  1.
          2   -1    0    0  501    0  0.00000000000E+00 -0.00000000000E+00 -0.14724939798E+04  0.14724939798E+04  0.00000000000E+00 0. -1.
         23    2    1    2    0    0  0.67308066682E+02  0.40890610402E+03 -0.23497741614E+03  0.48558356734E+03  0.94034233252E+02 0.  0.
        254    2    1    2    0    0 -0.67308066682E+02 -0.40890610402E+03 -0.89029443216E+03  0.13341325440E+04  0.90307856317E+03 0.  0.
        -24    2    4    4    0    0 -0.38359103184E+03  0.50424596495E+01 -0.13750263717E+03  0.41529747845E+03  0.79984462701E+02 0.  0.
         24    2    4    4    0    0  0.31628296516E+03 -0.41394856367E+03 -0.75279179500E+03  0.91883506555E+03  0.78575210131E+02 0.  0.
         11    1    3    3    0    0  0.11100020629E+02  0.30062742214E+03 -0.14475149283E+03  0.33384585077E+03  0.00000000000E+00 0.  1.
        -11    1    3    3    0    0  0.56208046053E+02  0.10827868189E+03 -0.90225923310E+02  0.15173771657E+03  0.00000000000E+00 0. -1.
          2    1    6    6  502    0  0.26535668460E+03 -0.29132858361E+03 -0.56172083381E+03  0.68616092051E+03  0.00000000000E+00 0. -1.
          1    1    5    5  503    0 -0.24261164741E+03  0.27278236774E+02 -0.54342975985E+02  0.25011531880E+03  0.00000000000E+00 0. -1.
         -2    1    5    5    0  503 -0.14097938443E+03 -0.22235777125E+02 -0.83159661184E+02  0.16518215965E+03  0.00000000000E+00 0.  1.
         -1    1    6    6    0  502  0.50926280550E+02 -0.12261998006E+03 -0.19107096118E+03  0.23267414504E+03  0.00000000000E+00 0.  1.
<mgrwt>
<rscale>  0 0.14300804E+04</rscale>
<asrwt>0</asrwt>
<pdfrwt beam="1">  1        2 0.22653753E+00 0.14300804E+04</pdfrwt>
<pdfrwt beam="2">  1       -2 0.53418790E-01 0.14300804E+04</pdfrwt>
<totfact> 0.42198963E+01</totfact>
</mgrwt>
</event>
<event>
12    1  0.1442183E-007  0.1998482E+04  0.7818608E-02  0.8607331E-01
         -1   -1    0    0    0  501 -0.00000000000E+00  0.00000000000E+00  0.35236465897E+03  0.35236465897E+03  0.00000000000E+00 0.  1.
          1   -1    0    0  501    0  0.00000000000E+00 -0.00000000000E+00 -0.28336631745E+04  0.28336631745E+04  0.00000000000E+00 0. -1.
         23    2    1    2    0    0 -0.56508382115E+03  0.36422858129E+03 -0.27730200052E+03  0.73294790963E+03  0.91291042155E+02 0.  0.
        254    2    1    2    0    0  0.56508382115E+03 -0.36422858129E+03 -0.22039965150E+04  0.24530799238E+04  0.84143822721E+03 0.  0.
        -24    2    4    4    0    0  0.13216291117E+03  0.66062145402E+02 -0.15325949278E+04  0.15416079482E+04  0.76659059304E+02 0.  0.
         24    2    4    4    0    0  0.43292090998E+03 -0.43029072669E+03 -0.67140158724E+03  0.91147197558E+03  0.86200041439E+02 0.  0.
         11    1    3    3    0    0 -0.30882670220E+03  0.15761948452E+03 -0.11037713489E+03  0.36386940761E+03  0.00000000000E+00 0. -1.
        -11    1    3    3    0    0 -0.25625711896E+03  0.20660909677E+03 -0.16692486563E+03  0.36907850201E+03  0.00000000000E+00 0.  1.
          4    1    6    6  502    0  0.67950518223E+01  0.34783177676E+01 -0.40376133764E+01  0.86356091585E+01  0.00000000000E+00 0. -1.
          3    1    5    5  503    0  0.57358617337E+02  0.28070046631E+01 -0.32406049846E+03  0.32910955155E+03  0.00000000000E+00 0. -1.
         -4    1    5    5    0  503  0.74804293834E+02  0.63255140738E+02 -0.12085344293E+04  0.12124983967E+04  0.00000000000E+00 0.  1.
         -3    1    6    6    0  502  0.42612585816E+03 -0.43376904446E+03 -0.66736397387E+03  0.90283636642E+03  0.00000000000E+00 0.  1.
<mgrwt>
<rscale>  0 0.19984822E+04</rscale>
<asrwt>0</asrwt>
<pdfrwt beam="1">  1        1 0.43594819E+00 0.19984822E+04</pdfrwt>
<pdfrwt beam="2">  1       -1 0.54209947E-01 0.19984822E+04</pdfrwt>
<totfact> 0.25169997E+00</totfact>
</mgrwt>
</event>
<event>
12    1  0.1442183E-007  0.2840472E+04  0.7818608E-02  0.8290812E-01
          2   -1    0    0  501    0  0.00000000000E+00  0.00000000000E+00  0.13329090295E+04  0.13329090295E+04  0.00000000000E+00 0. -1.
         -2   -1    0    0    0  501 -0.00000000000E+00 -0.00000000000E+00 -0.15132845972E+04  0.15132845972E+04  0.00000000000E+00 0.  1.
         23    2    1    2    0    0  0.52527111293E+03  0.48245109642E+03  0.97746363838E+03  0.12133927732E+04  0.90653489070E+02 0.  0.
        254    2    1    2    0    0 -0.52527111293E+03 -0.48245109642E+03 -0.11578392061E+04  0.16328008535E+04  0.90375782014E+03 0.  0.
        -24    2    4    4    0    0 -0.73727375282E+03 -0.42338490335E+03 -0.64894363998E+03  0.10725747416E+04  0.80382619397E+02 0.  0.
         24    2    4    4    0    0  0.21200263989E+03 -0.59066193068E+02 -0.50889556616E+03  0.56022611191E+03  0.80278669111E+02 0.  0.
         11    1    3    3    0    0  0.36847588231E+03  0.34080538824E+03  0.75462481105E+03  0.90630094006E+03  0.00000000000E+00 0.  1.
        -11    1    3    3    0    0  0.15679523061E+03  0.14164570818E+03  0.22283882733E+03  0.30709183310E+03  0.00000000000E+00 0. -1.
          2    1    6    6  502    0  0.79763550755E+02 -0.11339403890E+02 -0.10359905702E+03  0.13123860227E+03  0.00000000000E+00 0. -1.
          1    1    5    5  503    0 -0.26862350682E+03 -0.14680439886E+03 -0.28220484934E+03  0.41635285148E+03  0.00000000000E+00 0. -1.
         -2    1    5    5    0  503 -0.46865024600E+03 -0.27658050449E+03 -0.36673879064E+03  0.65622189014E+03  0.00000000000E+00 0.  1.
         -1    1    6    6    0  502  0.13223908914E+03 -0.47726789178E+02 -0.40529650914E+03  0.42898750964E+03  0.00000000000E+00 0.  1.
<mgrwt>
<rscale>  0 0.28404723E+04</rscale>
<asrwt>0</asrwt>
<pdfrwt beam="1">  1        2 0.20506293E+00 0.28404723E+04</pdfrwt>
<pdfrwt beam="2">  1       -2 0.23281302E+00 0.28404723E+04</pdfrwt>
<totfact> 0.11264143E+00</totfact>
</mgrwt>
</event>
<event>
12    1  0.1442183E-007  0.1076694E+04  0.7818608E-02  0.9228210E-01
          2   -1    0    0  501    0  0.00000000000E+00  0.00000000000E+00  0.60493024476E+03  0.60493024476E+03  0.00000000000E+00 0. -1.
         -2   -1    0    0    0  501 -0.00000000000E+00 -0.00000000000E+00 -0.47909214563E+03  0.47909214563E+03  0.00000000000E+00 0.  1.
         23    2    1    2    0    0  0.12649601061E+03 -0.24452383907E+02  0.78478438406E+02  0.17754023356E+03  0.93608276647E+02 0.  0.
        254    2    1    2    0    0 -0.12649601061E+03  0.24452383907E+02  0.47359660716E+02  0.90648215683E+03  0.89602890769E+03 0.  0.
        -24    2    4    4    0    0  0.13858560574E+03  0.27290567360E+03 -0.27115293078E+03  0.41675250072E+03  0.80468988949E+02 0.  0.
         24    2    4    4    0    0 -0.26508161636E+03 -0.24845328969E+03  0.31851259150E+03  0.48972965612E+03  0.79922241265E+02 0.  0.
         11    1    3    3    0    0  0.10858473963E+03  0.11845832005E+02  0.82471684284E+02  0.13686689930E+03  0.00000000000E+00 0. -1.
        -11    1    3    3    0    0  0.17911270985E+02 -0.36298215912E+02 -0.39932458775E+01  0.40673334254E+02  0.00000000000E+00 0.  1.
          4    1    6    6  502    0 -0.14914044735E+03 -0.97295237526E+02  0.12083624318E+03  0.21519905657E+03  0.00000000000E+00 0. -1.
          1    1    5    5  503    0  0.11992293662E+03  0.14943089722E+03 -0.16407579746E+03  0.25225378309E+03  0.00000000000E+00 0. -1.
         -4    1    5    5    0  503  0.18662669122E+02  0.12347477638E+03 -0.10707713332E+03  0.16449871763E+03  0.00000000000E+00 0.  1.
         -3    1    6    6    0  502 -0.11594116900E+03 -0.15115805216E+03  0.19767634832E+03  0.27453059955E+03  0.00000000000E+00 0.  1.
<mgrwt>
<rscale>  0 0.10766937E+04</rscale>
<asrwt>0</asrwt>
<pdfrwt beam="1">  1        2 0.93066191E-01 0.10766937E+04</pdfrwt>
<pdfrwt beam="2">  1       -2 0.73706484E-01 0.10766937E+04</pdfrwt>
<totfact> 0.81077654E+01</totfact>
</mgrwt>
</event>
<event>
12    1  0.1442183E-007  0.1297678E+04  0.7818608E-02  0.9031408E-01
          2   -1    0    0  501    0  0.00000000000E+00  0.00000000000E+00  0.20058644083E+04  0.20058644083E+04  0.00000000000E+00 0. -1.
         -2   -1    0    0    0  501 -0.00000000000E+00 -0.00000000000E+00 -0.20988068832E+03  0.20988068832E+03  0.00000000000E+00 0.  1.
         23    2    1    2    0    0  0.24635667802E+03 -0.10256567667E+03  0.15629499303E+03  0.32201715945E+03  0.89752968188E+02 0.  0.
        254    2    1    2    0    0 -0.24635667802E+03  0.10256567667E+03  0.16396887269E+04  0.18937279371E+04  0.90907373071E+03 0.  0.
        -24    2    4    4    0    0 -0.32580803957E+02 -0.37768908743E+03  0.92806091517E+03  0.10055433303E+04  0.78165026017E+02 0.  0.
         24    2    4    4    0    0 -0.21377587406E+03  0.48025476411E+03  0.71162781175E+03  0.88818460684E+03  0.78185616265E+02 0.  0.
         13    1    3    3    0    0 -0.47878242565E+00  0.10170411405E+02  0.57605990033E+01  0.11698333285E+02  0.00000000000E+00 0. -1.
        -13    1    3    3    0    0  0.24683546045E+03 -0.11273608808E+03  0.15053439403E+03  0.31031882617E+03  0.00000000000E+00 0.  1.
          2    1    6    6  502    0 -0.47074459397E+02  0.45156876084E+02  0.97438120717E+02  0.11725756075E+03  0.00000000000E+00 0. -1.
          3    1    5    5  503    0  0.16987183939E+02 -0.44164757599E+02  0.15707731356E+03  0.16404990907E+03  0.00000000000E+00 0. -1.
         -4    1    5    5    0  503 -0.49567987896E+02 -0.33352432983E+03  0.77098360161E+03  0.84149342123E+03  0.00000000000E+00 0.  1.
         -1    1    6    6    0  502 -0.16670141467E+03  0.43509788802E+03  0.61418969103E+03  0.77092704608E+03  0.00000000000E+00 0.  1.
<mgrwt>
<rscale>  0 0.12976782E+04</rscale>
<asrwt>0</asrwt>
<pdfrwt beam="1">  1        2 0.30859451E+00 0.12976782E+04</pdfrwt>
<pdfrwt beam="2">  1       -2 0.32289338E-01 0.12976782E+04</pdfrwt>
<totfact> 0.58111555E+01</totfact>
</mgrwt>
</event>
<event>
12    1  0.1442183E-007  0.1404872E+04  0.7818608E-02  0.8950299E-01
         -2   -1    0    0    0  501 -0.00000000000E+00  0.00000000000E+00  0.68360158974E+03  0.68360158974E+03  0.00000000000E+00 0.  1.
          2   -1    0    0  501    0  0.00000000000E+00 -0.00000000000E+00 -0.72178970601E+03  0.72178970601E+03  0.00000000000E+00 0. -1.
         23    2    1    2    0    0  0.11451653301E+03  0.17123105578E+03 -0.36196733527E+03  0.42645816694E+03  0.91717531308E+02 0.  0.
        254    2    1    2    0    0 -0.11451653301E+03 -0.17123105578E+03  0.32377921900E+03  0.97893312881E+03  0.90057924539E+03 0.  0.
        -24    2    4    4    0    0 -0.13940027797E+03  0.32403752521E+03  0.31001966246E+03  0.47638500060E+03  0.79985764025E+02 0.  0.
         24    2    4    4    0    0  0.24883744962E+02 -0.49526858099E+03  0.13759556538E+02  0.50254812821E+03  0.80343809259E+02 0.  0.
         11    1    3    3    0    0  0.13045175721E+02  0.95914284214E+02 -0.18777118050E+03  0.21125279348E+03  0.00000000000E+00 0. -1.
        -11    1    3    3    0    0  0.10147135729E+03  0.75316771570E+02 -0.17419615476E+03  0.21520537346E+03  0.00000000000E+00 0.  1.
          2    1    6    6  502    0  0.44204601858E+02 -0.38318904935E+03  0.33237234591E+02  0.38715966749E+03  0.00000000000E+00 0. -1.
          3    1    5    5  503    0 -0.14575854995E+03  0.32153907147E+03  0.30957010555E+03  0.46953868809E+03  0.00000000000E+00 0. -1.
         -4    1    5    5    0  503  0.63582719769E+01  0.24984537436E+01  0.44955690968E+00  0.68463125152E+01  0.00000000000E+00 0.  1.
         -1    1    6    6    0  502 -0.19320856896E+02 -0.11207953164E+03 -0.19477678053E+02  0.11538846072E+03  0.00000000000E+00 0.  1.
<mgrwt>
<rscale>  0 0.14048724E+04</rscale>
<asrwt>0</asrwt>
<pdfrwt beam="1">  1        2 0.11104457E+00 0.14048724E+04</pdfrwt>
<pdfrwt beam="2">  1       -2 0.10516948E+00 0.14048724E+04</pdfrwt>
<totfact> 0.28076211E+01</totfact>
</mgrwt>
</event>
<event>
12    1  0.1442183E-007  0.1148825E+04  0.7818608E-02  0.9158868E-01
         -2   -1    0    0    0  501 -0.00000000000E+00  0.00000000000E+00  0.28726036369E+03  0.28726036369E+03  0.00000000000E+00 0.  1.
          2   -1    0    0  501    0  0.00000000000E+00 -0.00000000000E+00 -0.11486085343E+04  0.11486085343E+04  0.00000000000E+00 0. -1.
         23    2    1    2    0    0  0.50502590177E+02  0.18172755066E+03 -0.79306796629E+02  0.22414988067E+03  0.91532435402E+02 0.  0.
        254    2    1    2    0    0 -0.50502590177E+02 -0.18172755066E+03 -0.78204137402E+03  0.12117190174E+04  0.90614505023E+03 0.  0.
        -24    2    4    4    0    0  0.14771820602E+03  0.94753651650E+02  0.13136957486E+03  0.23364615160E+03  0.80830910334E+02 0.  0.
         24    2    4    4    0    0 -0.19822079620E+03 -0.27648120231E+03 -0.91341094888E+03  0.97807286576E+03  0.81077924979E+02 0.  0.
         11    1    3    3    0    0  0.42473165730E+02  0.11883773493E+03 -0.47611919251E+01  0.12628953242E+03  0.00000000000E+00 0.  1.
        -11    1    3    3    0    0  0.80294244464E+01  0.62889815732E+02 -0.74545604704E+02  0.97860348254E+02  0.00000000000E+00 0. -1.
          4    1    6    6  502    0 -0.19805799326E+03 -0.27939468595E+03 -0.91300863186E+03  0.97512723328E+03  0.00000000000E+00 0. -1.
          3    1    5    5  503    0  0.11155483042E+03  0.61177234816E+02  0.13328610441E+03  0.18426155291E+03  0.00000000000E+00 0. -1.
         -4    1    5    5    0  503  0.36163375602E+02  0.33576416834E+02 -0.19165295514E+01  0.49384598691E+02  0.00000000000E+00 0.  1.
         -3    1    6    6    0  502 -0.16280294509E+00  0.29134836406E+01 -0.40231702159E+00  0.29456324803E+01  0.00000000000E+00 0.  1.
<mgrwt>
<rscale>  0 0.11488250E+04</rscale>
<asrwt>0</asrwt>
<pdfrwt beam="1">  1        2 0.17670901E+00 0.11488250E+04</pdfrwt>
<pdfrwt beam="2">  1       -2 0.44193902E-01 0.11488250E+04</pdfrwt>
<totfact> 0.97726331E+01</totfact>
</mgrwt>
</event>
<event>
12    1  0.1442183E-007  0.2109094E+04  0.7818608E-02  0.8557248E-01
         -1   -1    0    0    0  501 -0.00000000000E+00  0.00000000000E+00  0.36198862686E+03  0.36198862686E+03  0.00000000000E+00 0. -1.
          1   -1    0    0  501    0  0.00000000000E+00 -0.00000000000E+00 -0.30721104850E+04  0.30721104850E+04  0.00000000000E+00 0.  1.
         23    2    1    2    0    0  0.31738985450E+03  0.78977442253E+03 -0.13341017559E+04  0.15849852494E+04  0.88717457172E+02 0.  0.
        254    2    1    2    0    0 -0.31738985450E+03 -0.78977442253E+03 -0.13760201022E+04  0.18491138625E+04  0.89515964870E+03 0.  0.
        -24    2    4    4    0    0 -0.49178169576E+03 -0.36224839363E+03 -0.31902916278E+03  0.69333709790E+03  0.76574079458E+02 0.  0.
         24    2    4    4    0    0  0.17439184127E+03 -0.42752602890E+03 -0.10569909394E+04  0.11557767646E+04  0.73478322804E+02 0.  0.
         13    1    3    3    0    0  0.21360881906E+03  0.62237787934E+03 -0.99717043540E+03  0.11947099353E+04  0.00000000000E+00 0.  1.
        -13    1    3    3    0    0  0.10378103544E+03  0.16739654319E+03 -0.33693132055E+03  0.39027531405E+03  0.00000000000E+00 0. -1.
          4    1    6    6  502    0  0.16862206334E+02 -0.12496152074E+02 -0.27025257206E+02  0.34217719768E+02  0.00000000000E+00 0. -1.
          3    1    5    5  503    0 -0.15022868603E+03 -0.14465974087E+03 -0.13557972223E+03  0.24875079863E+03  0.00000000000E+00 0. -1.
         -4    1    5    5    0  503 -0.34155300973E+03 -0.21758865276E+03 -0.18344944055E+03  0.44458629928E+03  0.00000000000E+00 0.  1.
         -3    1    6    6    0  502  0.15752963493E+03 -0.41502987683E+03 -0.10299656822E+04  0.11215590448E+04  0.00000000000E+00 0.  1.
<mgrwt>
<rscale>  0 0.21090937E+04</rscale>
<asrwt>0</asrwt>
<pdfrwt beam="1">  1        1 0.47263239E+00 0.21090937E+04</pdfrwt>
<pdfrwt beam="2">  1       -1 0.55690557E-01 0.21090937E+04</pdfrwt>
<totfact> 0.15882600E+00</totfact>
</mgrwt>
</event>
<event>
12    1  0.1442183E-007  0.1219264E+04  0.7818608E-02  0.9096160E-01
         -1   -1    0    0    0  501 -0.00000000000E+00  0.00000000000E+00  0.27424700638E+03  0.27424700638E+03  0.00000000000E+00 0.  1.
          1   -1    0    0  501    0  0.00000000000E+00 -0.00000000000E+00 -0.13551703612E+04  0.13551703612E+04  0.00000000000E+00 0. -1.
         23    2    1    2    0    0 -0.17779098581E+03  0.10681290392E+03  0.13754401002E+02  0.22418157290E+03  0.83961675795E+02 0.  0.
        254    2    1    2    0    0  0.17779098581E+03 -0.10681290392E+03 -0.10946777558E+04  0.14052357946E+04  0.85635834700E+03 0.  0.
        -24    2    4    4    0    0  0.12264434346E+03  0.23603144603E+03 -0.26225705439E+02  0.27894809142E+03  0.79823377429E+02 0.  0.
         24    2    4    4    0    0  0.55146642345E+02 -0.34284434995E+03 -0.10684520503E+04  0.11262877032E+04  0.79691945058E+02 0.  0.
         11    1    3    3    0    0 -0.10500826017E+03  0.20717489972E+02 -0.14359699616E+02  0.10799143516E+03  0.00000000000E+00 0. -1.
        -11    1    3    3    0    0 -0.72782725636E+02  0.86095413949E+02  0.28114100618E+02  0.11619013774E+03  0.00000000000E+00 0.  1.
          2    1    6    6  502    0  0.33113845294E+02 -0.45097268433E+02 -0.13120846440E+03  0.14263923548E+03  0.00000000000E+00 0. -1.
          3    1    5    5  503    0  0.72690367021E+01  0.94319249214E+02 -0.15817328227E+02  0.95912186603E+02  0.00000000000E+00 0. -1.
         -4    1    5    5    0  503  0.11537530676E+03  0.14171219681E+03 -0.10408377212E+02  0.18303590482E+03  0.00000000000E+00 0.  1.
         -1    1    6    6    0  502  0.22032797051E+02 -0.29774708151E+03 -0.93724358594E+03  0.98364846773E+03  0.00000000000E+00 0.  1.
<mgrwt>
<rscale>  0 0.12192644E+04</rscale>
<asrwt>0</asrwt>
<pdfrwt beam="1">  1        1 0.20848775E+00 0.12192644E+04</pdfrwt>
<pdfrwt beam="2">  1       -1 0.42191848E-01 0.12192644E+04</pdfrwt>
<totfact> 0.45074974E+01</totfact>
</mgrwt>
</event>
<event>
12    1  0.1482316E-007  0.3214965E+04  0.7818608E-02  0.8184876E-01
         -2   -1    0    0    0  501 -0.00000000000E+00  0.00000000000E+00  0.11186293914E+04  0.11186293914E+04  0.00000000000E+00 0.  1.
          2   -1    0    0  501    0  0.00000000000E+00 -0.00000000000E+00 -0.23099692287E+04  0.23099692287E+04  0.00000000000E+00 0. -1.
         23    2    1    2    0    0  0.76955077973E+03  0.55403937887E+03  0.65372198558E+03  0.11571104208E+04  0.11128367178E+03 0.  0.
        254    2    1    2    0    0 -0.76955077973E+03 -0.55403937887E+03 -0.18450618228E+04  0.22714881993E+04  0.92533100746E+03 0.  0.
        -24    2    4    4    0    0 -0.20189238241E+03  0.11149906688E+03 -0.10780992724E+04  0.11054711737E+04  0.81091915875E+02 0.  0.
         24    2    4    4    0    0 -0.56765839733E+03 -0.66553844575E+03 -0.76696255044E+03  0.11660170255E+04  0.78655395338E+02 0.  0.
         13    1    3    3    0    0  0.81044487971E+02  0.42919093268E+02  0.10344785369E+03  0.13824513022E+03  0.00000000000E+00 0. -1.
        -13    1    3    3    0    0  0.68850629176E+03  0.51112028561E+03  0.55027413189E+03  0.10188652906E+04  0.00000000000E+00 0.  1.
          2    1    6    6  502    0 -0.12377313390E+03 -0.10404226771E+03 -0.12223319321E+03  0.20269567255E+03  0.00000000000E+00 0. -1.
          1    1    5    5  503    0 -0.92378856681E+02  0.11216497843E+02 -0.33523280859E+03  0.34790903831E+03  0.00000000000E+00 0. -1.
         -2    1    5    5    0  503 -0.10951352573E+03  0.10028256903E+03 -0.74286646381E+03  0.75756213542E+03  0.00000000000E+00 0.  1.
         -1    1    6    6    0  502 -0.44388526343E+03 -0.56149617804E+03 -0.64472935722E+03  0.96332135298E+03  0.00000000000E+00 0.  1.
<mgrwt>
<rscale>  0 0.32149647E+04</rscale>
<asrwt>0</asrwt>
<pdfrwt beam="1">  1        2 0.35537988E+00 0.32149647E+04</pdfrwt>
<pdfrwt beam="2">  1       -2 0.17209683E+00 0.32149647E+04</pdfrwt>
<totfact> 0.77507079E-01</totfact>
</mgrwt>
</event>
<event>
12    1  0.1442183E-007  0.1238619E+04  0.7818608E-02  0.9079709E-01
          1   -1    0    0  501    0  0.00000000000E+00  0.00000000000E+00  0.42203153044E+03  0.42203153044E+03  0.00000000000E+00 0. -1.
         -1   -1    0    0    0  501 -0.00000000000E+00 -0.00000000000E+00 -0.90880524317E+03  0.90880524317E+03  0.00000000000E+00 0.  1.
         23    2    1    2    0    0  0.65745017582E+00 -0.93256868530E+02 -0.40082115201E+03  0.42193040857E+03  0.93114971960E+02 0.  0.
        254    2    1    2    0    0 -0.65745017582E+00  0.93256868530E+02 -0.85952560722E+02  0.90890636505E+03  0.90001425653E+03 0.  0.
        -24    2    4    4    0    0 -0.33125054505E+03  0.58517506636E+02  0.25247986015E+03  0.42783383588E+03  0.78386792044E+02 0.  0.
         24    2    4    4    0    0  0.33059309487E+03  0.34739361894E+02 -0.33843242087E+03  0.48107252917E+03  0.79972852796E+02 0.  0.
         11    1    3    3    0    0  0.24446671385E+02 -0.10205032837E+03 -0.29487165199E+03  0.31298754035E+03  0.00000000000E+00 0.  1.
        -11    1    3    3    0    0 -0.23789221209E+02  0.87934598408E+01 -0.10594950002E+03  0.10894286822E+03  0.00000000000E+00 0. -1.
          2    1    6    6  502    0  0.31302806789E+03  0.41922372295E+02 -0.33727698049E+03  0.46206040531E+03  0.00000000000E+00 0. -1.
          1    1    5    5  503    0 -0.24718279867E+03  0.88175368992E+01  0.19006910431E+03  0.31193484789E+03  0.00000000000E+00 0. -1.
         -2    1    5    5    0  503 -0.84067746377E+02  0.49699969736E+02  0.62410755834E+02  0.11589898799E+03  0.00000000000E+00 0.  1.
         -1    1    6    6    0  502  0.17565026979E+02 -0.71830104007E+01 -0.11554403808E+01  0.19012123860E+02  0.00000000000E+00 0.  1.
<mgrwt>
<rscale>  0 0.12386193E+04</rscale>
<asrwt>0</asrwt>
<pdfrwt beam="1">  1        1 0.64927928E-01 0.12386193E+04</pdfrwt>
<pdfrwt beam="2">  1       -1 0.13981619E+00 0.12386193E+04</pdfrwt>
<totfact> 0.23184194E+01</totfact>
</mgrwt>
</event>
<event>
12    1  0.1442183E-007  0.1522016E+04  0.7818608E-02  0.8869943E-01
          2   -1    0    0  501    0  0.00000000000E+00  0.00000000000E+00  0.17356875350E+04  0.17356875350E+04  0.00000000000E+00 0.  1.
         -2   -1    0    0    0  501 -0.00000000000E+00 -0.00000000000E+00 -0.33366218091E+03  0.33366218091E+03  0.00000000000E+00 0. -1.
         23    2    1    2    0    0  0.95171613626E+02  0.20853686485E+02  0.11133812468E+04  0.11213459440E+04  0.91139525753E+02 0.  0.
        254    2    1    2    0    0 -0.95171613626E+02 -0.20853686485E+02  0.28864410730E+03  0.94800377190E+03  0.89772112517E+03 0.  0.
        -24    2    4    4    0    0  0.18018332169E+03  0.26630430764E+03 -0.13831400126E+03  0.35898790335E+03  0.79734171568E+02 0.  0.
         24    2    4    4    0    0 -0.27535493532E+03 -0.28715799413E+03  0.42695810857E+03  0.58901586856E+03  0.79789804758E+02 0.  0.
         11    1    3    3    0    0  0.63117167465E+02  0.48591660655E+02  0.91639473287E+03  0.91985011428E+03  0.00000000000E+00 0.  1.
        -11    1    3    3    0    0  0.32054446161E+02 -0.27737974170E+02  0.19698651396E+03  0.20149582976E+03  0.00000000000E+00 0. -1.
          2    1    6    6  502    0 -0.26529047231E+03 -0.28903276472E+03  0.40047995743E+03  0.56062747888E+03  0.00000000000E+00 0. -1.
          1    1    5    5  503    0  0.83040741553E+02  0.14136933146E+03 -0.11200063311E+03  0.19855778617E+03  0.00000000000E+00 0. -1.
         -2    1    5    5    0  503  0.97142580141E+02  0.12493497619E+03 -0.26313368157E+02  0.16043011717E+03  0.00000000000E+00 0.  1.
         -1    1    6    6    0  502 -0.10064463006E+02  0.18747705867E+01  0.26478151143E+02  0.28388389674E+02  0.00000000000E+00 0.  1.
<mgrwt>
<rscale>  0 0.15220161E+04</rscale>
<asrwt>0</asrwt>
<pdfrwt beam="1">  1        2 0.26702885E+00 0.15220161E+04</pdfrwt>
<pdfrwt beam="2">  1       -2 0.51332644E-01 0.15220161E+04</pdfrwt>
<totfact> 0.32401075E+01</totfact>
</mgrwt>
</event>
<event>
12    1  0.1442183E-007  0.1581590E+04  0.7818608E-02  0.8831939E-01
          1   -1    0    0  501    0  0.00000000000E+00  0.00000000000E+00  0.10568821815E+04  0.10568821815E+04  0.00000000000E+00 0. -1.
         -1   -1    0    0    0  501 -0.00000000000E+00 -0.00000000000E+00 -0.59169936785E+03  0.59169936785E+03  0.00000000000E+00 0.  1.
         23    2    1    2    0    0 -0.29540293948E+02  0.42299657666E+02 -0.38831948291E+03  0.40216909737E+03  0.91027864234E+02 0.  0.
        254    2    1    2    0    0  0.29540293948E+02 -0.42299657666E+02  0.85350229658E+03  0.12464124520E+04  0.90687151251E+03 0.  0.
        -24    2    4    4    0    0 -0.10074819743E+03 -0.18209394075E+03  0.98122189254E+03  0.10062539521E+04  0.80263386296E+02 0.  0.
         24    2    4    4    0    0  0.13028849138E+03  0.13979428308E+03 -0.12771959595E+03  0.24015849990E+03  0.69615208922E+02 0.  0.
         13    1    3    3    0    0 -0.12220915261E+01 -0.26957196293E+02 -0.66511219705E+02  0.71776920290E+02  0.00000000000E+00 0. -1.
        -13    1    3    3    0    0 -0.28318202422E+02  0.69256853960E+02 -0.32180826321E+03  0.33039217708E+03  0.00000000000E+00 0.  1.
          2    1    6    6  502    0  0.12462300147E+03  0.92815173756E+02 -0.89411088562E+02  0.17927602107E+03  0.00000000000E+00 0. -1.
          3    1    5    5  503    0 -0.10540559270E+03 -0.11602512318E+03  0.70038209732E+03  0.71770972575E+03  0.00000000000E+00 0. -1.
         -4    1    5    5    0  503  0.46573952674E+01 -0.66068817572E+02  0.28083979521E+03  0.28854422635E+03  0.00000000000E+00 0.  1.
         -1    1    6    6    0  502  0.56654899130E+01  0.46979109327E+02 -0.38308507390E+02  0.60882478822E+02  0.00000000000E+00 0.  1.
<mgrwt>
<rscale>  0 0.15815897E+04</rscale>
<asrwt>0</asrwt>
<pdfrwt beam="1">  1        1 0.16259726E+00 0.15815897E+04</pdfrwt>
<pdfrwt beam="2">  1       -1 0.91030672E-01 0.15815897E+04</pdfrwt>
<totfact> 0.15478609E+01</totfact>
</mgrwt>
</event>
<event>
12    1  0.1442183E-007  0.1615701E+04  0.7818608E-02  0.8810960E-01
          1   -1    0    0  501    0  0.00000000000E+00  0.00000000000E+00  0.52862886646E+03  0.52862886646E+03  0.00000000000E+00 0. -1.
         -1   -1    0    0    0  501 -0.00000000000E+00 -0.00000000000E+00 -0.12345568058E+04  0.12345568058E+04  0.00000000000E+00 0.  1.
         23    2    1    2    0    0  0.27208601681E+03  0.36924001610E+03  0.93946313639E+02  0.47701470547E+03  0.91368098154E+02 0.  0.
        254    2    1    2    0    0 -0.27208601681E+03 -0.36924001610E+03 -0.79987425297E+03  0.12861709668E+04  0.89669835798E+03 0.  0.
        -24    2    4    4    0    0  0.12054560588E+03 -0.54505744554E+03 -0.51689257111E+03  0.76483515467E+03  0.78587668991E+02 0.  0.
         24    2    4    4    0    0 -0.39263162269E+03  0.17581742944E+03 -0.28298168186E+03  0.52133581212E+03  0.81492558511E+02 0.  0.
         11    1    3    3    0    0  0.51009344092E+02  0.11193668257E+03  0.57630854343E+02  0.13584214906E+03  0.00000000000E+00 0.  1.
        -11    1    3    3    0    0  0.22107667272E+03  0.25730333353E+03  0.36315459296E+02  0.34117255641E+03  0.00000000000E+00 0. -1.
          4    1    6    6  502    0 -0.39426789396E+03  0.16618612217E+03 -0.27407813861E+03  0.50811792477E+03  0.00000000000E+00 0. -1.
          3    1    5    5  503    0  0.95495519443E+02 -0.51707459191E+03 -0.47535077195E+03  0.70883276182E+03  0.00000000000E+00 0. -1.
         -4    1    5    5    0  503  0.25050086438E+02 -0.27982853623E+02 -0.41541799154E+02  0.56002392845E+02  0.00000000000E+00 0.  1.
         -1    1    6    6    0  502  0.16362712694E+01  0.96313072710E+01 -0.89035432503E+01  0.13217887344E+02  0.00000000000E+00 0.  1.
<mgrwt>
<rscale>  0 0.16157009E+04</rscale>
<asrwt>0</asrwt>
<pdfrwt beam="1">  1        1 0.81327518E-01 0.16157009E+04</pdfrwt>
<pdfrwt beam="2">  1       -1 0.18993182E+00 0.16157009E+04</pdfrwt>
<totfact> 0.69518099E+00</totfact>
</mgrwt>
</event>
<event>
12    1  0.1442183E-007  0.1230090E+04  0.7818608E-02  0.9086919E-01
          1   -1    0    0  501    0  0.00000000000E+00  0.00000000000E+00  0.83853647997E+03  0.83853647997E+03  0.00000000000E+00 0. -1.
         -1   -1    0    0    0  501 -0.00000000000E+00 -0.00000000000E+00 -0.45111993988E+03  0.45111993988E+03  0.00000000000E+00 0.  1.
         23    2    1    2    0    0  0.20985083562E+03  0.14564978905E+03 -0.15638721833E+02  0.27283147450E+03  0.94557969494E+02 0.  0.
        254    2    1    2    0    0 -0.20985083562E+03 -0.14564978905E+03  0.40305526192E+03  0.10168249454E+04  0.89790210551E+03 0.  0.
        -24    2    4    4    0    0  0.30213906046E+03 -0.12179204487E+03 -0.35867006388E+02  0.33712325864E+03  0.79021106826E+02 0.  0.
         24    2    4    4    0    0 -0.51198989608E+03 -0.23857744183E+02  0.43892226831E+03  0.67970168671E+03  0.81478706786E+02 0.  0.
         13    1    3    3    0    0  0.13164755281E+03  0.12078803172E+03  0.26443218099E+02  0.18061027255E+03  0.00000000000E+00 0. -1.
        -13    1    3    3    0    0  0.78203282808E+02  0.24861757328E+02 -0.42081939932E+02  0.92221201943E+02  0.00000000000E+00 0.  1.
          2    1    6    6  502    0 -0.89451427071E+02  0.25846795424E+02  0.68554754195E+02  0.11562598740E+03  0.00000000000E+00 0. -1.
          1    1    5    5  503    0  0.81555541978E+02 -0.64319111463E+02  0.10868771343E+02  0.10443363786E+03  0.00000000000E+00 0. -1.
         -2    1    5    5    0  503  0.22058351848E+03 -0.57472933403E+02 -0.46735777731E+02  0.23268962078E+03  0.00000000000E+00 0.  1.
         -1    1    6    6    0  502 -0.42253846901E+03 -0.49704539606E+02  0.37036751412E+03  0.56407569932E+03  0.00000000000E+00 0.  1.
<mgrwt>
<rscale>  0 0.12300903E+04</rscale>
<asrwt>0</asrwt>
<pdfrwt beam="1">  1        1 0.12900561E+00 0.12300903E+04</pdfrwt>
<pdfrwt beam="2">  1       -1 0.69403068E-01 0.12300903E+04</pdfrwt>
<totfact> 0.42485676E+01</totfact>
</mgrwt>
</event>
<event>
12    1  0.1442183E-007  0.2351384E+04  0.7818608E-02  0.8457932E-01
          2   -1    0    0  501    0  0.00000000000E+00  0.00000000000E+00  0.28693089713E+04  0.28693089713E+04  0.00000000000E+00 0. -1.
         -2   -1    0    0    0  501 -0.00000000000E+00 -0.00000000000E+00 -0.48173674469E+03  0.48173674469E+03  0.00000000000E+00 0.  1.
         23    2    1    2    0    0  0.39948043008E+03  0.70244149836E+03  0.18597011251E+04  0.20297912402E+04  0.92496116620E+02 0.  0.
        254    2    1    2    0    0 -0.39948043008E+03 -0.70244149836E+03  0.52787110152E+03  0.13212544758E+04  0.90225097247E+03 0.  0.
        -24    2    4    4    0    0 -0.11319598260E+03  0.20949831171E+03  0.10245211348E+03  0.27197332795E+03  0.82281118555E+02 0.  0.
         24    2    4    4    0    0 -0.28628444748E+03 -0.91193981007E+03  0.42541898805E+03  0.10492811478E+04  0.80103743676E+02 0.  0.
         11    1    3    3    0    0  0.39883690559E+03  0.67565940758E+03  0.18197968208E+04  0.19817282814E+04  0.00000000000E+00 0. -1.
        -11    1    3    3    0    0  0.64352448319E+00  0.26782090771E+02  0.39904304342E+02  0.48062958865E+02  0.00000000000E+00 0.  1.
          2    1    6    6  502    0 -0.28235130397E+03 -0.91192604010E+03  0.42094619892E+03  0.10433250039E+04  0.00000000000E+00 0. -1.
          1    1    5    5  503    0 -0.92251008834E+02  0.18442792863E+03  0.53360102832E+02  0.21300518788E+03  0.00000000000E+00 0. -1.
         -4    1    5    5    0  503 -0.20944973765E+02  0.25070383088E+02  0.49092010643E+02  0.58968140069E+02  0.00000000000E+00 0.  1.
         -1    1    6    6    0  502 -0.39331435041E+01 -0.13769967065E-01  0.44727891285E+01  0.59561438888E+01  0.00000000000E+00 0.  1.
<mgrwt>
<rscale>  0 0.23513839E+04</rscale>
<asrwt>0</asrwt>
<pdfrwt beam="1">  1        2 0.44143214E+00 0.23513839E+04</pdfrwt>
<pdfrwt beam="2">  1       -2 0.74113347E-01 0.23513839E+04</pdfrwt>
<totfact> 0.31067416E+00</totfact>
</mgrwt>
</event>
<event>
12    1  0.1442183E-007  0.3476379E+04  0.7818608E-02  0.8119411E-01
          1   -1    0    0  501    0  0.00000000000E+00  0.00000000000E+00  0.41802638715E+04  0.41802638715E+04  0.00000000000E+00 0. -1.
         -1   -1    0    0    0  501 -0.00000000000E+00 -0.00000000000E+00 -0.72275415856E+03  0.72275415856E+03  0.00000000000E+00 0.  1.
         23    2    1    2    0    0 -0.57522844520E+03  0.85440766024E+03 -0.14822919960E+03  0.10444100653E+04  0.88995925550E+02 0.  0.
        254    2    1    2    0    0  0.57522844520E+03 -0.85440766024E+03  0.36057389125E+04  0.38586079648E+04  0.90917660910E+03 0.  0.
        -24    2    4    4    0    0  0.16283482356E+03 -0.71628558804E+03  0.11754044952E+04  0.13883461147E+04  0.79680508331E+02 0.  0.
         24    2    4    4    0    0  0.41239362164E+03 -0.13812207220E+03  0.24303344173E+04  0.24702618501E+04  0.80759036877E+02 0.  0.
         11    1    3    3    0    0 -0.37858731440E+03  0.61255533033E+03 -0.13335744912E+03  0.73235005058E+03  0.00000000000E+00 0.  1.
        -11    1    3    3    0    0 -0.19664113080E+03  0.24185232991E+03 -0.14871750479E+02  0.31206001469E+03  0.00000000000E+00 0. -1.
          4    1    6    6  502    0  0.75114242951E+02 -0.46136836792E+02  0.36118633174E+03  0.37178800874E+03  0.00000000000E+00 0. -1.
          1    1    5    5  503    0  0.23483603191E+01 -0.13675163314E+03  0.19418027667E+03  0.23751316555E+03  0.00000000000E+00 0. -1.
         -2    1    5    5    0  503  0.16048646324E+03 -0.57953395490E+03  0.98122421853E+03  0.11508329491E+04  0.00000000000E+00 0.  1.
         -3    1    6    6    0  502  0.33727937869E+03 -0.91985235406E+02  0.20691480856E+04  0.20984738414E+04  0.00000000000E+00 0.  1.
<mgrwt>
<rscale>  0 0.34763792E+04</rscale>
<asrwt>0</asrwt>
<pdfrwt beam="1">  1        1 0.64311751E+00 0.34763792E+04</pdfrwt>
<pdfrwt beam="2">  1       -1 0.11119295E+00 0.34763792E+04</pdfrwt>
<totfact> 0.40002919E-02</totfact>
</mgrwt>
</event>
<event>
12    1  0.1442183E-007  0.1314382E+04  0.7818608E-02  0.9018237E-01
         -1   -1    0    0    0  501 -0.00000000000E+00  0.00000000000E+00  0.10147680587E+04  0.10147680587E+04  0.00000000000E+00 0.  1.
          1   -1    0    0  501    0  0.00000000000E+00 -0.00000000000E+00 -0.42561439792E+03  0.42561439792E+03  0.00000000000E+00 0. -1.
         23    2    1    2    0    0 -0.39822780685E+02 -0.17864052595E+03 -0.16150525626E+03  0.25949697429E+03  0.88070656246E+02 0.  0.
        254    2    1    2    0    0  0.39822780685E+02  0.17864052595E+03  0.75065891705E+03  0.11808854824E+04  0.89303047053E+03 0.  0.
        -24    2    4    4    0    0  0.27047047941E+03 -0.25083033568E+03  0.15835402332E+03  0.40925323844E+03  0.79637170578E+02 0.  0.
         24    2    4    4    0    0 -0.23064769872E+03  0.42947086164E+03  0.59230489373E+03  0.77163224391E+03  0.83352569188E+02 0.  0.
         13    1    3    3    0    0 -0.28633887449E+02 -0.15882861180E+03 -0.90708156236E+02  0.18513345739E+03  0.00000000000E+00 0.  1.
        -13    1    3    3    0    0 -0.11188893236E+02 -0.19811914153E+02 -0.70797100022E+02  0.74363516900E+02  0.00000000000E+00 0. -1.
          4    1    6    6  502    0 -0.18137939287E+03  0.28100243761E+03  0.35816026718E+03  0.49004043821E+03  0.00000000000E+00 0. -1.
          1    1    5    5  503    0  0.17116141968E+03 -0.11431930235E+03  0.11136111700E+03  0.23402229137E+03  0.00000000000E+00 0. -1.
         -2    1    5    5    0  503  0.99309059722E+02 -0.13651103334E+03  0.46992906323E+02  0.17523094707E+03  0.00000000000E+00 0.  1.
         -3    1    6    6    0  502 -0.49268305856E+02  0.14846842403E+03  0.23414462655E+03  0.28159180570E+03  0.00000000000E+00 0.  1.
<mgrwt>
<rscale>  0 0.13143818E+04</rscale>
<asrwt>0</asrwt>
<pdfrwt beam="1">  1        1 0.65479138E-01 0.13143818E+04</pdfrwt>
<pdfrwt beam="2">  1       -1 0.15611816E+00 0.13143818E+04</pdfrwt>
<totfact> 0.16952976E+01</totfact>
</mgrwt>
</event>
<event>
12    1  0.1442183E-007  0.1186206E+04  0.7818608E-02  0.9125017E-01
          2   -1    0    0  501    0  0.00000000000E+00  0.00000000000E+00  0.33164984944E+04  0.33164984944E+04  0.00000000000E+00 0.  1.
         -2   -1    0    0    0  501 -0.00000000000E+00 -0.00000000000E+00 -0.10606704739E+03  0.10606704739E+03  0.00000000000E+00 0. -1.
         23    2    1    2    0    0 -0.63488236850E+02 -0.11136033466E+02  0.13053019355E+04  0.13123542342E+04  0.11960654591E+03 0.  0.
        254    2    1    2    0    0  0.63488236850E+02  0.11136033466E+02  0.19051295115E+04  0.21102113076E+04  0.90516216200E+03 0.  0.
        -24    2    4    4    0    0 -0.35017531736E+03 -0.21152771708E+03  0.10768876645E+04  0.11547903143E+04  0.80541295228E+02 0.  0.
         24    2    4    4    0    0  0.41366355421E+03  0.22266375055E+03  0.82824184708E+03  0.95542099326E+03  0.78409407702E+02 0.  0.
         13    1    3    3    0    0 -0.72157364305E+01 -0.60106072693E+02  0.51768446678E+03  0.52121206238E+03  0.00000000000E+00 0. -1.
        -13    1    3    3    0    0 -0.56272500420E+02  0.48970039227E+02  0.78761746873E+03  0.79114217186E+03  0.00000000000E+00 0.  1.
          2    1    6    6  502    0  0.25920419659E+03  0.16499588225E+03  0.47683175417E+03  0.56725565531E+03  0.00000000000E+00 0. -1.
          3    1    5    5  503    0 -0.33672045852E+02 -0.53442723441E+02  0.16117230659E+03  0.17310818517E+03  0.00000000000E+00 0. -1.
         -4    1    5    5    0  503 -0.31650327151E+03 -0.15808499364E+03  0.91571535787E+03  0.98168212917E+03  0.00000000000E+00 0.  1.
         -1    1    6    6    0  502  0.15445935762E+03  0.57667868295E+02  0.35141009291E+03  0.38816533796E+03  0.00000000000E+00 0.  1.
<mgrwt>
<rscale>  0 0.11862061E+04</rscale>
<asrwt>0</asrwt>
<pdfrwt beam="1">  1        2 0.51023046E+00 0.11862061E+04</pdfrwt>
<pdfrwt beam="2">  1       -2 0.16318010E-01 0.11862061E+04</pdfrwt>
<totfact> 0.33351317E+01</totfact>
</mgrwt>
</event>
<event>
12    1  0.1442183E-007  0.2176175E+04  0.7818608E-02  0.8528411E-01
         -2   -1    0    0    0  501 -0.00000000000E+00  0.00000000000E+00  0.46041450425E+03  0.46041450425E+03  0.00000000000E+00 0.  1.
          2   -1    0    0  501    0  0.00000000000E+00 -0.00000000000E+00 -0.25714533471E+04  0.25714533471E+04  0.00000000000E+00 0. -1.
         23    2    1    2    0    0 -0.39483060201E+03  0.71628720797E+03 -0.35703711000E+03  0.89702270337E+03  0.90640299376E+02 0.  0.
        254    2    1    2    0    0  0.39483060201E+03 -0.71628720797E+03 -0.17540017328E+04  0.21348451479E+04  0.90115656706E+03 0.  0.
        -24    2    4    4    0    0  0.44073008512E+02 -0.29151734109E+03 -0.14859436699E+04  0.15170386921E+04  0.80330647516E+02 0.  0.
         24    2    4    4    0    0  0.35075759350E+03 -0.42476986688E+03 -0.26805806288E+03  0.61780645581E+03  0.79808286320E+02 0.  0.
         13    1    3    3    0    0 -0.37950364287E+03  0.70478458169E+03 -0.33478154392E+03  0.86765373490E+03  0.00000000000E+00 0.  1.
        -13    1    3    3    0    0 -0.15326959144E+02  0.11502626278E+02 -0.22255566074E+02  0.29368968472E+02  0.00000000000E+00 0. -1.
          2    1    6    6  502    0  0.13260516324E+03 -0.14736546683E+03 -0.13865969476E+03  0.24192399857E+03  0.00000000000E+00 0. -1.
          1    1    5    5  503    0 -0.17164918437E+02 -0.79168281770E+02 -0.50928941135E+03  0.51569172553E+03  0.00000000000E+00 0. -1.
         -2    1    5    5    0  503  0.61237926950E+02 -0.21234905932E+03 -0.97665425858E+03  0.10013469666E+04  0.00000000000E+00 0.  1.
         -1    1    6    6    0  502  0.21815243025E+03 -0.27740440004E+03 -0.12939836812E+03  0.37588245724E+03  0.00000000000E+00 0.  1.
<mgrwt>
<rscale>  0 0.21761750E+04</rscale>
<asrwt>0</asrwt>
<pdfrwt beam="1">  1        2 0.39560821E+00 0.21761750E+04</pdfrwt>
<pdfrwt beam="2">  1       -2 0.70833000E-01 0.21761750E+04</pdfrwt>
<totfact> 0.52482804E+00</totfact>
</mgrwt>
</event>
<event>
12    1  0.1442183E-007  0.1103694E+04  0.7818608E-02  0.9201599E-01
         -2   -1    0    0    0  501 -0.00000000000E+00  0.00000000000E+00  0.18718040468E+03  0.18718040468E+03  0.00000000000E+00 0.  1.
          2   -1    0    0  501    0  0.00000000000E+00 -0.00000000000E+00 -0.16269607730E+04  0.16269607730E+04  0.00000000000E+00 0. -1.
         23    2    1    2    0    0  0.87173278566E+02 -0.10724382851E+03 -0.43663877793E+03  0.46684296509E+03  0.90490399599E+02 0.  0.
        254    2    1    2    0    0 -0.87173278566E+02  0.10724382851E+03 -0.10031415904E+04  0.13472982125E+04  0.88871761768E+03 0.  0.
        -24    2    4    4    0    0 -0.34114260447E+03 -0.24945354791E+03 -0.64599150875E+03  0.77596415909E+03  0.78803538402E+02 0.  0.
         24    2    4    4    0    0  0.25396932591E+03  0.35669737642E+03 -0.35715008161E+03  0.57133405346E+03  0.84456989036E+02 0.  0.
         13    1    3    3    0    0  0.76042156657E+02 -0.10355717790E+03 -0.43660638790E+03  0.45511716803E+03  0.00000000000E+00 0. -1.
        -13    1    3    3    0    0  0.11131121908E+02 -0.36866506044E+01 -0.32390028705E-01  0.11725797062E+02  0.00000000000E+00 0.  1.
          2    1    6    6  502    0  0.17216941253E+03  0.25118328065E+03 -0.29531714917E+03  0.42420226978E+03  0.00000000000E+00 0. -1.
          1    1    5    5  503    0 -0.32562707852E+03 -0.22076494951E+03 -0.56335178758E+03  0.68712109105E+03  0.00000000000E+00 0. -1.
         -2    1    5    5    0  503 -0.15515525956E+02 -0.28688598406E+02 -0.82639721173E+02  0.88843068046E+02  0.00000000000E+00 0.  1.
         -1    1    6    6    0  502  0.81799913376E+02  0.10551409577E+03 -0.61832932440E+02  0.14713178368E+03  0.00000000000E+00 0.  1.
<mgrwt>
<rscale>  0 0.11036941E+04</rscale>
<asrwt>0</asrwt>
<pdfrwt beam="1">  1        2 0.25030165E+00 0.11036941E+04</pdfrwt>
<pdfrwt beam="2">  1       -2 0.28796987E-01 0.11036941E+04</pdfrwt>
<totfact> 0.11828118E+02</totfact>
</mgrwt>
</event>
<event>
12    1  0.1442183E-007  0.1478772E+04  0.7818608E-02  0.8898693E-01
          1   -1    0    0  501    0  0.00000000000E+00  0.00000000000E+00  0.48751646929E+03  0.48751646929E+03  0.00000000000E+00 0. -1.
         -1   -1    0    0    0  501 -0.00000000000E+00 -0.00000000000E+00 -0.11213810462E+04  0.11213810462E+04  0.00000000000E+00 0.  1.
         23    2    1    2    0    0 -0.40776056452E+03  0.14172938276E+03  0.55994066828E+02  0.44462060445E+03  0.90533145662E+02 0.  0.
        254    2    1    2    0    0  0.40776056452E+03 -0.14172938276E+03 -0.68985864378E+03  0.11642769111E+04  0.83263430230E+03 0.  0.
        -24    2    4    4    0    0 -0.21725341893E+03  0.71377624315E+02 -0.61657967071E+02  0.24941889769E+03  0.78193787039E+02 0.  0.
         24    2    4    4    0    0  0.62501398346E+03 -0.21310700708E+03 -0.62820067671E+03  0.91485801340E+03  0.79196076109E+02 0.  0.
         11    1    3    3    0    0 -0.41006577022E+03  0.13583951404E+03  0.61373321721E+02  0.43631753815E+03  0.00000000000E+00 0. -1.
        -11    1    3    3    0    0  0.23052056910E+01  0.58898687185E+01 -0.53792548937E+01  0.83030663017E+01  0.00000000000E+00 0.  1.
          2    1    6    6  502    0  0.22032882957E+03 -0.45829704766E+02 -0.24862706200E+03  0.33535141410E+03  0.00000000000E+00 0. -1.
          1    1    5    5  503    0 -0.12805830688E+03  0.12414852387E+02 -0.58099465505E+01  0.12878980550E+03  0.00000000000E+00 0. -1.
         -2    1    5    5    0  503 -0.89195112049E+02  0.58962771929E+02 -0.55848020521E+02  0.12062909219E+03  0.00000000000E+00 0.  1.
         -1    1    6    6    0  502  0.40468515389E+03 -0.16727730231E+03 -0.37957361472E+03  0.57950659930E+03  0.00000000000E+00 0.  1.
<mgrwt>
<rscale>  0 0.14787721E+04</rscale>
<asrwt>0</asrwt>
<pdfrwt beam="1">  1        1 0.75002534E-01 0.14787721E+04</pdfrwt>
<pdfrwt beam="2">  1       -1 0.17252016E+00 0.14787721E+04</pdfrwt>
<totfact> 0.10486267E+01</totfact>
</mgrwt>
</event>
<event>
12    1  0.1442183E-007  0.2950837E+04  0.7818608E-02  0.8257911E-01
          2   -1    0    0  501    0  0.00000000000E+00  0.00000000000E+00  0.27034818922E+04  0.27034818922E+04  0.00000000000E+00 0. -1.
         -2   -1    0    0    0  501 -0.00000000000E+00 -0.00000000000E+00 -0.80520579818E+03  0.80520579818E+03  0.00000000000E+00 0.  1.
         23    2    1    2    0    0  0.37838120040E+03 -0.12537527327E+04  0.54416136706E+03  0.14207488209E+04  0.85716807607E+02 0.  0.
        254    2    1    2    0    0 -0.37838120040E+03  0.12537527327E+04  0.13541147269E+04  0.20879388694E+04  0.90044088163E+03 0.  0.
        -24    2    4    4    0    0  0.26573220198E+03  0.63017361508E+03  0.56622796190E+03  0.89173928574E+03  0.82779590409E+02 0.  0.
         24    2    4    4    0    0 -0.64411340238E+03  0.62357911761E+03  0.78788676502E+03  0.11961995837E+04  0.79968109247E+02 0.  0.
         13    1    3    3    0    0  0.24507947504E+03 -0.73499869158E+03  0.28285813763E+03  0.82480043146E+03  0.00000000000E+00 0.  1.
        -13    1    3    3    0    0  0.13330172536E+03 -0.51875404111E+03  0.26130322943E+03  0.59594838943E+03  0.00000000000E+00 0. -1.
          2    1    6    6  502    0 -0.61477320069E+03  0.57632055786E+03  0.75595742137E+03  0.11320614368E+04  0.00000000000E+00 0. -1.
          3    1    5    5  503    0  0.20955425074E+03  0.55170807596E+03  0.46031312219E+03  0.74845370968E+03  0.00000000000E+00 0. -1.
         -4    1    5    5    0  503  0.56177951246E+02  0.78465539120E+02  0.10591483971E+03  0.14328557606E+03  0.00000000000E+00 0.  1.
         -1    1    6    6    0  502 -0.29340201695E+02  0.47258559758E+02  0.31929343645E+02  0.64138146929E+02  0.00000000000E+00 0.  1.
<mgrwt>
<rscale>  0 0.29508367E+04</rscale>
<asrwt>0</asrwt>
<pdfrwt beam="1">  1        2 0.41592029E+00 0.29508367E+04</pdfrwt>
<pdfrwt beam="2">  1       -2 0.12387782E+00 0.29508367E+04</pdfrwt>
<totfact> 0.11136429E+00</totfact>
</mgrwt>
</event>
<event>
12    1  0.1442183E-007  0.2171956E+04  0.7818608E-02  0.8530192E-01
         -2   -1    0    0    0  501 -0.00000000000E+00  0.00000000000E+00  0.89845285348E+03  0.89845285348E+03  0.00000000000E+00 0.  1.
          2   -1    0    0  501    0  0.00000000000E+00 -0.00000000000E+00 -0.13126431167E+04  0.13126431167E+04  0.00000000000E+00 0. -1.
         23    2    1    2    0    0 -0.18503831691E+03  0.46961281657E+03  0.58596221178E+03  0.77869752962E+03  0.90789607320E+02 0.  0.
        254    2    1    2    0    0  0.18503831691E+03 -0.46961281657E+03 -0.10001524750E+04  0.14323984406E+04  0.89257209405E+03 0.  0.
        -24    2    4    4    0    0  0.61608648450E+02  0.66378725860E+02 -0.84678221046E+03  0.85587076430E+03  0.85281254847E+02 0.  0.
         24    2    4    4    0    0  0.12342966846E+03 -0.53599154243E+03 -0.15337026457E+03  0.57652767629E+03  0.79623532061E+02 0.  0.
         11    1    3    3    0    0 -0.22891045275E+01  0.68125165760E+02  0.11286103591E+03  0.13184798685E+03  0.00000000000E+00 0. -1.
        -11    1    3    3    0    0 -0.18274921239E+03  0.40148765081E+03  0.47310117587E+03  0.64684954277E+03  0.00000000000E+00 0.  1.
          2    1    6    6  502    0  0.39671554968E+02 -0.15487492828E+03 -0.82592322203E+02  0.17994879097E+03  0.00000000000E+00 0. -1.
          1    1    5    5  503    0  0.22406996325E+02  0.79856435103E+02 -0.56732932879E+03  0.57336000123E+03  0.00000000000E+00 0. -1.
         -2    1    5    5    0  503  0.39201652126E+02 -0.13477709243E+02 -0.27945288167E+03  0.28251076307E+03  0.00000000000E+00 0.  1.
         -1    1    6    6    0  502  0.83758113495E+02 -0.38111661415E+03 -0.70777942369E+02  0.39657888532E+03  0.00000000000E+00 0.  1.
<mgrwt>
<rscale>  0 0.21719558E+04</rscale>
<asrwt>0</asrwt>
<pdfrwt beam="1">  1        2 0.20194509E+00 0.21719558E+04</pdfrwt>
<pdfrwt beam="2">  1       -2 0.13822352E+00 0.21719558E+04</pdfrwt>
<totfact> 0.55291699E+00</totfact>
</mgrwt>
</event>
<event>
12    1  0.1442183E-007  0.1163199E+04  0.7818608E-02  0.9145692E-01
         -1   -1    0    0    0  501 -0.00000000000E+00  0.00000000000E+00  0.36146433461E+03  0.36146433461E+03  0.00000000000E+00 0.  1.
          1   -1    0    0  501    0  0.00000000000E+00 -0.00000000000E+00 -0.93579959061E+03  0.93579959061E+03  0.00000000000E+00 0. -1.
         23    2    1    2    0    0  0.66412267142E+01  0.17519869443E+03  0.11440233068E+01  0.19779294227E+03  0.91553540629E+02 0.  0.
        254    2    1    2    0    0 -0.66412267142E+01 -0.17519869443E+03 -0.57547927930E+03  0.10994709830E+04  0.92028330042E+03 0.  0.
        -24    2    4    4    0    0 -0.10919762485E+03 -0.23795776367E+03  0.18206069643E+03  0.32823714557E+03  0.77752864795E+02 0.  0.
         24    2    4    4    0    0  0.10255639813E+03  0.62759069237E+02 -0.75753997574E+03  0.77123383738E+03  0.80487896721E+02 0.  0.
         11    1    3    3    0    0  0.18107367319E+02  0.15923880632E+03 -0.27949811724E+02  0.16268394562E+03  0.00000000000E+00 0. -1.
        -11    1    3    3    0    0 -0.11466140605E+02  0.15959888114E+02  0.29093835031E+02  0.35108996650E+02  0.00000000000E+00 0.  1.
          2    1    6    6  502    0  0.33698781425E+02 -0.11723467113E+02 -0.10596634692E+03  0.11181195925E+03  0.00000000000E+00 0. -1.
          1    1    5    5  503    0  0.62588322947E+01 -0.11784534378E+02  0.28525683046E+02  0.31492266121E+02  0.00000000000E+00 0. -1.
         -2    1    5    5    0  503 -0.11545645714E+03 -0.22617322929E+03  0.15353501339E+03  0.29674487945E+03  0.00000000000E+00 0.  1.
         -1    1    6    6    0  502  0.68857616706E+02  0.74482536351E+02 -0.65157362881E+03  0.65942187813E+03  0.00000000000E+00 0.  1.
<mgrwt>
<rscale>  0 0.11631993E+04</rscale>
<asrwt>0</asrwt>
<pdfrwt beam="1">  1        1 0.14396917E+00 0.11631993E+04</pdfrwt>
<pdfrwt beam="2">  1       -1 0.55609898E-01 0.11631993E+04</pdfrwt>
<totfact> 0.55208865E+01</totfact>
</mgrwt>
</event>
<event>
12    1  0.1442183E-007  0.1313413E+04  0.7818608E-02  0.9018996E-01
         -2   -1    0    0    0  501 -0.00000000000E+00  0.00000000000E+00  0.19589965603E+03  0.19589965603E+03  0.00000000000E+00 0.  1.
          2   -1    0    0  501    0  0.00000000000E+00 -0.00000000000E+00 -0.22014500944E+04  0.22014500944E+04  0.00000000000E+00 0. -1.
         23    2    1    2    0    0  0.32696191633E+03  0.12333208828E+03 -0.60905164354E+03  0.70822065565E+03  0.92291353135E+02 0.  0.
        254    2    1    2    0    0 -0.32696191633E+03 -0.12333208828E+03 -0.13964987948E+04  0.16891290948E+04  0.88364773306E+03 0.  0.
        -24    2    4    4    0    0  0.55732426615E+02 -0.27481330058E+03 -0.72655040111E+02  0.30023512933E+03  0.78955205519E+02 0.  0.
         24    2    4    4    0    0 -0.38269434294E+03  0.15148121231E+03 -0.13238437547E+04  0.13888939655E+04  0.84039529568E+02 0.  0.
         11    1    3    3    0    0  0.19216172190E+03  0.80730829639E+02 -0.44676237468E+03  0.49299108881E+03  0.00000000000E+00 0. -1.
        -11    1    3    3    0    0  0.13480019442E+03  0.42601258640E+02 -0.16228926887E+03  0.21522956684E+03  0.00000000000E+00 0.  1.
          4    1    6    6  502    0 -0.98301261750E+02  0.68620244120E+01 -0.38069609520E+03  0.39324259986E+03  0.00000000000E+00 0. -1.
          1    1    5    5  503    0 -0.47224248300E+01 -0.18903513005E+01  0.78331258628E+01  0.93398386012E+01  0.00000000000E+00 0. -1.
         -2    1    5    5    0  503  0.60454851445E+02 -0.27292294928E+03 -0.80488165973E+02  0.29089529073E+03  0.00000000000E+00 0.  1.
         -3    1    6    6    0  502 -0.28439308119E+03  0.14461918789E+03 -0.94314765953E+03  0.99565136560E+03  0.00000000000E+00 0.  1.
<mgrwt>
<rscale>  0 0.13134128E+04</rscale>
<asrwt>0</asrwt>
<pdfrwt beam="1">  1        2 0.33868463E+00 0.13134128E+04</pdfrwt>
<pdfrwt beam="2">  1       -2 0.30138409E-01 0.13134128E+04</pdfrwt>
<totfact> 0.51418431E+01</totfact>
</mgrwt>
</event>
<event>
12    1  0.1442183E-007  0.1602087E+04  0.7818608E-02  0.8819267E-01
          1   -1    0    0  501    0  0.00000000000E+00  0.00000000000E+00  0.11595326115E+04  0.11595326115E+04  0.00000000000E+00 0. -1.
         -1   -1    0    0    0  501 -0.00000000000E+00 -0.00000000000E+00 -0.55338745616E+03  0.55338745616E+03  0.00000000000E+00 0.  1.
         23    2    1    2    0    0  0.45586072222E+03  0.22847021370E+03  0.26168314691E+02  0.51868119461E+03  0.91311359272E+02 0.  0.
        254    2    1    2    0    0 -0.45586072222E+03 -0.22847021370E+03  0.57997684069E+03  0.11942388731E+04  0.91094770083E+03 0.  0.
        -24    2    4    4    0    0 -0.42089410748E+03 -0.20870652103E+03  0.81426848304E+03  0.94341952577E+03  0.79353497128E+02 0.  0.
         24    2    4    4    0    0 -0.34966614735E+02 -0.19763692676E+02 -0.23429164235E+03  0.25081934732E+03  0.80028142686E+02 0.  0.
         11    1    3    3    0    0  0.22344146166E+03  0.69504080224E+02 -0.13125914359E+02  0.23436977959E+03  0.00000000000E+00 0.  1.
        -11    1    3    3    0    0  0.23241926056E+03  0.15896613348E+03  0.39294229050E+02  0.28431141501E+03  0.00000000000E+00 0. -1.
          2    1    6    6  502    0 -0.30050374559E+02 -0.50189494400E+02 -0.14484127588E+03  0.15620821219E+03  0.00000000000E+00 0. -1.
          1    1    5    5  503    0 -0.70235169043E+02 -0.36906366147E+02  0.20434029342E+03  0.21920313490E+03  0.00000000000E+00 0. -1.
         -4    1    5    5    0  503 -0.35065893844E+03 -0.17180015488E+03  0.60992818961E+03  0.72421639087E+03  0.00000000000E+00 0.  1.
         -1    1    6    6    0  502 -0.49162401760E+01  0.30425801724E+02 -0.89450366471E+02  0.94611135126E+02  0.00000000000E+00 0.  1.
<mgrwt>
<rscale>  0 0.16020871E+04</rscale>
<asrwt>0</asrwt>
<pdfrwt beam="1">  1        1 0.17838963E+00 0.16020871E+04</pdfrwt>
<pdfrwt beam="2">  1       -1 0.85136532E-01 0.16020871E+04</pdfrwt>
<totfact> 0.14981522E+01</totfact>
</mgrwt>
</event>
<event>
12    1  0.1442183E-007  0.1810418E+04  0.7818608E-02  0.8700779E-01
          1   -1    0    0  501    0  0.00000000000E+00  0.00000000000E+00  0.13608329747E+04  0.13608329747E+04  0.00000000000E+00 0. -1.
         -1   -1    0    0    0  501 -0.00000000000E+00 -0.00000000000E+00 -0.60213337578E+03  0.60213337578E+03  0.00000000000E+00 0.  1.
         23    2    1    2    0    0 -0.32095730578E+03 -0.41496466982E+03 -0.18575932329E+03  0.56360624885E+03  0.89085398441E+02 0.  0.
        254    2    1    2    0    0  0.32095730578E+03  0.41496466982E+03  0.94445892221E+03  0.13993601016E+04  0.88937999132E+03 0.  0.
        -24    2    4    4    0    0 -0.70104321698E+02 -0.22818834236E+03  0.37781266815E+03  0.45398371194E+03  0.79838981587E+02 0.  0.
         24    2    4    4    0    0  0.39106162748E+03  0.64315301218E+03  0.56664625406E+03  0.94537638969E+03  0.77932967165E+02 0.  0.
         13    1    3    3    0    0 -0.30059952990E+03 -0.40756424949E+03 -0.16258767080E+03  0.53188668487E+03  0.00000000000E+00 0.  1.
        -13    1    3    3    0    0 -0.20357775883E+02 -0.74004203285E+01 -0.23171652497E+02  0.31719563984E+02  0.00000000000E+00 0. -1.
          4    1    6    6  502    0  0.23063780281E+03  0.30993414397E+03  0.27103810608E+03  0.47192650342E+03  0.00000000000E+00 0. -1.
          3    1    5    5  503    0 -0.28875550785E+02 -0.92604296120E+02  0.22793238886E+03  0.24771460794E+03  0.00000000000E+00 0. -1.
         -4    1    5    5    0  503 -0.41228770913E+02 -0.13558404624E+03  0.14988027929E+03  0.20626910400E+03  0.00000000000E+00 0.  1.
         -3    1    6    6    0  502  0.16042382468E+03  0.33321886821E+03  0.29560814798E+03  0.47344988627E+03  0.00000000000E+00 0.  1.
<mgrwt>
<rscale>  0 0.18104176E+04</rscale>
<asrwt>0</asrwt>
<pdfrwt beam="1">  1        1 0.20935892E+00 0.18104176E+04</pdfrwt>
<pdfrwt beam="2">  1       -1 0.92635904E-01 0.18104176E+04</pdfrwt>
<totfact> 0.87452730E+00</totfact>
</mgrwt>
</event>
<event>
12    1  0.1442183E-007  0.2238213E+04  0.7818608E-02  0.8502689E-01
          2   -1    0    0  501    0  0.00000000000E+00  0.00000000000E+00  0.39861570915E+04  0.39861570915E+04  0.00000000000E+00 0. -1.
         -2   -1    0    0    0  501 -0.00000000000E+00 -0.00000000000E+00 -0.31418703770E+03  0.31418703770E+03  0.00000000000E+00 0.  1.
         23    2    1    2    0    0 -0.12278572121E+03 -0.88278994788E+03  0.20887964281E+04  0.22728557218E+04  0.91696176933E+02 0.  0.
        254    2    1    2    0    0  0.12278572121E+03  0.88278994788E+03  0.15831736257E+04  0.20274884073E+04  0.89993115705E+03 0.  0.
        -24    2    4    4    0    0  0.22601643721E+03  0.75776269558E+03  0.52152856682E+03  0.95057379722E+03  0.79440325047E+02 0.  0.
         24    2    4    4    0    0 -0.10323071600E+03  0.12502725230E+03  0.10616450589E+04  0.10769146101E+04  0.79790049161E+02 0.  0.
         13    1    3    3    0    0 -0.42958199432E+01 -0.92706420885E+02  0.29344452473E+03  0.30777040734E+03  0.00000000000E+00 0.  1.
        -13    1    3    3    0    0 -0.11848990127E+03 -0.79008352700E+03  0.17953519033E+04  0.19650853145E+04  0.00000000000E+00 0. -1.
          4    1    6    6  502    0 -0.31313069614E+02  0.87044426672E+02  0.70916900399E+03  0.71517684300E+03  0.00000000000E+00 0. -1.
          3    1    5    5  503    0  0.59942935960E+02  0.25722834893E+03  0.13425621647E+03  0.29628417225E+03  0.00000000000E+00 0. -1.
         -4    1    5    5    0  503  0.16607350125E+03  0.50053434665E+03  0.38727235035E+03  0.65428962497E+03  0.00000000000E+00 0.  1.
         -3    1    6    6    0  502 -0.71917646386E+02  0.37982825626E+02  0.35247605487E+03  0.36173776712E+03  0.00000000000E+00 0.  1.
<mgrwt>
<rscale>  0 0.22382126E+04</rscale>
<asrwt>0</asrwt>
<pdfrwt beam="1">  1        2 0.61325490E+00 0.22382126E+04</pdfrwt>
<pdfrwt beam="2">  1       -2 0.48336470E-01 0.22382126E+04</pdfrwt>
<totfact> 0.13053060E+00</totfact>
</mgrwt>
</event>
<event>
12    1  0.1442183E-007  0.1430821E+04  0.7818608E-02  0.8931806E-01
          1   -1    0    0  501    0  0.00000000000E+00  0.00000000000E+00  0.18502867453E+04  0.18502867453E+04  0.00000000000E+00 0. -1.
         -1   -1    0    0    0  501 -0.00000000000E+00 -0.00000000000E+00 -0.27661250331E+03  0.27661250331E+03  0.00000000000E+00 0.  1.
         23    2    1    2    0    0 -0.11124470623E+03  0.40189766182E+03  0.65633468782E+03  0.78295807017E+03  0.91383816751E+02 0.  0.
        254    2    1    2    0    0  0.11124470623E+03 -0.40189766182E+03  0.91733955412E+03  0.13439411784E+04  0.88925188681E+03 0.  0.
        -24    2    4    4    0    0 -0.20864614387E+03 -0.54250926165E+03  0.73930202812E+03  0.94369173983E+03  0.78339636885E+02 0.  0.
         24    2    4    4    0    0  0.31989085010E+03  0.14061159983E+03  0.17803752600E+03  0.40024943857E+03  0.80002965114E+02 0.  0.
         11    1    3    3    0    0 -0.74515953034E+02  0.23817038872E+03  0.47044261596E+03  0.53253546007E+03  0.00000000000E+00 0. -1.
        -11    1    3    3    0    0 -0.36728753199E+02  0.16372727310E+03  0.18589207186E+03  0.25042261009E+03  0.00000000000E+00 0.  1.
          2    1    6    6  502    0  0.12115242879E+03  0.56956949615E+02  0.11254585107E+03  0.17489589390E+03  0.00000000000E+00 0. -1.
          1    1    5    5  503    0 -0.27073296172E+01 -0.28974510793E+02  0.16567567195E+02  0.33486358299E+02  0.00000000000E+00 0. -1.
         -2    1    5    5    0  503 -0.20593881425E+03 -0.51353475085E+03  0.72273446093E+03  0.91020538153E+03  0.00000000000E+00 0.  1.
         -1    1    6    6    0  502  0.19873842132E+03  0.83654650213E+02  0.65491674921E+02  0.22535354467E+03  0.00000000000E+00 0.  1.
<mgrwt>
<rscale>  0 0.14308214E+04</rscale>
<asrwt>0</asrwt>
<pdfrwt beam="1">  1        1 0.28465949E+00 0.14308214E+04</pdfrwt>
<pdfrwt beam="2">  1       -1 0.42555771E-01 0.14308214E+04</pdfrwt>
<totfact> 0.19912082E+01</totfact>
</mgrwt>
</event>
<event>
12    1  0.1442183E-007  0.1342500E+04  0.7818608E-02  0.8996525E-01
         -2   -1    0    0    0  501 -0.00000000000E+00  0.00000000000E+00  0.12027639001E+03  0.12027639001E+03  0.00000000000E+00 0.  1.
          2   -1    0    0  501    0  0.00000000000E+00 -0.00000000000E+00 -0.37461746672E+04  0.37461746672E+04  0.00000000000E+00 0. -1.
         23    2    1    2    0    0  0.29194452286E+03  0.54903348038E+02 -0.41858009476E+03  0.52175126096E+03  0.93643475681E+02 0.  0.
        254    2    1    2    0    0 -0.29194452286E+03 -0.54903348038E+02 -0.32073181824E+04  0.33446997962E+04  0.90104429500E+03 0.  0.
        -24    2    4    4    0    0  0.79016995297E+02 -0.18465288184E+03 -0.16201096492E+03  0.27297587028E+03  0.89038759425E+02 0.  0.
         24    2    4    4    0    0 -0.37096151815E+03  0.12974953380E+03 -0.30453072175E+04  0.30717239260E+04  0.84524782505E+02 0.  0.
         13    1    3    3    0    0  0.25649987616E+03  0.67606227482E+02 -0.39948957576E+03  0.47953593150E+03  0.00000000000E+00 0.  1.
        -13    1    3    3    0    0  0.35444646697E+02 -0.12702879444E+02 -0.19090518999E+02  0.42215329459E+02  0.00000000000E+00 0. -1.
          2    1    6    6  502    0 -0.18758614500E+03  0.77528150578E+02 -0.12571762131E+04  0.12734564016E+04  0.00000000000E+00 0. -1.
          3    1    5    5  503    0  0.89872123743E+02 -0.12690926791E+03 -0.14288844391E+03  0.21118728255E+03  0.00000000000E+00 0. -1.
         -4    1    5    5    0  503 -0.10855128446E+02 -0.57743613931E+02 -0.19122521013E+02  0.61788587727E+02  0.00000000000E+00 0.  1.
         -1    1    6    6    0  502 -0.18337537315E+03  0.52221383225E+02 -0.17881310044E+04  0.17982675244E+04  0.00000000000E+00 0.  1.
<mgrwt>
<rscale>  0 0.13424997E+04</rscale>
<asrwt>0</asrwt>
<pdfrwt beam="1">  1        2 0.57633454E+00 0.13424997E+04</pdfrwt>
<pdfrwt beam="2">  1       -2 0.18504061E-01 0.13424997E+04</pdfrwt>
<totfact> 0.13230235E+01</totfact>
</mgrwt>
</event>
<event>
12    1  0.1442183E-007  0.2035155E+04  0.7818608E-02  0.8590359E-01
          2   -1    0    0  501    0  0.00000000000E+00  0.00000000000E+00  0.10945033248E+04  0.10945033248E+04  0.00000000000E+00 0. -1.
         -2   -1    0    0    0  501 -0.00000000000E+00 -0.00000000000E+00 -0.94605851607E+03  0.94605851607E+03  0.00000000000E+00 0.  1.
         23    2    1    2    0    0 -0.75130015233E+03  0.31484097756E+03  0.97068178217E+02  0.82524813487E+03  0.89640910468E+02 0.  0.
        254    2    1    2    0    0  0.75130015233E+03 -0.31484097756E+03  0.51376630497E+02  0.12153137060E+04  0.90042827906E+03 0.  0.
        -24    2    4    4    0    0  0.94515810255E+03 -0.25718785149E+03  0.11402164073E+03  0.98924959554E+03  0.78386210295E+02 0.  0.
         24    2    4    4    0    0 -0.19385795021E+03 -0.57653126077E+02 -0.62645010230E+02  0.22606411044E+03  0.79219927510E+02 0.  0.
         13    1    3    3    0    0 -0.36688587771E+03  0.12690030565E+03  0.83750864995E+02  0.39714372994E+03  0.00000000000E+00 0. -1.
        -13    1    3    3    0    0 -0.38441427462E+03  0.18794067191E+03  0.13317313223E+02  0.42810440493E+03  0.00000000000E+00 0.  1.
          4    1    6    6  502    0 -0.60708885504E+02  0.18450880483E+02 -0.24592241096E+02  0.68049850051E+02  0.00000000000E+00 0. -1.
          1    1    5    5  503    0  0.59274015139E+03 -0.19897277565E+03  0.82580335975E+02  0.63067468984E+03  0.00000000000E+00 0. -1.
         -2    1    5    5    0  503  0.35241795116E+03 -0.58215075836E+02  0.31441304751E+02  0.35857490570E+03  0.00000000000E+00 0.  1.
         -3    1    6    6    0  502 -0.13314906471E+03 -0.76104006561E+02 -0.38052769134E+02  0.15801426039E+03  0.00000000000E+00 0.  1.
<mgrwt>
<rscale>  0 0.20351552E+04</rscale>
<asrwt>0</asrwt>
<pdfrwt beam="1">  1        2 0.16838513E+00 0.20351552E+04</pdfrwt>
<pdfrwt beam="2">  1       -2 0.14554746E+00 0.20351552E+04</pdfrwt>
<totfact> 0.65999114E+00</totfact>
</mgrwt>
</event>
<event>
12    1  0.1442183E-007  0.2020592E+04  0.7818608E-02  0.8597053E-01
         -2   -1    0    0    0  501 -0.00000000000E+00  0.00000000000E+00  0.32864809974E+03  0.32864809974E+03  0.00000000000E+00 0.  1.
          2   -1    0    0  501    0  0.00000000000E+00 -0.00000000000E+00 -0.31057485948E+04  0.31057485948E+04  0.00000000000E+00 0. -1.
         23    2    1    2    0    0  0.45356497665E+03  0.22311971562E+03 -0.51456093709E+02  0.51704069131E+03  0.95811018936E+02 0.  0.
        254    2    1    2    0    0 -0.45356497665E+03 -0.22311971562E+03 -0.27256444014E+04  0.29173560033E+04  0.90902423042E+03 0.  0.
        -24    2    4    4    0    0 -0.30258362429E+03  0.32341578014E+03 -0.14696504248E+04  0.15369577224E+04  0.78816576983E+02 0.  0.
         24    2    4    4    0    0 -0.15098135235E+03 -0.54653549576E+03 -0.12559939765E+04  0.13803982808E+04  0.80511662038E+02 0.  0.
         11    1    3    3    0    0  0.12892272370E+02  0.29502447938E+02  0.43336369116E+01  0.32486697741E+02  0.00000000000E+00 0. -1.
        -11    1    3    3    0    0  0.44067270428E+03  0.19361726768E+03 -0.55789730620E+02  0.48455399357E+03  0.00000000000E+00 0.  1.
          2    1    6    6  502    0 -0.15280536003E+03 -0.53303045616E+03 -0.12449614217E+04  0.13628645885E+04  0.00000000000E+00 0. -1.
          3    1    5    5  503    0 -0.22785085567E+03  0.20272492072E+03 -0.10808138250E+04  0.11230191139E+04  0.00000000000E+00 0. -1.
         -4    1    5    5    0  503 -0.74732768622E+02  0.12069085942E+03 -0.38883659987E+03  0.41393860856E+03  0.00000000000E+00 0.  1.
         -1    1    6    6    0  502  0.18240076736E+01 -0.13505039594E+02 -0.11032554889E+02  0.17533692304E+02  0.00000000000E+00 0.  1.
<mgrwt>
<rscale>  0 0.20205924E+04</rscale>
<asrwt>0</asrwt>
<pdfrwt beam="1">  1        2 0.47780749E+00 0.20205924E+04</pdfrwt>
<pdfrwt beam="2">  1       -2 0.50561245E-01 0.20205924E+04</pdfrwt>
<totfact> 0.51335668E+00</totfact>
</mgrwt>
</event>
<event>
12    1  0.1442183E-007  0.1633679E+04  0.7818608E-02  0.8800121E-01
          2   -1    0    0  501    0  0.00000000000E+00  0.00000000000E+00  0.36853056865E+04  0.36853056865E+04  0.00000000000E+00 0. -1.
         -2   -1    0    0    0  501 -0.00000000000E+00 -0.00000000000E+00 -0.18105052985E+03  0.18105052985E+03  0.00000000000E+00 0.  1.
         23    2    1    2    0    0 -0.44866026410E+03 -0.18199175602E+03  0.19046489414E+04  0.19671239687E+04  0.86441231078E+02 0.  0.
        254    2    1    2    0    0  0.44866026410E+03  0.18199175602E+03  0.15996062152E+04  0.18992322476E+04  0.90217850494E+03 0.  0.
        -24    2    4    4    0    0  0.90689310835E+01 -0.26586337161E+03  0.14993009065E+03  0.31760975651E+03  0.87357583936E+02 0.  0.
         24    2    4    4    0    0  0.43959133301E+03  0.44785512764E+03  0.14496761246E+04  0.15816224911E+04  0.78447962416E+02 0.  0.
         11    1    3    3    0    0 -0.44962742035E+02 -0.10076645288E+01  0.26736138556E+03  0.27111763876E+03  0.00000000000E+00 0. -1.
        -11    1    3    3    0    0 -0.40369752206E+03 -0.18098409150E+03  0.16372875558E+04  0.16960063299E+04  0.00000000000E+00 0.  1.
          4    1    6    6  502    0  0.13877199948E+03  0.18233482395E+03  0.58951589043E+03  0.63248133643E+03  0.00000000000E+00 0. -1.
          1    1    5    5  503    0  0.18338462600E+02 -0.30178008030E+02 -0.46262015980E+01  0.35614787945E+02  0.00000000000E+00 0. -1.
         -2    1    5    5    0  503 -0.92695315167E+01 -0.23568536358E+03  0.15455629224E+03  0.28199496856E+03  0.00000000000E+00 0.  1.
         -3    1    6    6    0  502  0.30081933354E+03  0.26552030369E+03  0.86016023417E+03  0.94914115470E+03  0.00000000000E+00 0.  1.
<mgrwt>
<rscale>  0 0.16336787E+04</rscale>
<asrwt>0</asrwt>
<pdfrwt beam="1">  1        2 0.56697005E+00 0.16336787E+04</pdfrwt>
<pdfrwt beam="2">  1       -2 0.27853930E-01 0.16336787E+04</pdfrwt>
<totfact> 0.68313395E+00</totfact>
</mgrwt>
</event>
<event>
12    1  0.1442183E-007  0.1371733E+04  0.7818608E-02  0.8974538E-01
          2   -1    0    0  501    0  0.00000000000E+00  0.00000000000E+00  0.32022496394E+03  0.32022496394E+03  0.00000000000E+00 0. -1.
         -2   -1    0    0    0  501 -0.00000000000E+00 -0.00000000000E+00 -0.14690071823E+04  0.14690071823E+04  0.00000000000E+00 0.  1.
         23    2    1    2    0    0 -0.69052950947E+02  0.18962395519E+03  0.84793507861E+02  0.23726919276E+03  0.91548765359E+02 0.  0.
        254    2    1    2    0    0  0.69052950947E+02 -0.18962395519E+03 -0.12335757262E+04  0.15519629535E+04  0.91986650239E+03 0.  0.
        -24    2    4    4    0    0  0.19084530412E+03  0.83533502826E+02 -0.12223402815E+04  0.12425366516E+04  0.79886111347E+02 0.  0.
         24    2    4    4    0    0 -0.12179235318E+03 -0.27315745802E+03 -0.11235444737E+02  0.30942630182E+03  0.78549518602E+02 0.  0.
         13    1    3    3    0    0 -0.24903067977E+02  0.16860967435E+03  0.51263970665E+02  0.17798140287E+03  0.00000000000E+00 0. -1.
        -13    1    3    3    0    0 -0.44149882970E+02  0.21014280849E+02  0.33529537196E+02  0.59287789893E+02  0.00000000000E+00 0.  1.
          4    1    6    6  502    0 -0.73116199157E+02 -0.18296130751E+03 -0.43886791268E+02  0.20185853728E+03  0.00000000000E+00 0. -1.
          1    1    5    5  503    0  0.18002838075E+03  0.72526463375E+02 -0.11986579981E+04  0.12142698638E+04  0.00000000000E+00 0. -1.
         -2    1    5    5    0  503  0.10816923374E+02  0.11007039451E+02 -0.23682283374E+02  0.28266787836E+02  0.00000000000E+00 0.  1.
         -3    1    6    6    0  502 -0.48676154020E+02 -0.90196150507E+02  0.32651346530E+02  0.10756776453E+03  0.00000000000E+00 0.  1.
<mgrwt>
<rscale>  0 0.13717329E+04</rscale>
<asrwt>0</asrwt>
<pdfrwt beam="1">  1        2 0.49265379E-01 0.13717329E+04</pdfrwt>
<pdfrwt beam="2">  1       -2 0.22600110E+00 0.13717329E+04</pdfrwt>
<totfact> 0.90171666E+00</totfact>
</mgrwt>
</event>
<event>
12    1  0.1442183E-007  0.1632550E+04  0.7818608E-02  0.8800797E-01
          2   -1    0    0  501    0  0.00000000000E+00  0.00000000000E+00  0.10624362387E+04  0.10624362387E+04  0.00000000000E+00 0. -1.
         -2   -1    0    0    0  501 -0.00000000000E+00 -0.00000000000E+00 -0.62714831510E+03  0.62714831510E+03  0.00000000000E+00 0.  1.
         23    2    1    2    0    0 -0.61980218909E+02 -0.94845359625E+02 -0.41737535848E+03  0.44242477970E+03  0.93275431120E+02 0.  0.
        254    2    1    2    0    0  0.61980218909E+02  0.94845359625E+02  0.85266328206E+03  0.12471597741E+04  0.90307011895E+03 0.  0.
        -24    2    4    4    0    0 -0.99592781496E+02  0.33683623580E+03  0.87315215684E+03  0.94472614027E+03  0.82069599899E+02 0.  0.
         24    2    4    4    0    0  0.16157300041E+03 -0.24199087617E+03 -0.20488874786E+02  0.30243363382E+03  0.79880474855E+02 0.  0.
         11    1    3    3    0    0 -0.69233553160E+02 -0.10345476019E+03 -0.30411480371E+03  0.32860612612E+03  0.00000000000E+00 0.  1.
        -11    1    3    3    0    0  0.72533342514E+01  0.86094005692E+01 -0.11326055477E+03  0.11381865358E+03  0.00000000000E+00 0. -1.
          4    1    6    6  502    0  0.86387676268E+02 -0.15383716367E+03  0.24535594535E+02  0.17813112849E+03  0.00000000000E+00 0. -1.
          1    1    5    5  503    0 -0.11283794954E+03  0.30765782455E+03  0.81328055968E+03  0.87681868629E+03  0.00000000000E+00 0. -1.
         -2    1    5    5    0  503  0.13245168042E+02  0.29178411243E+02  0.59871597160E+02  0.67907453976E+02  0.00000000000E+00 0.  1.
         -3    1    6    6    0  502  0.75185324137E+02 -0.88153712503E+02 -0.45024469321E+02  0.12430250533E+03  0.00000000000E+00 0.  1.
<mgrwt>
<rscale>  0 0.16325503E+04</rscale>
<asrwt>0</asrwt>
<pdfrwt beam="1">  1        2 0.16345173E+00 0.16325503E+04</pdfrwt>
<pdfrwt beam="2">  1       -2 0.96484356E-01 0.16325503E+04</pdfrwt>
<totfact> 0.19769070E+01</totfact>
</mgrwt>
</event>
<event>
12    1  0.2234624E-007  0.2472872E+04  0.7818608E-02  0.8412714E-01
          2   -1    0    0  501    0  0.00000000000E+00  0.00000000000E+00  0.25265285725E+04  0.25265285725E+04  0.00000000000E+00 0. -1.
         -2   -1    0    0    0  501 -0.00000000000E+00 -0.00000000000E+00 -0.60508852023E+03  0.60508852023E+03  0.00000000000E+00 0.  1.
         23    2    1    2    0    0  0.77067724723E+03  0.12062445955E+03 -0.94752096933E+02  0.79105210518E+03  0.91059286229E+02 0.  0.
        254    2    1    2    0    0 -0.77067724723E+03 -0.12062445955E+03  0.20161921492E+04  0.23405649876E+04  0.89706187012E+03 0.  0.
        -24    2    4    4    0    0  0.12835458329E+03 -0.16379896593E+03  0.15396946871E+03  0.27066946319E+03  0.79059222875E+02 0.  0.
         24    2    4    4    0    0 -0.89903183052E+03  0.43174506379E+02  0.18622226805E+04  0.20698955244E+04  0.80448118265E+02 0.  0.
         13    1    3    3    0    0  0.63311986187E+02  0.15787981200E+02  0.16633075148E+02  0.67337412589E+02  0.00000000000E+00 0. -1.
        -13    1    3    3    0    0  0.70736526104E+03  0.10483647835E+03 -0.11138517208E+03  0.72371469259E+03  0.00000000000E+00 0.  1.
          4    1    6    6  502    0 -0.15036021633E+02  0.42798114442E+01  0.62317317123E+02  0.64248320958E+02  0.00000000000E+00 0. -1.
          1    1    5    5  503    0 -0.61081312693E+01 -0.32355419577E+02  0.11953410720E+02  0.35029508582E+02  0.00000000000E+00 0. -1.
         -2    1    5    5    0  503  0.13446271456E+03 -0.13144354635E+03  0.14201605799E+03  0.23563995461E+03  0.00000000000E+00 0.  1.
         -3    1    6    6    0  502 -0.88399580888E+03  0.38894694935E+02  0.17999053634E+04  0.20056472034E+04  0.00000000000E+00 0.  1.
<mgrwt>
<rscale>  0 0.24728716E+04</rscale>
<asrwt>0</asrwt>
<pdfrwt beam="1">  1        2 0.38869670E+00 0.24728716E+04</pdfrwt>
<pdfrwt beam="2">  1       -2 0.93090543E-01 0.24728716E+04</pdfrwt>
<totfact> 0.29343270E+00</totfact>
</mgrwt>
</event>
<event>
12    1  0.1442183E-007  0.3319872E+04  0.7818608E-02  0.8157857E-01
          2   -1    0    0  501    0  0.00000000000E+00  0.00000000000E+00  0.12654236828E+04  0.12654236828E+04  0.00000000000E+00 0. -1.
         -2   -1    0    0    0  501 -0.00000000000E+00 -0.00000000000E+00 -0.21774426479E+04  0.21774426479E+04  0.00000000000E+00 0.  1.
         23    2    1    2    0    0  0.12713505246E+04 -0.82562033306E+03 -0.70251767155E+03  0.16732596151E+04  0.91025106851E+02 0.  0.
        254    2    1    2    0    0 -0.12713505246E+04  0.82562033306E+03 -0.20950129360E+03  0.17696067156E+04  0.88861467753E+03 0.  0.
        -24    2    4    4    0    0  0.19293676181E+02  0.36751187018E+03 -0.11762809771E+03  0.39469439646E+03  0.80685045473E+02 0.  0.
         24    2    4    4    0    0 -0.12906442008E+04  0.45810846288E+03 -0.91873195887E+02  0.13749123191E+04  0.79481975690E+02 0.  0.
         13    1    3    3    0    0  0.50701702870E+03 -0.35618023366E+03 -0.24462559313E+03  0.66616237289E+03  0.00000000000E+00 0.  1.
        -13    1    3    3    0    0  0.76433349587E+03 -0.46944009940E+03 -0.45789207842E+03  0.10070972422E+04  0.00000000000E+00 0. -1.
          2    1    6    6  502    0 -0.11704273596E+04  0.40438353554E+03 -0.61862778198E+02  0.12398601741E+04  0.00000000000E+00 0. -1.
          3    1    5    5  503    0 -0.19125278570E+02  0.28599797573E+03 -0.90603323676E+02  0.30061533671E+03  0.00000000000E+00 0. -1.
         -4    1    5    5    0  503  0.38418954751E+02  0.81513894441E+02 -0.27024774037E+02  0.94079059747E+02  0.00000000000E+00 0.  1.
         -1    1    6    6    0  502 -0.12021684116E+03  0.53724927338E+02 -0.30010417690E+02  0.13505214506E+03  0.00000000000E+00 0.  1.
<mgrwt>
<rscale>  0 0.33198720E+04</rscale>
<asrwt>0</asrwt>
<pdfrwt beam="1">  1        2 0.19468057E+00 0.33198720E+04</pdfrwt>
<pdfrwt beam="2">  1       -2 0.33499117E+00 0.33198720E+04</pdfrwt>
<totfact> 0.27902745E-01</totfact>
</mgrwt>
</event>
<event>
12    1  0.1442183E-007  0.1433390E+04  0.7818608E-02  0.8929998E-01
         -2   -1    0    0    0  501 -0.00000000000E+00  0.00000000000E+00  0.83249803443E+03  0.83249803443E+03  0.00000000000E+00 0.  1.
          2   -1    0    0  501    0  0.00000000000E+00 -0.00000000000E+00 -0.61700010940E+03  0.61700010940E+03  0.00000000000E+00 0. -1.
         23    2    1    2    0    0  0.38783975762E+03 -0.28675301834E+02 -0.99975987674E+02  0.41139711976E+03  0.89501069875E+02 0.  0.
        254    2    1    2    0    0 -0.38783975762E+03  0.28675301834E+02  0.31547391270E+03  0.10381010241E+04  0.90933381993E+03 0.  0.
        -24    2    4    4    0    0 -0.47778842429E+03  0.25098180643E+03 -0.96871953059E+02  0.55437717903E+03  0.81708235796E+02 0.  0.
         24    2    4    4    0    0  0.89948666669E+02 -0.22230650459E+03  0.41234586576E+03  0.48372384505E+03  0.80303802160E+02 0.  0.
         11    1    3    3    0    0  0.20455221610E+03 -0.13107242169E+02 -0.98577361617E+02  0.22744429017E+03  0.00000000000E+00 0. -1.
        -11    1    3    3    0    0  0.18328754152E+03 -0.15568059665E+02 -0.13986260572E+01  0.18395282958E+03  0.00000000000E+00 0.  1.
          2    1    6    6  502    0  0.10347660807E+03 -0.20618104092E+03  0.38925499155E+03  0.45247925753E+03  0.00000000000E+00 0. -1.
          1    1    5    5  503    0 -0.39068677763E+03  0.22835443062E+03 -0.57566192350E+02  0.45617515353E+03  0.00000000000E+00 0. -1.
         -2    1    5    5    0  503 -0.87101646660E+02  0.22627375805E+02 -0.39305760709E+02  0.98202025496E+02  0.00000000000E+00 0.  1.
         -1    1    6    6    0  502 -0.13527941401E+02 -0.16125463677E+02  0.23090874207E+02  0.31244587515E+02  0.00000000000E+00 0.  1.
<mgrwt>
<rscale>  0 0.14333895E+04</rscale>
<asrwt>0</asrwt>
<pdfrwt beam="1">  1        2 0.94923094E-01 0.14333895E+04</pdfrwt>
<pdfrwt beam="2">  1       -2 0.12807662E+00 0.14333895E+04</pdfrwt>
<totfact> 0.20984764E+01</totfact>
</mgrwt>
</event>
<event>
12    1  0.1450614E-007  0.1538151E+04  0.7818608E-02  0.8859472E-01
         -1   -1    0    0    0  501 -0.00000000000E+00  0.00000000000E+00  0.82752750637E+03  0.82752750637E+03  0.00000000000E+00 0.  1.
          1   -1    0    0  501    0  0.00000000000E+00 -0.00000000000E+00 -0.71475251095E+03  0.71475251095E+03  0.00000000000E+00 0. -1.
         23    2    1    2    0    0 -0.15459680848E+03 -0.26890386576E+03  0.43117782509E+03  0.53892776171E+03  0.91210488871E+02 0.  0.
        254    2    1    2    0    0  0.15459680848E+03  0.26890386576E+03 -0.31840282968E+03  0.10033522556E+04  0.89951427152E+03 0.  0.
        -24    2    4    4    0    0 -0.16857680541E+03  0.45094172572E+03  0.28930872192E+02  0.48877085025E+03  0.79330759296E+02 0.  0.
         24    2    4    4    0    0  0.32317361389E+03 -0.18203785996E+03 -0.34733370187E+03  0.51458140535E+03  0.81082396984E+02 0.  0.
         11    1    3    3    0    0 -0.16437543156E+03 -0.23425246459E+03  0.36753473764E+03  0.46580605733E+03  0.00000000000E+00 0.  1.
        -11    1    3    3    0    0  0.97786230786E+01 -0.34651401166E+02  0.63643087453E+02  0.73121704388E+02  0.00000000000E+00 0. -1.
          4    1    6    6  502    0  0.59348387667E+02 -0.10431715942E+01 -0.46267475153E+02  0.75259541472E+02  0.00000000000E+00 0. -1.
          3    1    5    5  503    0 -0.35759412984E+02  0.55022038665E+02  0.27536708392E+02  0.71164813390E+02  0.00000000000E+00 0. -1.
         -4    1    5    5    0  503 -0.13281739243E+03  0.39591968706E+03  0.13941637998E+01  0.41760603686E+03  0.00000000000E+00 0.  1.
         -3    1    6    6    0  502  0.26382522622E+03 -0.18099468837E+03 -0.30106622672E+03  0.43932186388E+03  0.00000000000E+00 0.  1.
<mgrwt>
<rscale>  0 0.15381513E+04</rscale>
<asrwt>0</asrwt>
<pdfrwt beam="1">  1        1 0.10996192E+00 0.15381513E+04</pdfrwt>
<pdfrwt beam="2">  1       -1 0.12731192E+00 0.15381513E+04</pdfrwt>
<totfact> 0.13607285E+01</totfact>
</mgrwt>
</event>
<event>
12    1  0.1442183E-007  0.1596334E+04  0.7818608E-02  0.8822803E-01
          2   -1    0    0  501    0  0.00000000000E+00  0.00000000000E+00  0.14849564403E+04  0.14849564403E+04  0.00000000000E+00 0. -1.
         -2   -1    0    0    0  501 -0.00000000000E+00 -0.00000000000E+00 -0.42901642259E+03  0.42901642259E+03  0.00000000000E+00 0.  1.
         23    2    1    2    0    0  0.40564575272E+03  0.50869388346E+02 -0.53127002247E+02  0.42198953913E+03  0.90091738777E+02 0.  0.
        254    2    1    2    0    0 -0.40564575272E+03 -0.50869388346E+02  0.11090670200E+04  0.14919833238E+04  0.91041112269E+03 0.  0.
        -24    2    4    4    0    0 -0.22237377541E+03 -0.28014436742E+02 -0.10633282744E+03  0.26002814683E+03  0.77929854975E+02 0.  0.
         24    2    4    4    0    0 -0.18327197731E+03 -0.22854951603E+02  0.12153998474E+04  0.12319551770E+04  0.80036257103E+02 0.  0.
         11    1    3    3    0    0  0.19579204039E+03  0.57298841809E+01 -0.66664718337E+02  0.20690949549E+03  0.00000000000E+00 0.  1.
        -11    1    3    3    0    0  0.20985371233E+03  0.45139504165E+02  0.13537716090E+02  0.21508004364E+03  0.00000000000E+00 0. -1.
          2    1    6    6  502    0 -0.17878482415E+03 -0.95367807444E+01  0.11851841073E+04  0.11986310240E+04  0.00000000000E+00 0. -1.
          1    1    5    5  503    0 -0.22123152648E+03 -0.21708088037E+02 -0.85396300921E+02  0.23813264708E+03  0.00000000000E+00 0. -1.
         -2    1    5    5    0  503 -0.11422489326E+01 -0.63063487057E+01 -0.20936526521E+02  0.21895499752E+02  0.00000000000E+00 0.  1.
         -1    1    6    6    0  502 -0.44871531576E+01 -0.13318170859E+02  0.30215740111E+02  0.33324152937E+02  0.00000000000E+00 0.  1.
<mgrwt>
<rscale>  0 0.15963342E+04</rscale>
<asrwt>0</asrwt>
<pdfrwt beam="1">  1        2 0.22845483E+00 0.15963342E+04</pdfrwt>
<pdfrwt beam="2">  1       -2 0.66002527E-01 0.15963342E+04</pdfrwt>
<totfact> 0.26225728E+01</totfact>
</mgrwt>
</event>
<event>
12    1  0.1442183E-007  0.1253389E+04  0.7818608E-02  0.9067367E-01
          2   -1    0    0  501    0  0.00000000000E+00  0.00000000000E+00  0.15085531884E+04  0.15085531884E+04  0.00000000000E+00 0. -1.
         -2   -1    0    0    0  501 -0.00000000000E+00 -0.00000000000E+00 -0.26034605475E+03  0.26034605475E+03  0.00000000000E+00 0.  1.
         23    2    1    2    0    0 -0.19373343907E+03  0.56028835802E+02  0.59892726957E+03  0.64051988315E+03  0.10430709766E+03 0.  0.
        254    2    1    2    0    0  0.19373343907E+03 -0.56028835802E+02  0.64927986403E+03  0.11283793600E+04  0.90055747306E+03 0.  0.
        -24    2    4    4    0    0 -0.22694902765E+03 -0.17974939752E+02 -0.10309374708E+03  0.26201242407E+03  0.78697077917E+02 0.  0.
         24    2    4    4    0    0  0.42068246671E+03 -0.38053896050E+02  0.75237361111E+03  0.86636693588E+03  0.78126692637E+02 0.  0.
         13    1    3    3    0    0 -0.18881242950E+01 -0.12042731056E+02  0.59300797374E+01  0.13555745288E+02  0.00000000000E+00 0.  1.
        -13    1    3    3    0    0 -0.19184531477E+03  0.68071566858E+02  0.59299718983E+03  0.62696413786E+03  0.00000000000E+00 0. -1.
          4    1    6    6  502    0  0.39022645032E+03 -0.55903543377E+02  0.69418866369E+03  0.79831058461E+03  0.00000000000E+00 0. -1.
          3    1    5    5  503    0 -0.11256426732E+03  0.24763989991E+02 -0.72386381853E+02  0.13610201231E+03  0.00000000000E+00 0. -1.
         -4    1    5    5    0  503 -0.11438476032E+03 -0.42738929743E+02 -0.30707365225E+02  0.12591041176E+03  0.00000000000E+00 0.  1.
         -3    1    6    6    0  502  0.30456016389E+02  0.17849647327E+02  0.58184947413E+02  0.68056351279E+02  0.00000000000E+00 0.  1.
<mgrwt>
<rscale>  0 0.12533888E+04</rscale>
<asrwt>0</asrwt>
<pdfrwt beam="1">  1        2 0.23208510E+00 0.12533888E+04</pdfrwt>
<pdfrwt beam="2">  1       -2 0.40053240E-01 0.12533888E+04</pdfrwt>
<totfact> 0.72778590E+01</totfact>
</mgrwt>
</event>
<event>
12    1  0.1442183E-007  0.2337833E+04  0.7818608E-02  0.8463152E-01
          1   -1    0    0  501    0  0.00000000000E+00  0.00000000000E+00  0.23132640853E+04  0.23132640853E+04  0.00000000000E+00 0. -1.
         -1   -1    0    0    0  501 -0.00000000000E+00 -0.00000000000E+00 -0.59066576971E+03  0.59066576971E+03  0.00000000000E+00 0.  1.
         23    2    1    2    0    0  0.64956879966E+03 -0.73686009386E+03  0.83737690752E+03  0.12934795981E+04  0.83588049922E+02 0.  0.
        254    2    1    2    0    0 -0.64956879966E+03  0.73686009386E+03  0.88522140811E+03  0.16104502569E+04  0.91925549509E+03 0.  0.
        -24    2    4    4    0    0  0.88025215935E+01  0.45888247369E+03 -0.49895950644E+01  0.46600114807E+03  0.80508166689E+02 0.  0.
         24    2    4    4    0    0 -0.65837132126E+03  0.27797762017E+03  0.89021100317E+03  0.11444491089E+04  0.81017150137E+02 0.  0.
         13    1    3    3    0    0  0.60379813587E+03 -0.67911932536E+03  0.74339358484E+03  0.11740567571E+04  0.00000000000E+00 0. -1.
        -13    1    3    3    0    0  0.45770663796E+02 -0.57740768501E+02  0.93983322681E+02  0.11942284100E+03  0.00000000000E+00 0.  1.
          4    1    6    6  502    0 -0.48645748772E+03  0.17795951108E+03  0.68334732398E+03  0.85748121853E+03  0.00000000000E+00 0. -1.
          3    1    5    5  503    0 -0.33990070783E+02  0.22833287756E+03  0.97142392985E+01  0.23105322835E+03  0.00000000000E+00 0. -1.
         -4    1    5    5    0  503  0.42792592377E+02  0.23054959613E+03 -0.14703834363E+02  0.23494791973E+03  0.00000000000E+00 0.  1.
         -3    1    6    6    0  502 -0.17191383353E+03  0.10001810909E+03  0.20686367919E+03  0.28696789032E+03  0.00000000000E+00 0.  1.
<mgrwt>
<rscale>  0 0.23378331E+04</rscale>
<asrwt>0</asrwt>
<pdfrwt beam="1">  1        1 0.35588678E+00 0.23378331E+04</pdfrwt>
<pdfrwt beam="2">  1       -1 0.90871658E-01 0.23378331E+04</pdfrwt>
<totfact> 0.19411951E+00</totfact>
</mgrwt>
</event>
<event>
12    1  0.1442183E-007  0.2339361E+04  0.7818608E-02  0.8462561E-01
         -1   -1    0    0    0  501 -0.00000000000E+00  0.00000000000E+00  0.77512951318E+03  0.77512951318E+03  0.00000000000E+00 0.  1.
          1   -1    0    0  501    0  0.00000000000E+00 -0.00000000000E+00 -0.17650625339E+04  0.17650625339E+04  0.00000000000E+00 0. -1.
         23    2    1    2    0    0 -0.23535757084E+03 -0.45415094988E+03 -0.13461806952E+04  0.14425260347E+04  0.83860750183E+02 0.  0.
        254    2    1    2    0    0  0.23535757084E+03  0.45415094988E+03  0.35624767446E+03  0.10976660123E+04  0.90349986035E+03 0.  0.
        -24    2    4    4    0    0  0.38327731716E+02  0.11132214985E+02 -0.27977382877E+03  0.29391760153E+03  0.80754071082E+02 0.  0.
         24    2    4    4    0    0  0.19702983912E+03  0.44301873489E+03  0.63602150322E+03  0.80374841080E+03  0.80011238834E+02 0.  0.
         13    1    3    3    0    0 -0.19084382443E+03 -0.41804779005E+03 -0.11595749067E+04  0.12473168340E+04  0.00000000000E+00 0. -1.
        -13    1    3    3    0    0 -0.44513746412E+02 -0.36103159829E+02 -0.18660578846E+03  0.19520920075E+03  0.00000000000E+00 0.  1.
          2    1    6    6  502    0  0.15110029744E+03  0.24896849608E+03  0.39942829623E+03  0.49432739734E+03  0.00000000000E+00 0. -1.
          1    1    5    5  503    0  0.40351660854E+02  0.30323019678E+02 -0.26459396528E+03  0.26936538107E+03  0.00000000000E+00 0. -1.
         -2    1    5    5    0  503 -0.20239291377E+01 -0.19190804692E+02 -0.15179863482E+02  0.24552220454E+02  0.00000000000E+00 0.  1.
         -1    1    6    6    0  502  0.45929541685E+02  0.19405023881E+03  0.23659320699E+03  0.30942101347E+03  0.00000000000E+00 0.  1.
<mgrwt>
<rscale>  0 0.23393606E+04</rscale>
<asrwt>0</asrwt>
<pdfrwt beam="1">  1        1 0.27154808E+00 0.23393606E+04</pdfrwt>
<pdfrwt beam="2">  1       -1 0.11925069E+00 0.23393606E+04</pdfrwt>
<totfact> 0.24367660E+00</totfact>
</mgrwt>
</event>
<event>
12    1  0.1442183E-007  0.2182143E+04  0.7818608E-02  0.8525897E-01
         -1   -1    0    0    0  501 -0.00000000000E+00  0.00000000000E+00  0.63430630066E+03  0.63430630066E+03  0.00000000000E+00 0.  1.
          1   -1    0    0  501    0  0.00000000000E+00 -0.00000000000E+00 -0.18767548008E+04  0.18767548008E+04  0.00000000000E+00 0. -1.
         23    2    1    2    0    0 -0.82341184883E+03  0.32834873352E+03 -0.71281887761E+03  0.11411945777E+04  0.91620675681E+02 0.  0.
        254    2    1    2    0    0  0.82341184883E+03 -0.32834873352E+03 -0.52962962252E+03  0.13698665238E+04  0.90011487730E+03 0.  0.
        -24    2    4    4    0    0  0.90087168415E+03  0.11236647221E+02 -0.35703163646E+03  0.97281649873E+03  0.84878131636E+02 0.  0.
         24    2    4    4    0    0 -0.77459835326E+02 -0.33958538074E+03 -0.17259798606E+03  0.39705002505E+03  0.80872743836E+02 0.  0.
         11    1    3    3    0    0 -0.62136498778E+03  0.20580925004E+03 -0.53716924487E+03  0.84676011542E+03  0.00000000000E+00 0. -1.
        -11    1    3    3    0    0 -0.20204686105E+03  0.12253948348E+03 -0.17564963274E+03  0.29443446224E+03  0.00000000000E+00 0.  1.
          2    1    6    6  502    0  0.74137843364E+00 -0.93432816247E+02 -0.78935171664E+02  0.12231517534E+03  0.00000000000E+00 0. -1.
          1    1    5    5  503    0  0.61471069532E+03  0.44179381727E+02 -0.22694536901E+03  0.65675357420E+03  0.00000000000E+00 0. -1.
         -2    1    5    5    0  503  0.28616098883E+03 -0.32942734506E+02 -0.13008626744E+03  0.31606292453E+03  0.00000000000E+00 0.  1.
         -1    1    6    6    0  502 -0.78201213760E+02 -0.24615256449E+03 -0.93662814399E+02  0.27473484970E+03  0.00000000000E+00 0.  1.
<mgrwt>
<rscale>  0 0.21821433E+04</rscale>
<asrwt>0</asrwt>
<pdfrwt beam="1">  1        1 0.28873151E+00 0.21821433E+04</pdfrwt>
<pdfrwt beam="2">  1       -1 0.97585585E-01 0.21821433E+04</pdfrwt>
<totfact> 0.33242040E+00</totfact>
</mgrwt>
</event>
<event>
12    1  0.1697685E-007  0.1610310E+04  0.7818608E-02  0.8814239E-01
         -1   -1    0    0    0  501 -0.00000000000E+00  0.00000000000E+00  0.28832192028E+03  0.28832192028E+03  0.00000000000E+00 0.  1.
          1   -1    0    0  501    0  0.00000000000E+00 -0.00000000000E+00 -0.22484388652E+04  0.22484388652E+04  0.00000000000E+00 0. -1.
         23    2    1    2    0    0 -0.26374971211E+03 -0.15246900779E+03  0.44266019602E+02  0.32093947601E+03  0.90730137189E+02 0.  0.
        254    2    1    2    0    0  0.26374971211E+03  0.15246900779E+03 -0.20043829645E+04  0.22158213094E+04  0.89414892384E+03 0.  0.
        -24    2    4    4    0    0 -0.77372948010E+02  0.11194418647E+03 -0.18026618386E+04  0.18095323950E+04  0.79370714024E+02 0.  0.
         24    2    4    4    0    0  0.34112266012E+03  0.40524821324E+02 -0.20172112586E+03  0.40628891440E+03  0.79826931247E+02 0.  0.
         13    1    3    3    0    0 -0.20682836295E+03 -0.15779188555E+03  0.28941527097E+02  0.26175152886E+03  0.00000000000E+00 0.  1.
        -13    1    3    3    0    0 -0.56921349162E+02  0.53228777600E+01  0.15324492505E+02  0.59187947157E+02  0.00000000000E+00 0. -1.
          4    1    6    6  502    0  0.30769798709E+03  0.16747486089E+02 -0.15785492405E+03  0.34623215708E+03  0.00000000000E+00 0. -1.
          1    1    5    5  503    0 -0.84284533249E+02  0.74675749260E+02 -0.15449089772E+04  0.15490074557E+04  0.00000000000E+00 0. -1.
         -2    1    5    5    0  503  0.69115852390E+01  0.37268437211E+02 -0.25775286145E+03  0.26052493932E+03  0.00000000000E+00 0.  1.
         -3    1    6    6    0  502  0.33424673034E+02  0.23777335236E+02 -0.43866201815E+02  0.60056757322E+02  0.00000000000E+00 0.  1.
<mgrwt>
<rscale>  0 0.16103095E+04</rscale>
<asrwt>0</asrwt>
<pdfrwt beam="1">  1        1 0.34591368E+00 0.16103095E+04</pdfrwt>
<pdfrwt beam="2">  1       -1 0.44357218E-01 0.16103095E+04</pdfrwt>
<totfact> 0.97468130E+00</totfact>
</mgrwt>
</event>
<event>
12    1  0.1442183E-007  0.2414205E+04  0.7818608E-02  0.8434205E-01
          2   -1    0    0  501    0  0.00000000000E+00  0.00000000000E+00  0.24977396486E+04  0.24977396486E+04  0.00000000000E+00 0. -1.
         -2   -1    0    0    0  501 -0.00000000000E+00 -0.00000000000E+00 -0.58336589340E+03  0.58336589340E+03  0.00000000000E+00 0.  1.
         23    2    1    2    0    0  0.46241817133E+03 -0.29020276106E+03  0.19408352542E+04  0.20182683066E+04  0.92289034264E+02 0.  0.
        254    2    1    2    0    0 -0.46241817133E+03  0.29020276106E+03 -0.26461498935E+02  0.10628372354E+04  0.91152321441E+03 0.  0.
        -24    2    4    4    0    0 -0.43635950421E+03  0.91887525612E+02  0.38688359641E+03  0.59652156747E+03  0.85475897228E+02 0.  0.
         24    2    4    4    0    0 -0.26058667115E+02  0.19831523545E+03 -0.41334509534E+03  0.46631566797E+03  0.81167404838E+02 0.  0.
         11    1    3    3    0    0  0.42612571207E+03 -0.29310062320E+03  0.18214678432E+04  0.18934719965E+04  0.00000000000E+00 0. -1.
        -11    1    3    3    0    0  0.36292459253E+02  0.28978621414E+01  0.11936741101E+03  0.12479631010E+03  0.00000000000E+00 0.  1.
          2    1    6    6  502    0 -0.19846999772E+02  0.20542865228E+03 -0.39685620819E+03  0.44731385464E+03  0.00000000000E+00 0. -1.
          3    1    5    5  503    0 -0.36780828807E+03  0.61076336906E+02  0.28195121914E+03  0.46745026011E+03  0.00000000000E+00 0. -1.
         -4    1    5    5    0  503 -0.68551216140E+02  0.30811188705E+02  0.10493237727E+03  0.12907130736E+03  0.00000000000E+00 0.  1.
         -1    1    6    6    0  502 -0.62116673433E+01 -0.71134168302E+01 -0.16488887151E+02  0.19001813326E+02  0.00000000000E+00 0.  1.
<mgrwt>
<rscale>  0 0.24142047E+04</rscale>
<asrwt>0</asrwt>
<pdfrwt beam="1">  1        2 0.38426763E+00 0.24142047E+04</pdfrwt>
<pdfrwt beam="2">  1       -2 0.89748600E-01 0.24142047E+04</pdfrwt>
<totfact> 0.33353725E+00</totfact>
</mgrwt>
</event>
<event>
12    1  0.1442183E-007  0.1453653E+04  0.7818608E-02  0.8915872E-01
          2   -1    0    0  501    0  0.00000000000E+00  0.00000000000E+00  0.25161369114E+04  0.25161369114E+04  0.00000000000E+00 0. -1.
         -2   -1    0    0    0  501 -0.00000000000E+00 -0.00000000000E+00 -0.20995548820E+03  0.20995548820E+03  0.00000000000E+00 0.  1.
         23    2    1    2    0    0 -0.41794172798E+03 -0.10434529358E+03  0.61908212885E+03  0.75963296364E+03  0.90643967917E+02 0.  0.
        254    2    1    2    0    0  0.41794172798E+03  0.10434529358E+03  0.16870992944E+04  0.19664594360E+04  0.91383557385E+03 0.  0.
        -24    2    4    4    0    0  0.55911429654E+03  0.38628269607E+03  0.11914534907E+04  0.13737182307E+04  0.75612424615E+02 0.  0.
         24    2    4    4    0    0 -0.14117256857E+03 -0.28193740249E+03  0.49564580365E+03  0.59274120535E+03  0.79113720679E+02 0.  0.
         13    1    3    3    0    0 -0.41982114769E+03 -0.99253404240E+02  0.59491513804E+03  0.73486397093E+03  0.00000000000E+00 0. -1.
        -13    1    3    3    0    0  0.18794197102E+01 -0.50918893389E+01  0.24166990807E+02  0.24768992716E+02  0.00000000000E+00 0.  1.
          2    1    6    6  502    0 -0.81337935738E+02 -0.22120046366E+03  0.31923662306E+03  0.39680918137E+03  0.00000000000E+00 0. -1.
          3    1    5    5  503    0  0.24008078708E+03  0.15389144243E+03  0.57315510244E+03  0.64017820318E+03  0.00000000000E+00 0. -1.
         -4    1    5    5    0  503  0.31903350947E+03  0.23239125364E+03  0.61829838830E+03  0.73354002748E+03  0.00000000000E+00 0.  1.
         -1    1    6    6    0  502 -0.59834632829E+02 -0.60736938829E+02  0.17640918059E+03  0.19593202398E+03  0.00000000000E+00 0.  1.
<mgrwt>
<rscale>  0 0.14536530E+04</rscale>
<asrwt>0</asrwt>
<pdfrwt beam="1">  1        2 0.38709796E+00 0.14536530E+04</pdfrwt>
<pdfrwt beam="2">  1       -2 0.32300846E-01 0.14536530E+04</pdfrwt>
<totfact> 0.29576177E+01</totfact>
</mgrwt>
</event>
<event>
12    1  0.1442183E-007  0.1509096E+04  0.7818608E-02  0.8878426E-01
          2   -1    0    0  501    0  0.00000000000E+00  0.00000000000E+00  0.80482555861E+03  0.80482555861E+03  0.00000000000E+00 0. -1.
         -2   -1    0    0    0  501 -0.00000000000E+00 -0.00000000000E+00 -0.70741160498E+03  0.70741160498E+03  0.00000000000E+00 0.  1.
         23    2    1    2    0    0 -0.32458619060E+02 -0.43643304246E+03  0.25489706139E+03  0.51493381653E+03  0.93042791228E+02 0.  0.
        254    2    1    2    0    0  0.32458619060E+02  0.43643304246E+03 -0.15748310776E+03  0.99730334706E+03  0.88220500697E+03 0.  0.
        -24    2    4    4    0    0 -0.26536013153E+03  0.51134164729E+03 -0.29391266481E+03  0.65177320926E+03  0.80854079121E+02 0.  0.
         24    2    4    4    0    0  0.29781875059E+03 -0.74908604828E+02  0.13642955705E+03  0.34553013780E+03  0.80440939912E+02 0.  0.
         13    1    3    3    0    0  0.30134229089E+02 -0.79284918897E+02  0.49648365515E+02  0.98280874669E+02  0.00000000000E+00 0.  1.
        -13    1    3    3    0    0 -0.62592848150E+02 -0.35714812357E+03  0.20524869587E+03  0.41665294186E+03  0.00000000000E+00 0. -1.
          2    1    6    6  502    0  0.96367317752E+02 -0.25142680961E+02  0.46233183109E+01  0.99700498539E+02  0.00000000000E+00 0. -1.
          1    1    5    5  503    0 -0.20628296752E+03  0.44288596853E+03 -0.22398676940E+03  0.53746694473E+03  0.00000000000E+00 0. -1.
         -2    1    5    5    0  503 -0.59077164005E+02  0.68455678765E+02 -0.69925895409E+02  0.11430626453E+03  0.00000000000E+00 0.  1.
         -1    1    6    6    0  502  0.20145143283E+03 -0.49765923867E+02  0.13180623874E+03  0.24582963926E+03  0.00000000000E+00 0.  1.
<mgrwt>
<rscale>  0 0.15090963E+04</rscale>
<asrwt>0</asrwt>
<pdfrwt beam="1">  1        2 0.12381932E+00 0.15090963E+04</pdfrwt>
<pdfrwt beam="2">  1       -2 0.10883255E+00 0.15090963E+04</pdfrwt>
<totfact> 0.22246889E+01</totfact>
</mgrwt>
</event>
<event>
12    1  0.1442183E-007  0.1266320E+04  0.7818608E-02  0.9056708E-01
         -2   -1    0    0    0  501 -0.00000000000E+00  0.00000000000E+00  0.57578051069E+03  0.57578051069E+03  0.00000000000E+00 0. -1.
          2   -1    0    0  501    0  0.00000000000E+00 -0.00000000000E+00 -0.69625772114E+03  0.69625772114E+03  0.00000000000E+00 0.  1.
         23    2    1    2    0    0  0.12421999862E+03 -0.26730097957E+03 -0.87632635586E+02  0.32050594475E+03  0.90355741747E+02 0.  0.
        254    2    1    2    0    0 -0.12421999862E+03  0.26730097957E+03 -0.32844574865E+02  0.95153228708E+03  0.90413190715E+03 0.  0.
        -24    2    4    4    0    0 -0.22184078745E+03  0.56345023453E+03  0.68349906564E+02  0.61465539194E+03  0.80249855731E+02 0.  0.
         24    2    4    4    0    0  0.97620788825E+02 -0.29614925496E+03 -0.10119448143E+03  0.33687689514E+03  0.77533991111E+02 0.  0.
         13    1    3    3    0    0  0.13578372249E+03 -0.23729972045E+03 -0.64529281487E+02  0.28091351835E+03  0.00000000000E+00 0.  1.
        -13    1    3    3    0    0 -0.11563723868E+02 -0.30001259116E+02 -0.23103354098E+02  0.39592426408E+02  0.00000000000E+00 0. -1.
          2    1    6    6  502    0  0.60673502388E+02 -0.85313286195E+02 -0.53551572562E+02  0.11758997244E+03  0.00000000000E+00 0. -1.
          3    1    5    5  503    0  0.28965281315E+01  0.78120334599E+01 -0.65884425542E+01  0.10621926251E+02  0.00000000000E+00 0. -1.
         -4    1    5    5    0  503 -0.22473731558E+03  0.55563820107E+03  0.74938349118E+02  0.60403346569E+03  0.00000000000E+00 0.  1.
         -1    1    6    6    0  502  0.36947286437E+02 -0.21083596877E+03 -0.47642908866E+02  0.21928692270E+03  0.00000000000E+00 0.  1.
<mgrwt>
<rscale>  0 0.12663201E+04</rscale>
<asrwt>0</asrwt>
<pdfrwt beam="1">  1        2 0.10711657E+00 0.12663201E+04</pdfrwt>
<pdfrwt beam="2">  1       -2 0.88581616E-01 0.12663201E+04</pdfrwt>
<totfact> 0.44445665E+01</totfact>
</mgrwt>
</event>
<event>
12    1  0.1442183E-007  0.2222172E+04  0.7818608E-02  0.8509256E-01
         -2   -1    0    0    0  501 -0.00000000000E+00  0.00000000000E+00  0.75027676694E+03  0.75027676694E+03  0.00000000000E+00 0.  1.
          2   -1    0    0  501    0  0.00000000000E+00 -0.00000000000E+00 -0.16454086468E+04  0.16454086468E+04  0.00000000000E+00 0. -1.
         23    2    1    2    0    0 -0.54960913765E+03 -0.14291119872E+03  0.42413423544E+03  0.71455185547E+03  0.90557658835E+02 0.  0.
        254    2    1    2    0    0  0.54960913765E+03  0.14291119872E+03 -0.13192661153E+04  0.16811335583E+04  0.87364360174E+03 0.  0.
        -24    2    4    4    0    0  0.23665994507E+03 -0.29145916732E+03 -0.19234956034E+03  0.43038855498E+03  0.85320449353E+02 0.  0.
         24    2    4    4    0    0  0.31294919257E+03  0.43437036603E+03 -0.11269165550E+04  0.12507450033E+04  0.88359093486E+02 0.  0.
         11    1    3    3    0    0 -0.11366183181E+03 -0.68610486734E+02  0.10238559755E+03  0.16765804927E+03  0.00000000000E+00 0. -1.
        -11    1    3    3    0    0 -0.43594730584E+03 -0.74300711982E+02  0.32174863789E+03  0.54689380620E+03  0.00000000000E+00 0.  1.
          4    1    6    6  502    0  0.36161771826E+02  0.35956100702E+02 -0.17587674751E+03  0.18312057567E+03  0.00000000000E+00 0. -1.
          1    1    5    5  503    0  0.99745176366E+02 -0.61585921854E+02 -0.51796405128E+02  0.12815925079E+03  0.00000000000E+00 0. -1.
         -2    1    5    5    0  503  0.13691476871E+03 -0.22987324546E+03 -0.14055315521E+03  0.30222930419E+03  0.00000000000E+00 0.  1.
         -3    1    6    6    0  502  0.27678742075E+03  0.39841426533E+03 -0.95103980746E+03  0.10676244276E+04  0.00000000000E+00 0.  1.
<mgrwt>
<rscale>  0 0.22221718E+04</rscale>
<asrwt>0</asrwt>
<pdfrwt beam="1">  1        2 0.25313979E+00 0.22221718E+04</pdfrwt>
<pdfrwt beam="2">  1       -2 0.11542720E+00 0.22221718E+04</pdfrwt>
<totfact> 0.56084872E+00</totfact>
</mgrwt>
</event>
<event>
12    1  0.1442183E-007  0.2193381E+04  0.7818608E-02  0.8521188E-01
          2   -1    0    0  501    0  0.00000000000E+00  0.00000000000E+00  0.21282959270E+04  0.21282959270E+04  0.00000000000E+00 0. -1.
         -2   -1    0    0    0  501 -0.00000000000E+00 -0.00000000000E+00 -0.56511393759E+03  0.56511393759E+03  0.00000000000E+00 0.  1.
         23    2    1    2    0    0 -0.47676798335E+03 -0.50578794794E+03 -0.70917366189E+02  0.70743968798E+03  0.11096161985E+03 0.  0.
        254    2    1    2    0    0  0.47676798335E+03  0.50578794794E+03  0.16340993556E+04  0.19859701766E+04  0.88919496183E+03 0.  0.
        -24    2    4    4    0    0  0.25704717121E+03 -0.11068726862E+03  0.85751065955E+02  0.30308417157E+03  0.78624742177E+02 0.  0.
         24    2    4    4    0    0  0.21972081214E+03  0.61647521656E+03  0.15483482896E+04  0.16828860050E+04  0.80024696022E+02 0.  0.
         13    1    3    3    0    0 -0.75962002379E+02 -0.79636828552E+02  0.29316801456E+02  0.11389348144E+03  0.00000000000E+00 0. -1.
        -13    1    3    3    0    0 -0.40080598097E+03 -0.42615111939E+03 -0.10023416765E+03  0.59354620654E+03  0.00000000000E+00 0.  1.
          2    1    6    6  502    0  0.20180383756E+03  0.49148259508E+03  0.11999313096E+04  0.13122938230E+04  0.00000000000E+00 0. -1.
          1    1    5    5  503    0  0.20488617339E+03 -0.69681285216E+02  0.34277057603E+02  0.21910897342E+03  0.00000000000E+00 0. -1.
         -2    1    5    5    0  503  0.52160997819E+02 -0.41005983400E+02  0.51474008351E+02  0.83975198147E+02  0.00000000000E+00 0.  1.
         -1    1    6    6    0  502  0.17916974581E+02  0.12499262148E+03  0.34841698006E+03  0.37059218205E+03  0.00000000000E+00 0.  1.
<mgrwt>
<rscale>  0 0.21933807E+04</rscale>
<asrwt>0</asrwt>
<pdfrwt beam="1">  1        2 0.32743014E+00 0.21933807E+04</pdfrwt>
<pdfrwt beam="2">  1       -2 0.86940607E-01 0.21933807E+04</pdfrwt>
<totfact> 0.59283628E+00</totfact>
</mgrwt>
</event>
<event>
12    1  0.1442183E-007  0.2118610E+04  0.7818608E-02  0.8553089E-01
          2   -1    0    0  501    0  0.00000000000E+00  0.00000000000E+00  0.51750797113E+03  0.51750797113E+03  0.00000000000E+00 0. -1.
         -2   -1    0    0    0  501 -0.00000000000E+00 -0.00000000000E+00 -0.21683284044E+04  0.21683284044E+04  0.00000000000E+00 0.  1.
         23    2    1    2    0    0  0.76411681128E+03  0.25184166780E+02 -0.11619653954E+04  0.13941051777E+04  0.94111226140E+02 0.  0.
        254    2    1    2    0    0 -0.76411681128E+03 -0.25184166780E+02 -0.48885503788E+03  0.12917311978E+04  0.91928314238E+03 0.  0.
        -24    2    4    4    0    0 -0.71218632569E+03  0.17917040711E+03 -0.67325505653E+03  0.99942802123E+03  0.79199754926E+02 0.  0.
         24    2    4    4    0    0 -0.51930485590E+02 -0.20435457389E+03  0.18440001865E+03  0.29230317661E+03  0.83547668897E+02 0.  0.
         11    1    3    3    0    0  0.48488824821E+03 -0.29395966699E+02 -0.73636842940E+03  0.88216733103E+03  0.00000000000E+00 0.  1.
        -11    1    3    3    0    0  0.27922856307E+03  0.54580133479E+02 -0.42559696602E+03  0.51193784671E+03  0.00000000000E+00 0. -1.
          2    1    6    6  502    0 -0.35646038432E+02 -0.51529379004E+02  0.16730086503E+02  0.64852237824E+02  0.00000000000E+00 0. -1.
          1    1    5    5  503    0 -0.21399105664E+03  0.20637765323E+02 -0.21817945877E+03  0.30630110334E+03  0.00000000000E+00 0. -1.
         -2    1    5    5    0  503 -0.49819526905E+03  0.15853264179E+03 -0.45507559776E+03  0.69312691788E+03  0.00000000000E+00 0.  1.
         -1    1    6    6    0  502 -0.16284447158E+02 -0.15282519489E+03  0.16766993214E+03  0.22745093879E+03  0.00000000000E+00 0.  1.
<mgrwt>
<rscale>  0 0.21186101E+04</rscale>
<asrwt>0</asrwt>
<pdfrwt beam="1">  1        2 0.79616613E-01 0.21186101E+04</pdfrwt>
<pdfrwt beam="2">  1       -2 0.33358898E+00 0.21186101E+04</pdfrwt>
<totfact> 0.10747930E+00</totfact>
</mgrwt>
</event>
<event>
12    1  0.1442183E-007  0.1115808E+04  0.7818608E-02  0.9189920E-01
         -2   -1    0    0    0  501 -0.00000000000E+00  0.00000000000E+00  0.37312332491E+03  0.37312332491E+03  0.00000000000E+00 0.  1.
          2   -1    0    0  501    0  0.00000000000E+00 -0.00000000000E+00 -0.83419276091E+03  0.83419276091E+03  0.00000000000E+00 0. -1.
         23    2    1    2    0    0 -0.92141846721E+02 -0.33135527410E+02 -0.21896706004E+03  0.25726236645E+03  0.93001444683E+02 0.  0.
        254    2    1    2    0    0  0.92141846721E+02  0.33135527410E+02 -0.24210237596E+03  0.95005371937E+03  0.91345521300E+03 0.  0.
        -24    2    4    4    0    0 -0.38309286057E+03 -0.10049935626E+03 -0.24152290411E+02  0.40475816213E+03  0.79909800724E+02 0.  0.
         24    2    4    4    0    0  0.47523470729E+03  0.13363488367E+03 -0.21795008555E+03  0.54529555724E+03  0.78349829682E+02 0.  0.
         13    1    3    3    0    0 -0.73602674355E+02 -0.24188349131E+02 -0.22318465670E+03  0.23624948866E+03  0.00000000000E+00 0. -1.
        -13    1    3    3    0    0 -0.18539172366E+02 -0.89471782793E+01  0.42175966620E+01  0.21012877784E+02  0.00000000000E+00 0.  1.
          4    1    6    6  502    0  0.39622605969E+03  0.91012399244E+02 -0.20256485368E+03  0.45421456069E+03  0.00000000000E+00 0. -1.
          3    1    5    5  503    0 -0.13432280973E+03 -0.64981547383E+02 -0.34875143956E+02  0.15323672660E+03  0.00000000000E+00 0. -1.
         -4    1    5    5    0  503 -0.24877005084E+03 -0.35517808875E+02  0.10722853544E+02  0.25152143552E+03  0.00000000000E+00 0.  1.
         -3    1    6    6    0  502  0.79008647593E+02  0.42622484424E+02 -0.15385231874E+02  0.91080996552E+02  0.00000000000E+00 0.  1.
<mgrwt>
<rscale>  0 0.11158078E+04</rscale>
<asrwt>0</asrwt>
<pdfrwt beam="1">  1        2 0.12833735E+00 0.11158078E+04</pdfrwt>
<pdfrwt beam="2">  1       -2 0.57403589E-01 0.11158078E+04</pdfrwt>
<totfact> 0.91846835E+01</totfact>
</mgrwt>
</event>
<event>
12    1  0.1457014E-007  0.1671216E+04  0.7818608E-02  0.8777953E-01
          2   -1    0    0  501    0  0.00000000000E+00  0.00000000000E+00  0.10846044268E+04  0.10846044268E+04  0.00000000000E+00 0. -1.
         -2   -1    0    0    0  501 -0.00000000000E+00 -0.00000000000E+00 -0.64377437259E+03  0.64377437259E+03  0.00000000000E+00 0.  1.
         23    2    1    2    0    0 -0.25339028928E+03  0.36654425212E+03 -0.23651608002E+03  0.51358578802E+03  0.96276570787E+02 0.  0.
        254    2    1    2    0    0  0.25339028928E+03 -0.36654425212E+03  0.67734613419E+03  0.12147930113E+04  0.90463415114E+03 0.  0.
        -24    2    4    4    0    0 -0.15442481256E+02 -0.30577637037E+01  0.74641423834E+03  0.75077114375E+03  0.79216632958E+02 0.  0.
         24    2    4    4    0    0  0.26883277054E+03 -0.36348648841E+03 -0.69068104155E+02  0.46402186758E+03  0.78437266698E+02 0.  0.
         11    1    3    3    0    0 -0.23605552579E+03  0.36929424069E+03 -0.22870190300E+03  0.49437334869E+03  0.00000000000E+00 0.  1.
        -11    1    3    3    0    0 -0.17334763485E+02 -0.27499885700E+01 -0.78141770224E+01  0.19212439323E+02  0.00000000000E+00 0. -1.
          2    1    6    6  502    0  0.25762074291E+03 -0.36575751640E+03 -0.68237231554E+02  0.45255201663E+03  0.00000000000E+00 0. -1.
          1    1    5    5  503    0  0.37521685275E+01  0.31978724512E+02  0.50915193242E+03  0.51016899933E+03  0.00000000000E+00 0. -1.
         -4    1    5    5    0  503 -0.19194649784E+02 -0.35036488215E+02  0.23726230593E+03  0.24060214442E+03  0.00000000000E+00 0.  1.
         -1    1    6    6    0  502  0.11212027623E+02  0.22710279899E+01 -0.83087260063E+00  0.11469850951E+02  0.00000000000E+00 0.  1.
<mgrwt>
<rscale>  0 0.16712158E+04</rscale>
<asrwt>0</asrwt>
<pdfrwt beam="1">  1        2 0.16686222E+00 0.16712158E+04</pdfrwt>
<pdfrwt beam="2">  1       -2 0.99042211E-01 0.16712158E+04</pdfrwt>
<totfact> 0.17950831E+01</totfact>
</mgrwt>
</event>
<event>
12    1  0.1442183E-007  0.1452842E+04  0.7818608E-02  0.8916433E-01
         -2   -1    0    0    0  501 -0.00000000000E+00  0.00000000000E+00  0.42449590997E+03  0.42449590997E+03  0.00000000000E+00 0.  1.
          2   -1    0    0  501    0  0.00000000000E+00 -0.00000000000E+00 -0.12430916793E+04  0.12430916793E+04  0.00000000000E+00 0. -1.
         23    2    1    2    0    0 -0.18856656604E+03 -0.38828658485E+03 -0.23065140053E+03  0.49780463579E+03  0.91025079234E+02 0.  0.
        254    2    1    2    0    0  0.18856656604E+03  0.38828658485E+03 -0.58794436880E+03  0.11697829535E+04  0.91454346843E+03 0.  0.
        -24    2    4    4    0    0  0.41348295455E+03 -0.12974558054E+03 -0.27527832677E+03  0.51941294232E+03  0.78800876221E+02 0.  0.
         24    2    4    4    0    0 -0.22491638851E+03  0.51803216539E+03 -0.31266604203E+03  0.65037001115E+03  0.79223679367E+02 0.  0.
         11    1    3    3    0    0  0.20432877312E+01 -0.48596312155E+02 -0.84481402914E+01  0.49367475672E+02  0.00000000000E+00 0. -1.
        -11    1    3    3    0    0 -0.19060985377E+03 -0.33969027269E+03 -0.22220326024E+03  0.44843716012E+03  0.00000000000E+00 0.  1.
          4    1    6    6  502    0 -0.67652141741E+02  0.15148824381E+03 -0.13427893990E+03  0.21343929815E+03  0.00000000000E+00 0. -1.
          1    1    5    5  503    0  0.10450902771E+03 -0.44347268981E+02 -0.35008080935E+02  0.11880396824E+03  0.00000000000E+00 0. -1.
         -2    1    5    5    0  503  0.30897392684E+03 -0.85398311558E+02 -0.24027024584E+03  0.40060897409E+03  0.00000000000E+00 0.  1.
         -3    1    6    6    0  502 -0.15726424677E+03  0.36654392158E+03 -0.17838710213E+03  0.43693071300E+03  0.00000000000E+00 0.  1.
<mgrwt>
<rscale>  0 0.14528418E+04</rscale>
<asrwt>0</asrwt>
<pdfrwt beam="1">  1        2 0.19124487E+00 0.14528418E+04</pdfrwt>
<pdfrwt beam="2">  1       -2 0.65307063E-01 0.14528418E+04</pdfrwt>
<totfact> 0.37413017E+01</totfact>
</mgrwt>
</event>
<event>
12    1  0.1442183E-007  0.1240010E+04  0.7818608E-02  0.9078539E-01
          2   -1    0    0  501    0  0.00000000000E+00  0.00000000000E+00  0.56105178923E+03  0.56105178923E+03  0.00000000000E+00 0. -1.
         -2   -1    0    0    0  501 -0.00000000000E+00 -0.00000000000E+00 -0.68515276894E+03  0.68515276894E+03  0.00000000000E+00 0.  1.
         23    2    1    2    0    0 -0.21698630559E+03 -0.75992843821E+02  0.11165839970E+03  0.27117933167E+03  0.90623741776E+02 0.  0.
        254    2    1    2    0    0  0.21698630559E+03  0.75992843821E+02 -0.23575937942E+03  0.97502522650E+03  0.91773293403E+03 0.  0.
        -24    2    4    4    0    0 -0.10320767110E+02 -0.39324556331E+03 -0.13251223690E+02  0.40248794963E+03  0.84097344637E+02 0.  0.
         24    2    4    4    0    0  0.22730707270E+03  0.46923840713E+03 -0.22250815573E+03  0.57253727687E+03  0.80223849440E+02 0.  0.
         11    1    3    3    0    0 -0.11864601060E+03 -0.28224361563E+02  0.10799661339E+02  0.12243415823E+03  0.00000000000E+00 0.  1.
        -11    1    3    3    0    0 -0.98340294989E+02 -0.47768482258E+02  0.10085873836E+03  0.14874517343E+03  0.00000000000E+00 0. -1.
          2    1    6    6  502    0  0.16251705686E+03  0.40446620061E+03 -0.18190123643E+03  0.47232696410E+03  0.00000000000E+00 0. -1.
          3    1    5    5  503    0 -0.23306273873E+02 -0.38487639123E+03 -0.18885833035E+02  0.38604364212E+03  0.00000000000E+00 0. -1.
         -4    1    5    5    0  503  0.12985506763E+02 -0.83691720721E+01  0.56346093453E+01  0.16444307512E+02  0.00000000000E+00 0.  1.
         -1    1    6    6    0  502  0.64790015843E+02  0.64772206519E+02 -0.40606919294E+02  0.10021031277E+03  0.00000000000E+00 0.  1.
<mgrwt>
<rscale>  0 0.12400100E+04</rscale>
<asrwt>0</asrwt>
<pdfrwt beam="1">  1        2 0.86315660E-01 0.12400100E+04</pdfrwt>
<pdfrwt beam="2">  1       -2 0.10540812E+00 0.12400100E+04</pdfrwt>
<totfact> 0.38538419E+01</totfact>
</mgrwt>
</event>
<event>
12    1  0.1442183E-007  0.1970805E+04  0.7818608E-02  0.8620393E-01
         -2   -1    0    0    0  501 -0.00000000000E+00  0.00000000000E+00  0.58925831117E+03  0.58925831117E+03  0.00000000000E+00 0. -1.
          2   -1    0    0  501    0  0.00000000000E+00 -0.00000000000E+00 -0.16478641066E+04  0.16478641066E+04  0.00000000000E+00 0.  1.
         23    2    1    2    0    0  0.52957473214E+03 -0.26346189263E+03  0.15449799954E+03  0.61827564982E+03  0.92377386327E+02 0.  0.
        254    2    1    2    0    0 -0.52957473214E+03  0.26346189263E+03 -0.12131037950E+04  0.16188467680E+04  0.89397006380E+03 0.  0.
        -24    2    4    4    0    0  0.23209700864E+03  0.13501696545E+03 -0.20004302841E+03  0.34236293736E+03  0.71390232419E+02 0.  0.
         24    2    4    4    0    0 -0.76167174079E+03  0.12844492718E+03 -0.10130607666E+04  0.12764838306E+04  0.80479270570E+02 0.  0.
         13    1    3    3    0    0  0.42559882214E+03 -0.17713913504E+03  0.95296527111E+02  0.47073778121E+03  0.00000000000E+00 0. -1.
        -13    1    3    3    0    0  0.10397591000E+03 -0.86322757586E+02  0.59201472427E+02  0.14753786861E+03  0.00000000000E+00 0.  1.
          4    1    6    6  502    0 -0.17573436701E+03  0.53662060876E+02 -0.28247654939E+03  0.33697950305E+03  0.00000000000E+00 0. -1.
          1    1    5    5  503    0  0.15225232283E+01 -0.50788268649E+01 -0.13083867544E+02  0.14117370478E+02  0.00000000000E+00 0. -1.
         -2    1    5    5    0  503  0.23057448541E+03  0.14009579232E+03 -0.18695916086E+03  0.32824556689E+03  0.00000000000E+00 0.  1.
         -3    1    6    6    0  502 -0.58593737378E+03  0.74782866304E+02 -0.73058421722E+03  0.93950432758E+03  0.00000000000E+00 0.  1.
<mgrwt>
<rscale>  0 0.19708045E+04</rscale>
<asrwt>0</asrwt>
<pdfrwt beam="1">  1        2 0.25351755E+00 0.19708045E+04</pdfrwt>
<pdfrwt beam="2">  1       -2 0.90655126E-01 0.19708045E+04</pdfrwt>
<totfact> 0.10148008E+01</totfact>
</mgrwt>
</event>
<event>
12    1  0.1442183E-007  0.1512671E+04  0.7818608E-02  0.8876070E-01
         -1   -1    0    0    0  501 -0.00000000000E+00  0.00000000000E+00  0.33307690040E+03  0.33307690040E+03  0.00000000000E+00 0.  1.
          1   -1    0    0  501    0  0.00000000000E+00 -0.00000000000E+00 -0.17174511368E+04  0.17174511368E+04  0.00000000000E+00 0. -1.
         23    2    1    2    0    0 -0.46434339559E+03 -0.82233985235E+02 -0.60903002693E+03  0.77616754197E+03  0.95609948021E+02 0.  0.
        254    2    1    2    0    0  0.46434339559E+03  0.82233985235E+02 -0.77534420951E+03  0.12743604953E+04  0.89468363756E+03 0.  0.
        -24    2    4    4    0    0  0.49642265330E+03 -0.10924010118E+03 -0.89572223982E+03  0.10329945165E+04  0.79940538538E+02 0.  0.
         24    2    4    4    0    0 -0.32079257711E+02  0.19147408642E+03  0.12037803031E+03  0.24136597881E+03  0.77943960658E+02 0.  0.
         13    1    3    3    0    0 -0.11831365267E+03 -0.44315318520E+02 -0.22349706646E+03  0.25673509027E+03  0.00000000000E+00 0.  1.
        -13    1    3    3    0    0 -0.34602974291E+03 -0.37918666715E+02 -0.38553296047E+03  0.51943245170E+03  0.00000000000E+00 0. -1.
          4    1    6    6  502    0 -0.50900403979E+02  0.77077333917E+02  0.42310924337E+02  0.10159714980E+03  0.00000000000E+00 0. -1.
          3    1    5    5  503    0  0.28219368824E+03 -0.61176551680E+02 -0.42786276743E+03  0.51618058459E+03  0.00000000000E+00 0. -1.
         -4    1    5    5    0  503  0.21422896506E+03 -0.48063549505E+02 -0.46785947239E+03  0.51681393186E+03  0.00000000000E+00 0.  1.
         -3    1    6    6    0  502  0.18821146268E+02  0.11439675250E+03  0.78067105969E+02  0.13976882902E+03  0.00000000000E+00 0.  1.
<mgrwt>
<rscale>  0 0.15126709E+04</rscale>
<asrwt>0</asrwt>
<pdfrwt beam="1">  1        1 0.26422326E+00 0.15126709E+04</pdfrwt>
<pdfrwt beam="2">  1       -1 0.51242599E-01 0.15126709E+04</pdfrwt>
<totfact> 0.17163304E+01</totfact>
</mgrwt>
</event>
<event>
12    1  0.1442183E-007  0.1438023E+04  0.7818608E-02  0.8926747E-01
          2   -1    0    0  501    0  0.00000000000E+00  0.00000000000E+00  0.74784264937E+03  0.74784264937E+03  0.00000000000E+00 0. -1.
         -2   -1    0    0    0  501 -0.00000000000E+00 -0.00000000000E+00 -0.69129150000E+03  0.69129150000E+03  0.00000000000E+00 0.  1.
         23    2    1    2    0    0 -0.28789604827E+03 -0.32071861207E+03 -0.16303805026E+02  0.44089030378E+03  0.91508924000E+02 0.  0.
        254    2    1    2    0    0  0.28789604827E+03  0.32071861207E+03  0.72854954396E+02  0.99824384559E+03  0.89746218201E+03 0.  0.
        -24    2    4    4    0    0 -0.31744606234E+03  0.69025925880E+02  0.13678240721E+02  0.33524137242E+03  0.81627829667E+02 0.  0.
         24    2    4    4    0    0  0.60534211061E+03  0.25169268619E+03  0.59176713674E+02  0.66300247317E+03  0.79259805888E+02 0.  0.
         11    1    3    3    0    0 -0.78432439722E+01  0.62470472076E+01  0.66600817595E+00  0.10049161244E+02  0.00000000000E+00 0. -1.
        -11    1    3    3    0    0 -0.28005280429E+03 -0.32696565927E+03 -0.16969813202E+02  0.43084114253E+03  0.00000000000E+00 0.  1.
          2    1    6    6  502    0  0.16397555544E+03  0.31434182165E+02  0.94321360435E+01  0.16722755688E+03  0.00000000000E+00 0. -1.
          3    1    5    5  503    0 -0.30160488408E+02  0.15054111967E+02 -0.22751998476E+02  0.40668597010E+02  0.00000000000E+00 0. -1.
         -4    1    5    5    0  503 -0.28728557393E+03  0.53971813914E+02  0.36430239197E+02  0.29457277541E+03  0.00000000000E+00 0.  1.
         -1    1    6    6    0  502  0.44136655517E+03  0.22025850402E+03  0.49744577631E+02  0.49577491629E+03  0.00000000000E+00 0.  1.
<mgrwt>
<rscale>  0 0.14380226E+04</rscale>
<asrwt>0</asrwt>
<pdfrwt beam="1">  1        2 0.11505271E+00 0.14380226E+04</pdfrwt>
<pdfrwt beam="2">  1       -2 0.10635254E+00 0.14380226E+04</pdfrwt>
<totfact> 0.26045470E+01</totfact>
</mgrwt>
</event>
<event>
12    1  0.1442183E-007  0.1322666E+04  0.7818608E-02  0.9011781E-01
          1   -1    0    0  501    0  0.00000000000E+00  0.00000000000E+00  0.11227927033E+04  0.11227927033E+04  0.00000000000E+00 0. -1.
         -1   -1    0    0    0  501 -0.00000000000E+00 -0.00000000000E+00 -0.38952988387E+03  0.38952988387E+03  0.00000000000E+00 0.  1.
         23    2    1    2    0    0  0.25932283810E+03 -0.19432916385E+03  0.35792101850E+03  0.49122766525E+03  0.90471019376E+02 0.  0.
        254    2    1    2    0    0 -0.25932283810E+03  0.19432916385E+03  0.37534180095E+03  0.10210949219E+04  0.89260361515E+03 0.  0.
        -24    2    4    4    0    0 -0.57619791670E+03  0.95282596575E+02  0.33316131496E+03  0.67683168383E+03  0.77600605889E+02 0.  0.
         24    2    4    4    0    0  0.31687507860E+03  0.99046567271E+02  0.42180485991E+02  0.34426323810E+03  0.80733795792E+02 0.  0.
         11    1    3    3    0    0  0.20024283163E+03 -0.12266010577E+03  0.30293287671E+03  0.38328973500E+03  0.00000000000E+00 0. -1.
        -11    1    3    3    0    0  0.59080006467E+02 -0.71669058071E+02  0.54988141788E+02  0.10793793025E+03  0.00000000000E+00 0.  1.
          4    1    6    6  502    0  0.15616160249E+03  0.90050439456E+02  0.13569166329E+02  0.18077513661E+03  0.00000000000E+00 0. -1.
          3    1    5    5  503    0 -0.40131751636E+03  0.67830248183E+02  0.19003872412E+03  0.44918972402E+03  0.00000000000E+00 0. -1.
         -4    1    5    5    0  503 -0.17488040034E+03  0.27452348392E+02  0.14312259084E+03  0.22764195981E+03  0.00000000000E+00 0.  1.
         -3    1    6    6    0  502  0.16071347611E+03  0.89961278151E+01  0.28611319662E+02  0.16348810150E+03  0.00000000000E+00 0.  1.
<mgrwt>
<rscale>  0 0.13226660E+04</rscale>
<asrwt>0</asrwt>
<pdfrwt beam="1">  1        1 0.17273734E+00 0.13226660E+04</pdfrwt>
<pdfrwt beam="2">  1       -1 0.59927675E-01 0.13226660E+04</pdfrwt>
<totfact> 0.33751800E+01</totfact>
</mgrwt>
</event>
<event>
12    1  0.1442183E-007  0.1197136E+04  0.7818608E-02  0.9115367E-01
         -2   -1    0    0    0  501 -0.00000000000E+00  0.00000000000E+00  0.11863698114E+03  0.11863698114E+03  0.00000000000E+00 0.  1.
          2   -1    0    0  501    0  0.00000000000E+00 -0.00000000000E+00 -0.30200006380E+04  0.30200006380E+04  0.00000000000E+00 0. -1.
         23    2    1    2    0    0 -0.20918639213E+02  0.40826858980E+01 -0.12916719876E+04  0.12952471150E+04  0.93777969297E+02 0.  0.
        254    2    1    2    0    0  0.20918639213E+02 -0.40826858980E+01 -0.16096916693E+04  0.18433905042E+04  0.89806849567E+03 0.  0.
        -24    2    4    4    0    0  0.27737613081E+03  0.15404462357E+03 -0.14615805648E+04  0.14977365192E+04  0.79559221321E+02 0.  0.
         24    2    4    4    0    0 -0.25645749160E+03 -0.15812730947E+03 -0.14811110448E+03  0.34565398492E+03  0.82250149078E+02 0.  0.
         11    1    3    3    0    0  0.27336769978E+02 -0.55143332360E+01 -0.15353086440E+03  0.15604304915E+03  0.00000000000E+00 0.  1.
        -11    1    3    3    0    0 -0.48255409191E+02  0.95970191340E+01 -0.11381411232E+04  0.11392040658E+04  0.00000000000E+00 0. -1.
          2    1    6    6  502    0 -0.16355184284E+03 -0.12957809706E+03 -0.67277050527E+02  0.21923934423E+03  0.00000000000E+00 0. -1.
          1    1    5    5  503    0  0.92835849841E+02  0.46665953929E+02 -0.66366375112E+03  0.67174830169E+03  0.00000000000E+00 0. -1.
         -2    1    5    5    0  503  0.18454028097E+03  0.10737866964E+03 -0.79791681368E+03  0.82598821756E+03  0.00000000000E+00 0.  1.
         -1    1    6    6    0  502 -0.92905648765E+02 -0.28549212413E+02 -0.80834053956E+02  0.12641464069E+03  0.00000000000E+00 0.  1.
<mgrwt>
<rscale>  0 0.11971362E+04</rscale>
<asrwt>0</asrwt>
<pdfrwt beam="1">  1        2 0.46461547E+00 0.11971362E+04</pdfrwt>
<pdfrwt beam="2">  1       -2 0.18251844E-01 0.11971362E+04</pdfrwt>
<totfact> 0.42503423E+01</totfact>
</mgrwt>
</event>
<event>
12    1  0.1442183E-007  0.1294137E+04  0.7818608E-02  0.9034227E-01
          1   -1    0    0  501    0  0.00000000000E+00  0.00000000000E+00  0.32776713866E+03  0.32776713866E+03  0.00000000000E+00 0. -1.
         -1   -1    0    0    0  501 -0.00000000000E+00 -0.00000000000E+00 -0.12774245512E+04  0.12774245512E+04  0.00000000000E+00 0.  1.
         23    2    1    2    0    0 -0.33340149890E+03 -0.31809959137E+02 -0.27115625788E+03  0.44051887955E+03  0.91447985708E+02 0.  0.
        254    2    1    2    0    0  0.33340149890E+03  0.31809959137E+02 -0.67850115470E+03  0.11646728103E+04  0.88539850081E+03 0.  0.
        -24    2    4    4    0    0  0.10382361381E+03  0.37931505371E+03 -0.61658839772E+03  0.73591257995E+03  0.82017195588E+02 0.  0.
         24    2    4    4    0    0  0.22957788509E+03 -0.34750509457E+03 -0.61912756977E+02  0.42876023039E+03  0.80847693919E+02 0.  0.
         11    1    3    3    0    0 -0.54152444752E+02 -0.36165011324E+02 -0.74485069188E+02  0.98936448534E+02  0.00000000000E+00 0. -1.
        -11    1    3    3    0    0 -0.27924905414E+03  0.43550521873E+01 -0.19667118869E+03  0.34158243102E+03  0.00000000000E+00 0.  1.
          2    1    6    6  502    0  0.10984616551E+03 -0.10483614490E+03 -0.32712746450E+01  0.15187988212E+03  0.00000000000E+00 0. -1.
          3    1    5    5  503    0  0.12446346742E+02  0.66822506991E+02 -0.17130881708E+03  0.18430103038E+03  0.00000000000E+00 0. -1.
         -4    1    5    5    0  503  0.91377267068E+02  0.31249254671E+03 -0.44527958064E+03  0.55161154957E+03  0.00000000000E+00 0.  1.
         -1    1    6    6    0  502  0.11973171957E+03 -0.24266894967E+03 -0.58641482332E+02  0.27688034826E+03  0.00000000000E+00 0.  1.
<mgrwt>
<rscale>  0 0.12941372E+04</rscale>
<asrwt>0</asrwt>
<pdfrwt beam="1">  1        1 0.50425713E-01 0.12941372E+04</pdfrwt>
<pdfrwt beam="2">  1       -1 0.19652685E+00 0.12941372E+04</pdfrwt>
<totfact> 0.12208913E+01</totfact>
</mgrwt>
</event>
<event>
12    1  0.1442183E-007  0.2709761E+04  0.7818608E-02  0.8331845E-01
         -2   -1    0    0    0  501 -0.00000000000E+00  0.00000000000E+00  0.10791751795E+04  0.10791751795E+04  0.00000000000E+00 0. -1.
          2   -1    0    0  501    0  0.00000000000E+00 -0.00000000000E+00 -0.17010227573E+04  0.17010227573E+04  0.00000000000E+00 0.  1.
         23    2    1    2    0    0 -0.16905298859E+03  0.22214716066E+03  0.92251604930E+03  0.96936243082E+03  0.10343784179E+03 0.  0.
        254    2    1    2    0    0  0.16905298859E+03 -0.22214716066E+03 -0.15443636272E+04  0.18108355060E+04  0.90340353276E+03 0.  0.
        -24    2    4    4    0    0  0.20521611210E+03 -0.79053733898E+02  0.22362697673E+02  0.23502072650E+03  0.79821714647E+02 0.  0.
         24    2    4    4    0    0 -0.36163123516E+02 -0.14309342676E+03 -0.15667263248E+04  0.15758147795E+04  0.82324614275E+02 0.  0.
         13    1    3    3    0    0 -0.17378612006E+03  0.22136789281E+03  0.82412258266E+03  0.87085210612E+03  0.00000000000E+00 0. -1.
        -13    1    3    3    0    0  0.47331314788E+01  0.77926784842E+00  0.98393466649E+02  0.98510324693E+02  0.00000000000E+00 0.  1.
          2    1    6    6  502    0  0.31818445232E+01 -0.11657375781E+03 -0.92217481616E+03  0.92951920728E+03  0.00000000000E+00 0. -1.
          3    1    5    5  503    0  0.16930198459E+03 -0.80785371602E+02 -0.82910969830E+01  0.18777161803E+03  0.00000000000E+00 0. -1.
         -4    1    5    5    0  503  0.35914127516E+02  0.17316377039E+01  0.30653794656E+02  0.47249108470E+02  0.00000000000E+00 0.  1.
         -1    1    6    6    0  502 -0.39344968039E+02 -0.26519668952E+02 -0.64455150868E+03  0.64629557224E+03  0.00000000000E+00 0.  1.
<mgrwt>
<rscale>  0 0.27097613E+04</rscale>
<asrwt>0</asrwt>
<pdfrwt beam="1">  1        2 0.26169581E+00 0.27097613E+04</pdfrwt>
<pdfrwt beam="2">  1       -2 0.16602695E+00 0.27097613E+04</pdfrwt>
<totfact> 0.19542625E+00</totfact>
</mgrwt>
</event>
<event>
12    1  0.1442183E-007  0.2142072E+04  0.7818608E-02  0.8542933E-01
         -2   -1    0    0    0  501 -0.00000000000E+00  0.00000000000E+00  0.69895040610E+03  0.69895040610E+03  0.00000000000E+00 0.  1.
          2   -1    0    0  501    0  0.00000000000E+00 -0.00000000000E+00 -0.16412016026E+04  0.16412016026E+04  0.00000000000E+00 0. -1.
         23    2    1    2    0    0 -0.67455226666E+03 -0.51964386377E+02 -0.10154979395E+04  0.12235011338E+04  0.89430986613E+02 0.  0.
        254    2    1    2    0    0  0.67455226666E+03  0.51964386377E+02  0.73246743001E+02  0.11166508749E+04  0.88533780738E+03 0.  0.
        -24    2    4    4    0    0 -0.13856816102E+03  0.20650551846E+03  0.11307148317E+03  0.28458764604E+03  0.79745241681E+02 0.  0.
         24    2    4    4    0    0  0.81312042768E+03 -0.15454113208E+03 -0.39824740174E+02  0.83206322887E+03  0.75467976599E+02 0.  0.
         13    1    3    3    0    0 -0.39026988223E+03 -0.74210653859E+02 -0.58635072880E+03  0.70825488299E+03  0.00000000000E+00 0. -1.
        -13    1    3    3    0    0 -0.28428238443E+03  0.22246267482E+02 -0.42914721069E+03  0.51524625080E+03  0.00000000000E+00 0.  1.
          2    1    6    6  502    0  0.31275218695E+03 -0.39700642034E+02 -0.46306434456E+02  0.31864456262E+03  0.00000000000E+00 0. -1.
          3    1    5    5  503    0 -0.26726097220E+02  0.17565127516E+01  0.19899228441E+02  0.33366883316E+02  0.00000000000E+00 0. -1.
         -4    1    5    5    0  503 -0.11184206380E+03  0.20474900571E+03  0.93172254734E+02  0.25122076273E+03  0.00000000000E+00 0.  1.
         -1    1    6    6    0  502  0.50036824073E+03 -0.11484049005E+03  0.64816942821E+01  0.51341866624E+03  0.00000000000E+00 0.  1.
<mgrwt>
<rscale>  0 0.21420724E+04</rscale>
<asrwt>0</asrwt>
<pdfrwt beam="1">  1        2 0.25249255E+00 0.21420724E+04</pdfrwt>
<pdfrwt beam="2">  1       -2 0.10753083E+00 0.21420724E+04</pdfrwt>
<totfact> 0.67422567E+00</totfact>
</mgrwt>
</event>
<event>
12    1  0.1442183E-007  0.2687369E+04  0.7818608E-02  0.8339115E-01
         -2   -1    0    0    0  501 -0.00000000000E+00  0.00000000000E+00  0.79468320284E+03  0.79468320284E+03  0.00000000000E+00 0. -1.
          2   -1    0    0  501    0  0.00000000000E+00 -0.00000000000E+00 -0.22719594381E+04  0.22719594381E+04  0.00000000000E+00 0.  1.
         23    2    1    2    0    0  0.79853849429E+02 -0.10739589041E+04 -0.77079864461E+02  0.10833929213E+04  0.89635659962E+02 0.  0.
        254    2    1    2    0    0 -0.79853849429E+02  0.10739589041E+04 -0.14001963708E+04  0.19832497196E+04  0.90164583335E+03 0.  0.
        -24    2    4    4    0    0  0.17581429760E+03  0.32263332036E+03 -0.10431790464E+04  0.11095335844E+04  0.88539965909E+02 0.  0.
         24    2    4    4    0    0 -0.25566814703E+03  0.75132558370E+03 -0.35701732441E+03  0.87371613519E+03  0.77860007908E+02 0.  0.
         13    1    3    3    0    0  0.54387903151E+02 -0.54055152821E+03  0.37603007320E+01  0.54329378657E+03  0.00000000000E+00 0. -1.
        -13    1    3    3    0    0  0.25465946278E+02 -0.53340737584E+03 -0.80840165193E+02  0.54009913473E+03  0.00000000000E+00 0.  1.
          4    1    6    6  502    0 -0.26866450452E+02  0.16700569454E+03 -0.91740813248E+02  0.19242942858E+03  0.00000000000E+00 0. -1.
          3    1    5    5  503    0 -0.26352438721E+01 -0.32403529081E+01 -0.31761405840E+02  0.32034845062E+02  0.00000000000E+00 0. -1.
         -4    1    5    5    0  503  0.17844954148E+03  0.32587367326E+03 -0.10114176405E+04  0.10774987394E+04  0.00000000000E+00 0.  1.
         -3    1    6    6    0  502 -0.22880169658E+03  0.58431988916E+03 -0.26527651116E+03  0.68128670661E+03  0.00000000000E+00 0.  1.
<mgrwt>
<rscale>  0 0.26873690E+04</rscale>
<asrwt>0</asrwt>
<pdfrwt beam="1">  1        2 0.34953222E+00 0.26873690E+04</pdfrwt>
<pdfrwt beam="2">  1       -2 0.12225895E+00 0.26873690E+04</pdfrwt>
<totfact> 0.20930745E+00</totfact>
</mgrwt>
</event>
<event>
12    1  0.1442183E-007  0.1472607E+04  0.7818608E-02  0.8902876E-01
          2   -1    0    0  501    0  0.00000000000E+00  0.00000000000E+00  0.10363933063E+04  0.10363933063E+04  0.00000000000E+00 0. -1.
         -2   -1    0    0    0  501 -0.00000000000E+00 -0.00000000000E+00 -0.52310513915E+03  0.52310513915E+03  0.00000000000E+00 0.  1.
         23    2    1    2    0    0  0.98138482773E+02  0.21742579927E+03  0.56134219590E+03  0.61673645729E+03  0.91398341677E+02 0.  0.
        254    2    1    2    0    0 -0.98138482773E+02 -0.21742579927E+03 -0.48054028718E+02  0.94276198820E+03  0.91081602793E+03 0.  0.
        -24    2    4    4    0    0  0.79215110534E+02 -0.19502316527E+03 -0.44586385288E+03  0.49948324817E+03  0.79874095772E+02 0.  0.
         24    2    4    4    0    0 -0.17735359331E+03 -0.22402634001E+02  0.39780982416E+03  0.44327874003E+03  0.79291929563E+02 0.  0.
         13    1    3    3    0    0  0.77598488111E+01 -0.85066358981E+01  0.17659381634E+02  0.21081552779E+02  0.00000000000E+00 0.  1.
        -13    1    3    3    0    0  0.90378633962E+02  0.22593243516E+03  0.54368281427E+03  0.59565490451E+03  0.00000000000E+00 0. -1.
          4    1    6    6  502    0  0.31623595265E+01 -0.89307316727E+01  0.48795595340E+01  0.10656856348E+02  0.00000000000E+00 0. -1.
          1    1    5    5  503    0 -0.97905867366E+01 -0.49742936568E+02 -0.66539616395E+02  0.83652470837E+02  0.00000000000E+00 0. -1.
         -2    1    5    5    0  503  0.89005697271E+02 -0.14528022870E+03 -0.37932423648E+03  0.41583077734E+03  0.00000000000E+00 0.  1.
         -1    1    6    6    0  502 -0.18051595283E+03 -0.13471902329E+02  0.39293026463E+03  0.43262188368E+03  0.00000000000E+00 0.  1.
<mgrwt>
<rscale>  0 0.14726068E+04</rscale>
<asrwt>0</asrwt>
<pdfrwt beam="1">  1        2 0.15944512E+00 0.14726068E+04</pdfrwt>
<pdfrwt beam="2">  1       -2 0.80477714E-01 0.14726068E+04</pdfrwt>
<totfact> 0.31534954E+01</totfact>
</mgrwt>
</event>
<event>
12    1  0.1442183E-007  0.2290005E+04  0.7818608E-02  0.8481872E-01
          1   -1    0    0  501    0  0.00000000000E+00  0.00000000000E+00  0.11859363442E+04  0.11859363442E+04  0.00000000000E+00 0. -1.
         -1   -1    0    0    0  501 -0.00000000000E+00 -0.00000000000E+00 -0.11054816949E+04  0.11054816949E+04  0.00000000000E+00 0.  1.
         23    2    1    2    0    0 -0.15001282075E+03 -0.39874230402E+03  0.90502810144E+03  0.10043579403E+04  0.90331259964E+02 0.  0.
        254    2    1    2    0    0  0.15001282075E+03  0.39874230402E+03 -0.82457345211E+03  0.12870600987E+04  0.89168550982E+03 0.  0.
        -24    2    4    4    0    0  0.48246262652E+03  0.40925864985E+03 -0.62064874658E+03  0.88966673816E+03  0.77712353498E+02 0.  0.
         24    2    4    4    0    0 -0.33244980576E+03 -0.10516345832E+02 -0.20392470553E+03  0.39739336058E+03  0.75516426188E+02 0.  0.
         13    1    3    3    0    0 -0.14324344888E+03 -0.40169758686E+03  0.87450125015E+03  0.97295019063E+03  0.00000000000E+00 0. -1.
        -13    1    3    3    0    0 -0.67693718757E+01  0.29552828394E+01  0.30526851285E+02  0.31407749707E+02  0.00000000000E+00 0.  1.
          2    1    6    6  502    0 -0.10249567927E+03 -0.11462737570E+02 -0.10462918221E+03  0.14691502439E+03  0.00000000000E+00 0. -1.
          3    1    5    5  503    0  0.24373209420E+03  0.25737413895E+03 -0.34456953679E+03  0.49434294455E+03  0.00000000000E+00 0. -1.
         -4    1    5    5    0  503  0.23873053232E+03  0.15188451090E+03 -0.27607920979E+03  0.39532379361E+03  0.00000000000E+00 0.  1.
         -1    1    6    6    0  502 -0.22995412649E+03  0.94639173821E+00 -0.99295523324E+02  0.25047833619E+03  0.00000000000E+00 0.  1.
<mgrwt>
<rscale>  0 0.22900052E+04</rscale>
<asrwt>0</asrwt>
<pdfrwt beam="1">  1        1 0.18245175E+00 0.22900052E+04</pdfrwt>
<pdfrwt beam="2">  1       -1 0.17007411E+00 0.22900052E+04</pdfrwt>
<totfact> 0.24329681E+00</totfact>
</mgrwt>
</event>
<event>
12    1  0.1442183E-007  0.1991944E+04  0.7818608E-02  0.8610396E-01
          1   -1    0    0  501    0  0.00000000000E+00  0.00000000000E+00  0.69793831981E+03  0.69793831981E+03  0.00000000000E+00 0. -1.
         -1   -1    0    0    0  501 -0.00000000000E+00 -0.00000000000E+00 -0.14212717565E+04  0.14212717565E+04  0.00000000000E+00 0.  1.
         23    2    1    2    0    0 -0.54153862614E+03 -0.16760646896E+03  0.29516356133E+03  0.64551396904E+03  0.90613157100E+02 0.  0.
        254    2    1    2    0    0  0.54153862614E+03  0.16760646896E+03 -0.10184969981E+04  0.14736961073E+04  0.90171396218E+03 0.  0.
        -24    2    4    4    0    0  0.48428869836E+03  0.30295663931E+03 -0.11329470420E+04  0.12714910763E+04  0.82475987373E+02 0.  0.
         24    2    4    4    0    0  0.57249927785E+02 -0.13535017034E+03  0.11445004390E+03  0.20220503104E+03  0.78681885996E+02 0.  0.
         11    1    3    3    0    0 -0.13794196945E+03 -0.63256733446E+01  0.90567643470E+02  0.16513781857E+03  0.00000000000E+00 0.  1.
        -11    1    3    3    0    0 -0.40359665669E+03 -0.16128079562E+03  0.20459591786E+03  0.48037615046E+03  0.00000000000E+00 0. -1.
          4    1    6    6  502    0  0.10736681348E+02  0.35911397920E+01 -0.57421238701E+01  0.12694274218E+02  0.00000000000E+00 0. -1.
          3    1    5    5  503    0  0.20352624903E+03  0.12008911713E+03 -0.55900660681E+03  0.60690420706E+03  0.00000000000E+00 0. -1.
         -4    1    5    5    0  503  0.28076244932E+03  0.18286752218E+03 -0.57394043515E+03  0.66458686920E+03  0.00000000000E+00 0.  1.
         -3    1    6    6    0  502  0.46513246437E+02 -0.13894131014E+03  0.12019216777E+03  0.18951075682E+03  0.00000000000E+00 0.  1.
<mgrwt>
<rscale>  0 0.19919438E+04</rscale>
<asrwt>0</asrwt>
<pdfrwt beam="1">  1        1 0.10737513E+00 0.19919438E+04</pdfrwt>
<pdfrwt beam="2">  1       -1 0.21865719E+00 0.19919438E+04</pdfrwt>
<totfact> 0.28539671E+00</totfact>
</mgrwt>
</event>
<event>
12    1  0.1442183E-007  0.2247462E+04  0.7818608E-02  0.8498929E-01
          2   -1    0    0  501    0  0.00000000000E+00  0.00000000000E+00  0.82243609300E+03  0.82243609300E+03  0.00000000000E+00 0. -1.
         -2   -1    0    0    0  501 -0.00000000000E+00 -0.00000000000E+00 -0.15354043062E+04  0.15354043062E+04  0.00000000000E+00 0.  1.
         23    2    1    2    0    0  0.41381048463E+02  0.79465614834E+03  0.23283448326E+03  0.83416648826E+03  0.91820739900E+02 0.  0.
        254    2    1    2    0    0 -0.41381048463E+02 -0.79465614834E+03 -0.94580269647E+03  0.15236739109E+04  0.89098185222E+03 0.  0.
        -24    2    4    4    0    0  0.24221365847E+03  0.54486578807E+02 -0.38479327194E+03  0.46461356054E+03  0.78508947825E+02 0.  0.
         24    2    4    4    0    0 -0.28359470693E+03 -0.84914272714E+03 -0.56100942453E+03  0.10590603504E+04  0.73538578488E+02 0.  0.
         11    1    3    3    0    0  0.40605578438E+01  0.10156761217E+03  0.63031596388E+02  0.11960539334E+03  0.00000000000E+00 0. -1.
        -11    1    3    3    0    0  0.37320490619E+02  0.69308853616E+03  0.16980288687E+03  0.71456109492E+03  0.00000000000E+00 0.  1.
          4    1    6    6  502    0 -0.40595812037E+02 -0.21148511668E+03 -0.15024538446E+03  0.26257884546E+03  0.00000000000E+00 0. -1.
          1    1    5    5  503    0  0.11598268708E+03 -0.13376299502E+02 -0.16140775915E+03  0.19920686184E+03  0.00000000000E+00 0. -1.
         -2    1    5    5    0  503  0.12623097139E+03  0.67862878309E+02 -0.22338551279E+03  0.26540669870E+03  0.00000000000E+00 0.  1.
         -3    1    6    6    0  502 -0.24299889489E+03 -0.63765761046E+03 -0.41076404007E+03  0.79648150494E+03  0.00000000000E+00 0.  1.
<mgrwt>
<rscale>  0 0.22474625E+04</rscale>
<asrwt>0</asrwt>
<pdfrwt beam="1">  1        2 0.12652863E+00 0.22474625E+04</pdfrwt>
<pdfrwt beam="2">  1       -2 0.23621605E+00 0.22474625E+04</pdfrwt>
<totfact> 0.23624181E+00</totfact>
</mgrwt>
</event>
<event>
12    1  0.1442183E-007  0.1785004E+04  0.7818608E-02  0.8714315E-01
         -1   -1    0    0    0  501 -0.00000000000E+00  0.00000000000E+00  0.10606991682E+04  0.10606991682E+04  0.00000000000E+00 0.  1.
          1   -1    0    0  501    0  0.00000000000E+00 -0.00000000000E+00 -0.75097638724E+03  0.75097638724E+03  0.00000000000E+00 0. -1.
         23    2    1    2    0    0  0.55964212894E+03  0.27683949339E+03 -0.10107904262E+03  0.63866603913E+03  0.88532022991E+02 0.  0.
        254    2    1    2    0    0 -0.55964212894E+03 -0.27683949339E+03  0.41080182354E+03  0.11730095163E+04  0.90407619671E+03 0.  0.
        -24    2    4    4    0    0  0.18958448749E+03 -0.13322139906E+03  0.31653141021E+03  0.40040939248E+03  0.80282805575E+02 0.  0.
         24    2    4    4    0    0 -0.74922661642E+03 -0.14361809434E+03  0.94270413335E+02  0.77260012380E+03  0.77829047805E+02 0.  0.
         13    1    3    3    0    0  0.40061975479E+03  0.15583412036E+03 -0.85087123538E+02  0.43820118620E+03  0.00000000000E+00 0. -1.
        -13    1    3    3    0    0  0.15902237415E+03  0.12100537304E+03 -0.15991919081E+02  0.20046485293E+03  0.00000000000E+00 0.  1.
          4    1    6    6  502    0 -0.67711734707E+03 -0.10642503571E+03  0.90473797531E+02  0.69137522227E+03  0.00000000000E+00 0. -1.
          3    1    5    5  503    0  0.11548962058E+03 -0.12407915422E+03  0.23635914251E+03  0.29085930142E+03  0.00000000000E+00 0. -1.
         -4    1    5    5    0  503  0.74094866905E+02 -0.91422448385E+01  0.80172267695E+02  0.10955009105E+03  0.00000000000E+00 0.  1.
         -3    1    6    6    0  502 -0.72109269358E+02 -0.37193058624E+02  0.37966158048E+01  0.81224901531E+02  0.00000000000E+00 0.  1.
<mgrwt>
<rscale>  0 0.17850042E+04</rscale>
<asrwt>0</asrwt>
<pdfrwt beam="1">  1        1 0.11553483E+00 0.17850042E+04</pdfrwt>
<pdfrwt beam="2">  1       -1 0.16318449E+00 0.17850042E+04</pdfrwt>
<totfact> 0.63856418E+00</totfact>
</mgrwt>
</event>
<event>
12    1  0.1442183E-007  0.2736796E+04  0.7818608E-02  0.8323164E-01
          2   -1    0    0  501    0  0.00000000000E+00  0.00000000000E+00  0.15998174368E+04  0.15998174368E+04  0.00000000000E+00 0.  1.
         -2   -1    0    0    0  501 -0.00000000000E+00 -0.00000000000E+00 -0.11704544501E+04  0.11704544501E+04  0.00000000000E+00 0. -1.
         23    2    1    2    0    0  0.10350736804E+04 -0.19750705324E+03  0.81061944088E+03  0.13328220739E+04  0.94468210096E+02 0.  0.
        254    2    1    2    0    0 -0.10350736804E+04  0.19750705324E+03 -0.38125645420E+03  0.14374498131E+04  0.90028824342E+03 0.  0.
        -24    2    4    4    0    0 -0.24147153379E+03 -0.28256327396E+03 -0.33112800920E+03  0.50520803445E+03  0.86249024209E+02 0.  0.
         24    2    4    4    0    0 -0.79360214661E+03  0.48007032720E+03 -0.50128444999E+02  0.93224177860E+03  0.79309435756E+02 0.  0.
         13    1    3    3    0    0  0.71221615431E+02  0.24580133313E+01  0.33921096753E+02  0.78925288337E+02  0.00000000000E+00 0. -1.
        -13    1    3    3    0    0  0.96385206497E+03 -0.19996506657E+03  0.77669834413E+03  0.12538967855E+04  0.00000000000E+00 0.  1.
          2    1    6    6  502    0 -0.46125721960E+02  0.10145783613E+02  0.56233961736E+01  0.47561977840E+02  0.00000000000E+00 0. -1.
          1    1    5    5  503    0 -0.99031935106E+01 -0.45932225270E+02 -0.66164756611E+02  0.81151818078E+02  0.00000000000E+00 0. -1.
         -2    1    5    5    0  503 -0.23156834028E+03 -0.23663104869E+03 -0.26496325259E+03  0.42405621638E+03  0.00000000000E+00 0.  1.
         -1    1    6    6    0  502 -0.74747642465E+03  0.46992454359E+03 -0.55751841173E+02  0.88467980076E+03  0.00000000000E+00 0.  1.
<mgrwt>
<rscale>  0 0.27367963E+04</rscale>
<asrwt>0</asrwt>
<pdfrwt beam="1">  1        2 0.24612576E+00 0.27367963E+04</pdfrwt>
<pdfrwt beam="2">  1       -2 0.18006992E+00 0.27367963E+04</pdfrwt>
<totfact> 0.17674175E+00</totfact>
</mgrwt>
</event>
<event>
12    1  0.1442183E-007  0.1946756E+04  0.7818608E-02  0.8631927E-01
          2   -1    0    0  501    0  0.00000000000E+00  0.00000000000E+00  0.15784853633E+04  0.15784853633E+04  0.00000000000E+00 0. -1.
         -2   -1    0    0    0  501 -0.00000000000E+00 -0.00000000000E+00 -0.60023634929E+03  0.60023634929E+03  0.00000000000E+00 0.  1.
         23    2    1    2    0    0 -0.90763276343E+02 -0.56476035434E+01  0.12308640352E+04  0.12375892553E+04  0.91274443439E+02 0.  0.
        254    2    1    2    0    0  0.90763276343E+02  0.56476035434E+01 -0.25261502114E+03  0.94113245730E+03  0.90202332870E+03 0.  0.
        -24    2    4    4    0    0  0.21796485099E+03 -0.32147895682E+03 -0.38957934641E+03  0.55590217995E+03  0.79986064868E+02 0.  0.
         24    2    4    4    0    0 -0.12720157465E+03  0.32712656036E+03  0.13696432527E+03  0.38523027735E+03  0.80318821597E+02 0.  0.
         13    1    3    3    0    0 -0.25357787579E+02 -0.18546971696E+01  0.89686378125E+03  0.89722410768E+03  0.00000000000E+00 0. -1.
        -13    1    3    3    0    0 -0.65405488765E+02 -0.37929063737E+01  0.33400025392E+03  0.34036514762E+03  0.00000000000E+00 0.  1.
          4    1    6    6  502    0 -0.42865704074E+02  0.88172774199E+02  0.77434176152E+02  0.12493181473E+03  0.00000000000E+00 0. -1.
          1    1    5    5  503    0  0.10851058799E+03 -0.91894645018E+02 -0.13707672653E+03  0.19750747440E+03  0.00000000000E+00 0. -1.
         -2    1    5    5    0  503  0.10945426300E+03 -0.22958431180E+03 -0.25250261989E+03  0.35839470555E+03  0.00000000000E+00 0.  1.
         -3    1    6    6    0  502 -0.84335870573E+02  0.23895378617E+03  0.59530149116E+02  0.26029846262E+03  0.00000000000E+00 0.  1.
<mgrwt>
<rscale>  0 0.19467555E+04</rscale>
<asrwt>0</asrwt>
<pdfrwt beam="1">  1        2 0.24284390E+00 0.19467555E+04</pdfrwt>
<pdfrwt beam="2">  1       -2 0.92344055E-01 0.19467555E+04</pdfrwt>
<totfact> 0.10652777E+01</totfact>
</mgrwt>
</event>
<event>
12    1  0.1442183E-007  0.2285960E+04  0.7818608E-02  0.8483477E-01
         -1   -1    0    0    0  501 -0.00000000000E+00  0.00000000000E+00  0.69520608509E+03  0.69520608509E+03  0.00000000000E+00 0.  1.
          1   -1    0    0  501    0  0.00000000000E+00 -0.00000000000E+00 -0.18791604655E+04  0.18791604655E+04  0.00000000000E+00 0. -1.
         23    2    1    2    0    0  0.23340584539E+03 -0.75111787788E+03 -0.11225203388E+04  0.13735345133E+04  0.88818877343E+02 0.  0.
        254    2    1    2    0    0 -0.23340584539E+03  0.75111787788E+03 -0.61434041623E+02  0.12008320373E+04  0.90529944509E+03 0.  0.
        -24    2    4    4    0    0 -0.31446969299E+03  0.11794502761E+03 -0.35307464230E+03  0.49459410223E+03  0.84613270702E+02 0.  0.
         24    2    4    4    0    0  0.81063847601E+02  0.63317285027E+03  0.29164060068E+03  0.70623793511E+03  0.78984652373E+02 0.  0.
         11    1    3    3    0    0  0.22160104992E+03 -0.74622194663E+03 -0.10988554774E+04  0.13466393649E+04  0.00000000000E+00 0. -1.
        -11    1    3    3    0    0  0.11804795463E+02 -0.48959312498E+01 -0.23664861450E+02  0.26895148376E+02  0.00000000000E+00 0.  1.
          4    1    6    6  502    0  0.59700821795E+02  0.26711145730E+03  0.15753259211E+03  0.31579936087E+03  0.00000000000E+00 0. -1.
          3    1    5    5  503    0 -0.34497879620E+02 -0.10692619623E+02 -0.21809455525E+02  0.42191091038E+02  0.00000000000E+00 0. -1.
         -4    1    5    5    0  503 -0.27997181337E+03  0.12863764723E+03 -0.33126518677E+03  0.45240301119E+03  0.00000000000E+00 0.  1.
         -3    1    6    6    0  502  0.21363025806E+02  0.36606139297E+03  0.13410800856E+03  0.39043857424E+03  0.00000000000E+00 0.  1.
<mgrwt>
<rscale>  0 0.22859604E+04</rscale>
<asrwt>0</asrwt>
<pdfrwt beam="1">  1        1 0.28910161E+00 0.22859604E+04</pdfrwt>
<pdfrwt beam="2">  1       -1 0.10695478E+00 0.22859604E+04</pdfrwt>
<totfact> 0.26557050E+00</totfact>
</mgrwt>
</event>
<event>
12    1  0.1442183E-007  0.3857034E+04  0.7818608E-02  0.8034025E-01
         -1   -1    0    0    0  501 -0.00000000000E+00  0.00000000000E+00  0.17080288786E+04  0.17080288786E+04  0.00000000000E+00 0.  1.
          1   -1    0    0  501    0  0.00000000000E+00 -0.00000000000E+00 -0.21774680795E+04  0.21774680795E+04  0.00000000000E+00 0. -1.
         23    2    1    2    0    0  0.10926705583E+04 -0.12258480878E+04 -0.10104272704E+04  0.19302923565E+04  0.91830438878E+02 0.  0.
        254    2    1    2    0    0 -0.10926705583E+04  0.12258480878E+04  0.54098806955E+03  0.19552046016E+04  0.91297560732E+03 0.  0.
        -24    2    4    4    0    0 -0.81438588489E+03  0.80376431109E+03  0.78338157983E+03  0.13891014920E+04  0.81577069064E+02 0.  0.
         24    2    4    4    0    0 -0.27828467340E+03  0.42208377669E+03 -0.24239351029E+03  0.56610310961E+03  0.78237094100E+02 0.  0.
         13    1    3    3    0    0  0.10504204113E+04 -0.11920892194E+04 -0.99225309340E+03  0.18732394265E+04  0.00000000000E+00 0. -1.
        -13    1    3    3    0    0  0.42250147034E+02 -0.33758868354E+02 -0.18174177010E+02  0.57052930046E+02  0.00000000000E+00 0.  1.
          4    1    6    6  502    0 -0.10151533837E+03  0.18235929118E+03 -0.13924411677E+03  0.25089678966E+03  0.00000000000E+00 0. -1.
          3    1    5    5  503    0 -0.66480155552E+03  0.67095459857E+03  0.68066142090E+03  0.11642341480E+04  0.00000000000E+00 0. -1.
         -4    1    5    5    0  503 -0.14958432937E+03  0.13280971253E+03  0.10272015893E+03  0.22486734397E+03  0.00000000000E+00 0.  1.
         -3    1    6    6    0  502 -0.17676933504E+03  0.23972448550E+03 -0.10314939352E+03  0.31520631996E+03  0.00000000000E+00 0.  1.
<mgrwt>
<rscale>  0 0.38570343E+04</rscale>
<asrwt>0</asrwt>
<pdfrwt beam="1">  1        1 0.33499509E+00 0.38570343E+04</pdfrwt>
<pdfrwt beam="2">  1       -1 0.26277368E+00 0.38570343E+04</pdfrwt>
<totfact> 0.10289005E-01</totfact>
</mgrwt>
</event>
<event>
12    1  0.1442183E-007  0.2655980E+04  0.7818608E-02  0.8349431E-01
          1   -1    0    0  501    0  0.00000000000E+00  0.00000000000E+00  0.25946742768E+04  0.25946742768E+04  0.00000000000E+00 0. -1.
         -1   -1    0    0    0  501 -0.00000000000E+00 -0.00000000000E+00 -0.67968360754E+03  0.67968360754E+03  0.00000000000E+00 0.  1.
         23    2    1    2    0    0 -0.56119840717E+03  0.47951519676E+03 -0.27383067913E+03  0.79215981785E+03  0.87495485926E+02 0.  0.
        254    2    1    2    0    0  0.56119840717E+03 -0.47951519676E+03  0.21888213484E+04  0.24821980665E+04  0.90856473077E+03 0.  0.
        -24    2    4    4    0    0  0.55700725747E+03 -0.16696225559E+03  0.52507473246E+03  0.78745813939E+03  0.79078233091E+02 0.  0.
         24    2    4    4    0    0  0.41911496952E+01 -0.31255294116E+03  0.16637466159E+04  0.16947399271E+04  0.79898133511E+02 0.  0.
         11    1    3    3    0    0 -0.11876142554E+03  0.13121121691E+03 -0.34428318188E+02  0.18029411729E+03  0.00000000000E+00 0. -1.
        -11    1    3    3    0    0 -0.44243698163E+03  0.34830397985E+03 -0.23940236094E+03  0.61186570056E+03  0.00000000000E+00 0.  1.
          4    1    6    6  502    0 -0.80346465628E+01 -0.12026346662E+03  0.45314829982E+03  0.46890429575E+03  0.00000000000E+00 0. -1.
          3    1    5    5  503    0  0.13355766755E+03 -0.76151552624E+02  0.13438297416E+03  0.20419474350E+03  0.00000000000E+00 0. -1.
         -4    1    5    5    0  503  0.42344958992E+03 -0.90810702971E+02  0.39069175830E+03  0.58326339589E+03  0.00000000000E+00 0.  1.
         -3    1    6    6    0  502  0.12225796258E+02 -0.19228947454E+03  0.12105983161E+04  0.12258356314E+04  0.00000000000E+00 0.  1.
<mgrwt>
<rscale>  0 0.26559801E+04</rscale>
<asrwt>0</asrwt>
<pdfrwt beam="1">  1        1 0.39918065E+00 0.26559801E+04</pdfrwt>
<pdfrwt beam="2">  1       -1 0.10456671E+00 0.26559801E+04</pdfrwt>
<totfact> 0.87643443E-01</totfact>
</mgrwt>
</event>
<event>
12    1  0.1442183E-007  0.1994937E+04  0.7818608E-02  0.8608991E-01
          1   -1    0    0  501    0  0.00000000000E+00  0.00000000000E+00  0.23161791745E+04  0.23161791745E+04  0.00000000000E+00 0. -1.
         -1   -1    0    0    0  501 -0.00000000000E+00 -0.00000000000E+00 -0.42956256736E+03  0.42956256736E+03  0.00000000000E+00 0.  1.
         23    2    1    2    0    0 -0.25883822175E+03 -0.25634134122E+02 -0.28118962529E+03  0.39453185428E+03  0.94516902199E+02 0.  0.
        254    2    1    2    0    0  0.25883822175E+03  0.25634134122E+02  0.21678062324E+04  0.23512098876E+04  0.87243896074E+03 0.  0.
        -24    2    4    4    0    0  0.49475204011E+03 -0.17408827758E+03  0.17298453943E+04  0.18093794145E+04  0.80015423368E+02 0.  0.
         24    2    4    4    0    0 -0.23591381836E+03  0.19972241170E+03  0.43796083816E+03  0.54183047307E+03  0.78906237792E+02 0.  0.
         13    1    3    3    0    0 -0.22127946015E+03 -0.14535106930E+02 -0.17864535841E+03  0.28476311717E+03  0.00000000000E+00 0.  1.
        -13    1    3    3    0    0 -0.37558761598E+02 -0.11099027192E+02 -0.10254426688E+03  0.10976873711E+03  0.00000000000E+00 0. -1.
          4    1    6    6  502    0 -0.17851147343E+03  0.11111614613E+03  0.32612190381E+03  0.38803175156E+03  0.00000000000E+00 0. -1.
          3    1    5    5  503    0  0.30882093532E+03 -0.93038375227E+02  0.93511696951E+03  0.98917655453E+03  0.00000000000E+00 0. -1.
         -4    1    5    5    0  503  0.18593110479E+03 -0.81049902349E+02  0.79472842475E+03  0.82020285997E+03  0.00000000000E+00 0.  1.
         -3    1    6    6    0  502 -0.57402344929E+02  0.88606265573E+02  0.11183893435E+03  0.15379872151E+03  0.00000000000E+00 0.  1.
<mgrwt>
<rscale>  0 0.19949375E+04</rscale>
<asrwt>0</asrwt>
<pdfrwt beam="1">  1        1 0.35633525E+00 0.19949375E+04</pdfrwt>
<pdfrwt beam="2">  1       -1 0.66086550E-01 0.19949375E+04</pdfrwt>
<totfact> 0.39077822E+00</totfact>
</mgrwt>
</event>
<event>
12    1  0.1442183E-007  0.2185951E+04  0.7818608E-02  0.8524298E-01
          2   -1    0    0  501    0  0.00000000000E+00  0.00000000000E+00  0.26875166299E+04  0.26875166299E+04  0.00000000000E+00 0. -1.
         -2   -1    0    0    0  501 -0.00000000000E+00 -0.00000000000E+00 -0.44449788378E+03  0.44449788378E+03  0.00000000000E+00 0.  1.
         23    2    1    2    0    0 -0.29182911678E+02 -0.71474712281E+03  0.17372205728E+04  0.18808772835E+04  0.89715913543E+02 0.  0.
        254    2    1    2    0    0  0.29182911678E+02  0.71474712281E+03  0.50579817331E+03  0.12511372302E+04  0.89319509888E+03 0.  0.
        -24    2    4    4    0    0  0.10336364008E+03  0.33684934369E+03  0.71844135395E+03  0.80418171438E+03  0.79992051138E+02 0.  0.
         24    2    4    4    0    0 -0.74180728404E+02  0.37789777912E+03 -0.21264318064E+03  0.44695551577E+03  0.79010118802E+02 0.  0.
         11    1    3    3    0    0  0.24204186812E+02 -0.91744680795E+02  0.25982806031E+03  0.27661082777E+03  0.00000000000E+00 0.  1.
        -11    1    3    3    0    0 -0.53387098490E+02 -0.62300244202E+03  0.14773925125E+04  0.16042664557E+04  0.00000000000E+00 0. -1.
          4    1    6    6  502    0 -0.32823454849E+02  0.28322240367E+03 -0.18544604861E+03  0.34012136962E+03  0.00000000000E+00 0. -1.
          3    1    5    5  503    0  0.92123974585E+02  0.33762345927E+03  0.69890923745E+03  0.78163325744E+03  0.00000000000E+00 0. -1.
         -4    1    5    5    0  503  0.11239665496E+02 -0.77411558514E+00  0.19532116505E+02  0.22548456944E+02  0.00000000000E+00 0.  1.
         -3    1    6    6    0  502 -0.41357273555E+02  0.94675375457E+02 -0.27197132037E+02  0.10683414616E+03  0.00000000000E+00 0.  1.
<mgrwt>
<rscale>  0 0.21859510E+04</rscale>
<asrwt>0</asrwt>
<pdfrwt beam="1">  1        2 0.41346409E+00 0.21859510E+04</pdfrwt>
<pdfrwt beam="2">  1       -2 0.68384291E-01 0.21859510E+04</pdfrwt>
<totfact> 0.48375440E+00</totfact>
</mgrwt>
</event>
<event>
12    1  0.1442183E-007  0.1333052E+04  0.7818608E-02  0.9003758E-01
         -1   -1    0    0    0  501 -0.00000000000E+00  0.00000000000E+00  0.64769392189E+03  0.64769392189E+03  0.00000000000E+00 0.  1.
          1   -1    0    0  501    0  0.00000000000E+00 -0.00000000000E+00 -0.68590551683E+03  0.68590551683E+03  0.00000000000E+00 0. -1.
         23    2    1    2    0    0 -0.64713104473E+02 -0.23217440984E+02 -0.35789888933E+03  0.37567762323E+03  0.91187861920E+02 0.  0.
        254    2    1    2    0    0  0.64713104473E+02  0.23217440984E+02  0.31968729439E+03  0.95792181549E+03  0.90038180953E+03 0.  0.
        -24    2    4    4    0    0 -0.28088251686E+03 -0.20382502319E+03 -0.94639818597E+02  0.36839339153E+03  0.79481867754E+02 0.  0.
         24    2    4    4    0    0  0.34559562133E+03  0.22704246417E+03  0.41432711298E+03  0.58952842396E+03  0.69944206930E+02 0.  0.
         13    1    3    3    0    0 -0.87955517502E+02 -0.21694388725E+02 -0.29542951727E+03  0.30900715078E+03  0.00000000000E+00 0. -1.
        -13    1    3    3    0    0  0.23242413029E+02 -0.15230522588E+01 -0.62469372056E+02  0.66670472450E+02  0.00000000000E+00 0.  1.
          2    1    6    6  502    0  0.15128573019E+03  0.98131238499E+02  0.13267130023E+03  0.22387225383E+03  0.00000000000E+00 0. -1.
          3    1    5    5  503    0 -0.22863793128E+03 -0.19976763806E+03 -0.79635086352E+02  0.31388558396E+03  0.00000000000E+00 0. -1.
         -2    1    5    5    0  503 -0.52244585573E+02 -0.40573851224E+01 -0.15004732245E+02  0.54507807564E+02  0.00000000000E+00 0.  1.
         -1    1    6    6    0  502  0.19430989114E+03  0.12891122567E+03  0.28165581275E+03  0.36565617013E+03  0.00000000000E+00 0.  1.
<mgrwt>
<rscale>  0 0.13330519E+04</rscale>
<asrwt>0</asrwt>
<pdfrwt beam="1">  1        1 0.10552393E+00 0.13330519E+04</pdfrwt>
<pdfrwt beam="2">  1       -1 0.99645219E-01 0.13330519E+04</pdfrwt>
<totfact> 0.26475326E+01</totfact>
</mgrwt>
</event>
<event>
12    1  0.1442183E-007  0.2618585E+04  0.7818608E-02  0.8361916E-01
         -2   -1    0    0    0  501 -0.00000000000E+00  0.00000000000E+00  0.38125192484E+03  0.38125192484E+03  0.00000000000E+00 0.  1.
          2   -1    0    0  501    0  0.00000000000E+00 -0.00000000000E+00 -0.44963625196E+04  0.44963625196E+04  0.00000000000E+00 0. -1.
         23    2    1    2    0    0 -0.58388180354E+03  0.53823577911E+03 -0.34433384779E+04  0.35349318770E+04  0.92454244463E+02 0.  0.
        254    2    1    2    0    0  0.58388180354E+03 -0.53823577911E+03 -0.67177211691E+03  0.13426825675E+04  0.84906006004E+03 0.  0.
        -24    2    4    4    0    0  0.76719674090E+03 -0.28420187390E+03 -0.37394247919E+03  0.90321040065E+03  0.81206562048E+02 0.  0.
         24    2    4    4    0    0 -0.18331493736E+03 -0.25403390520E+03 -0.29782963771E+03  0.43947216683E+03  0.79345453972E+02 0.  0.
         13    1    3    3    0    0 -0.40510748498E+02  0.13167378674E+02 -0.23364960407E+03  0.23750081703E+03  0.00000000000E+00 0.  1.
        -13    1    3    3    0    0 -0.54337105504E+03  0.52506840043E+03 -0.32096888738E+04  0.32974310600E+04  0.00000000000E+00 0. -1.
          2    1    6    6  502    0 -0.14724007171E+03 -0.24035397182E+03 -0.24138489991E+03  0.37110152302E+03  0.00000000000E+00 0. -1.
          3    1    5    5  503    0  0.13498131065E+03 -0.21869811997E+02 -0.78674933211E+02  0.15775927237E+03  0.00000000000E+00 0. -1.
         -4    1    5    5    0  503  0.63221543025E+03 -0.26233206191E+03 -0.29526754598E+03  0.74545112828E+03  0.00000000000E+00 0.  1.
         -1    1    6    6    0  502 -0.36074865650E+02 -0.13679933388E+02 -0.56444737801E+02  0.68370643807E+02  0.00000000000E+00 0.  1.
<mgrwt>
<rscale>  0 0.26185850E+04</rscale>
<asrwt>0</asrwt>
<pdfrwt beam="1">  1        2 0.69174804E+00 0.26185850E+04</pdfrwt>
<pdfrwt beam="2">  1       -2 0.58654146E-01 0.26185850E+04</pdfrwt>
<totfact> 0.29896225E-01</totfact>
</mgrwt>
</event>
<event>
12    1  0.1442183E-007  0.1917111E+04  0.7818608E-02  0.8646386E-01
         -2   -1    0    0    0  501 -0.00000000000E+00  0.00000000000E+00  0.82909069035E+03  0.82909069035E+03  0.00000000000E+00 0. -1.
          2   -1    0    0  501    0  0.00000000000E+00 -0.00000000000E+00 -0.11082371072E+04  0.11082371072E+04  0.00000000000E+00 0.  1.
         23    2    1    2    0    0  0.21772813234E+03 -0.15839192557E+03  0.57158138278E+03  0.64047580134E+03  0.10493061165E+03 0.  0.
        254    2    1    2    0    0 -0.21772813234E+03  0.15839192557E+03 -0.85072779965E+03  0.12968519962E+04  0.94105991804E+03 0.  0.
        -24    2    4    4    0    0 -0.30005583411E+03 -0.19534230019E+03 -0.84914908988E+03  0.92490991431E+03  0.78816590470E+02 0.  0.
         24    2    4    4    0    0  0.82327701774E+02  0.35373422576E+03 -0.15787097780E+01  0.37194208192E+03  0.80203909046E+02 0.  0.
         11    1    3    3    0    0  0.11131947008E+03 -0.12859279175E+03  0.41794576103E+03  0.45122809052E+03  0.00000000000E+00 0. -1.
        -11    1    3    3    0    0  0.10640866226E+03 -0.29799133820E+02  0.15363562175E+03  0.18924771082E+03  0.00000000000E+00 0.  1.
          4    1    6    6  502    0  0.68477810970E+02  0.16186274511E+03 -0.27299350271E+02  0.17785953271E+03  0.00000000000E+00 0. -1.
          1    1    5    5  503    0 -0.59263254064E+02 -0.43048938853E+02 -0.26571101953E+03  0.27562236905E+03  0.00000000000E+00 0. -1.
         -2    1    5    5    0  503 -0.24079258005E+03 -0.15229336133E+03 -0.58343807035E+03  0.64928754527E+03  0.00000000000E+00 0.  1.
         -3    1    6    6    0  502  0.13849890804E+02  0.19187148065E+03  0.25720640493E+02  0.19408254921E+03  0.00000000000E+00 0.  1.
<mgrwt>
<rscale>  0 0.19171114E+04</rscale>
<asrwt>0</asrwt>
<pdfrwt beam="1">  1        2 0.17049802E+00 0.19171114E+04</pdfrwt>
<pdfrwt beam="2">  1       -2 0.12755241E+00 0.19171114E+04</pdfrwt>
<totfact> 0.91780602E+00</totfact>
</mgrwt>
</event>
<event>
12    1  0.1442183E-007  0.1448392E+04  0.7818608E-02  0.8919516E-01
         -2   -1    0    0    0  501 -0.00000000000E+00  0.00000000000E+00  0.26503608336E+03  0.26503608336E+03  0.00000000000E+00 0.  1.
          2   -1    0    0  501    0  0.00000000000E+00 -0.00000000000E+00 -0.19788248210E+04  0.19788248210E+04  0.00000000000E+00 0. -1.
         23    2    1    2    0    0  0.18717207088E+03  0.26358271313E+03 -0.10009702091E+04  0.10552840110E+04  0.84698013931E+02 0.  0.
        254    2    1    2    0    0 -0.18717207088E+03 -0.26358271313E+03 -0.71281852854E+03  0.11885768934E+04  0.89448060126E+03 0.  0.
        -24    2    4    4    0    0  0.25656128751E+03  0.13313859690E+03 -0.43024742217E+03  0.52502749195E+03  0.83614847911E+02 0.  0.
         24    2    4    4    0    0 -0.44373335838E+03 -0.39672131004E+03 -0.28257110638E+03  0.66354940142E+03  0.78512972063E+02 0.  0.
         13    1    3    3    0    0  0.12433262637E+03  0.18634346633E+03 -0.55856381796E+03  0.60181062483E+03  0.00000000000E+00 0.  1.
        -13    1    3    3    0    0  0.62839444502E+02  0.77239246804E+02 -0.44240639115E+03  0.45347338617E+03  0.00000000000E+00 0. -1.
          4    1    6    6  502    0 -0.19828812379E+03 -0.22880505357E+03 -0.13360700838E+03  0.33093921687E+03  0.00000000000E+00 0. -1.
          1    1    5    5  503    0  0.20671373171E+03  0.88199792037E+02 -0.27002471418E+03  0.35131626274E+03  0.00000000000E+00 0. -1.
         -2    1    5    5    0  503  0.49847555795E+02  0.44938804867E+02 -0.16022270799E+03  0.17371122922E+03  0.00000000000E+00 0.  1.
         -3    1    6    6    0  502 -0.24544523460E+03 -0.16791625646E+03 -0.14896409800E+03  0.33261018455E+03  0.00000000000E+00 0.  1.
<mgrwt>
<rscale>  0 0.14483922E+04</rscale>
<asrwt>0</asrwt>
<pdfrwt beam="1">  1        2 0.30443460E+00 0.14483922E+04</pdfrwt>
<pdfrwt beam="2">  1       -2 0.40774781E-01 0.14483922E+04</pdfrwt>
<totfact> 0.37938869E+01</totfact>
</mgrwt>
</event>
<event>
12    1  0.1442183E-007  0.3103411E+04  0.7818608E-02  0.8214802E-01
          2   -1    0    0  501    0  0.00000000000E+00  0.00000000000E+00  0.30834396366E+04  0.30834396366E+04  0.00000000000E+00 0. -1.
         -2   -1    0    0    0  501 -0.00000000000E+00 -0.00000000000E+00 -0.78087806470E+03  0.78087806470E+03  0.00000000000E+00 0.  1.
         23    2    1    2    0    0  0.84154759968E+03  0.10592502668E+04  0.15929423879E+04  0.20918782010E+04  0.90969590111E+02 0.  0.
        254    2    1    2    0    0 -0.84154759968E+03 -0.10592502668E+04  0.70961918404E+03  0.17724395003E+04  0.89875964843E+03 0.  0.
        -24    2    4    4    0    0  0.59295091279E+02 -0.33273832499E+03  0.47513189141E+03  0.58847361203E+03  0.79499541230E+02 0.  0.
         24    2    4    4    0    0 -0.90084269096E+03 -0.72651194185E+03  0.23448729263E+03  0.11839658883E+04  0.86335269358E+02 0.  0.
         11    1    3    3    0    0  0.66955835153E+02  0.67799089705E+02  0.14701958579E+03  0.17519862737E+03  0.00000000000E+00 0. -1.
        -11    1    3    3    0    0  0.77459176453E+03  0.99145117714E+03  0.14459228021E+04  0.19166795736E+04  0.00000000000E+00 0.  1.
          2    1    6    6  502    0 -0.34216496119E+03 -0.32271911098E+03  0.11728837947E+03  0.48474843911E+03  0.00000000000E+00 0. -1.
          1    1    5    5  503    0 -0.17318637153E+02 -0.31422967910E+02  0.40764795517E+02  0.54305677959E+02  0.00000000000E+00 0. -1.
         -2    1    5    5    0  503  0.76613728432E+02 -0.30131535708E+03  0.43436709589E+03  0.53416793408E+03  0.00000000000E+00 0.  1.
         -1    1    6    6    0  502 -0.55867772977E+03 -0.40379283086E+03  0.11719891315E+03  0.69921744918E+03  0.00000000000E+00 0.  1.
<mgrwt>
<rscale>  0 0.31034113E+04</rscale>
<asrwt>0</asrwt>
<pdfrwt beam="1">  1        2 0.47437532E+00 0.31034113E+04</pdfrwt>
<pdfrwt beam="2">  1       -2 0.12013509E+00 0.31034113E+04</pdfrwt>
<totfact> 0.69250654E-01</totfact>
</mgrwt>
</event>
<event>
12    1  0.1442183E-007  0.2005098E+04  0.7818608E-02  0.8604241E-01
         -2   -1    0    0    0  501 -0.00000000000E+00  0.00000000000E+00  0.72321068409E+03  0.72321068409E+03  0.00000000000E+00 0.  1.
          2   -1    0    0  501    0  0.00000000000E+00 -0.00000000000E+00 -0.13897806550E+04  0.13897806550E+04  0.00000000000E+00 0. -1.
         23    2    1    2    0    0 -0.19656853207E+03  0.11384331457E+03 -0.10708201509E+04  0.10981831340E+04  0.88039264171E+02 0.  0.
        254    2    1    2    0    0  0.19656853207E+03 -0.11384331457E+03  0.40425018000E+03  0.10148082051E+04  0.90267269657E+03 0.  0.
        -24    2    4    4    0    0  0.94670983140E+02  0.34574238397E+03 -0.30903262581E+02  0.36851021052E+03  0.79651569314E+02 0.  0.
         24    2    4    4    0    0  0.10189754893E+03 -0.45958569854E+03  0.43515344258E+03  0.64629799463E+03  0.82100270972E+02 0.  0.
         13    1    3    3    0    0 -0.70528401103E+02  0.13882356054E+02 -0.19758571186E+03  0.21025481850E+03  0.00000000000E+00 0.  1.
        -13    1    3    3    0    0 -0.12604013097E+03  0.99960958511E+02 -0.87323443908E+03  0.88792831548E+03  0.00000000000E+00 0. -1.
          2    1    6    6  502    0  0.52663632768E+02 -0.84932117892E+02  0.94552219393E+02  0.13757559761E+03  0.00000000000E+00 0. -1.
          1    1    5    5  503    0 -0.22881796647E+01  0.95869143080E+02 -0.30012220281E+02  0.10048314151E+03  0.00000000000E+00 0. -1.
         -2    1    5    5    0  503  0.96959162805E+02  0.24987324089E+03 -0.89104230076E+00  0.26802706901E+03  0.00000000000E+00 0.  1.
         -1    1    6    6    0  502  0.49233916165E+02 -0.37465358064E+03  0.34060122319E+03  0.50872239702E+03  0.00000000000E+00 0.  1.
<mgrwt>
<rscale>  0 0.20050977E+04</rscale>
<asrwt>0</asrwt>
<pdfrwt beam="1">  1        2 0.21381240E+00 0.20050977E+04</pdfrwt>
<pdfrwt beam="2">  1       -2 0.11126318E+00 0.20050977E+04</pdfrwt>
<totfact> 0.87062863E+00</totfact>
</mgrwt>
</event>
<event>
12    1  0.1442183E-007  0.3081266E+04  0.7818608E-02  0.8220898E-01
         -1   -1    0    0    0  501 -0.00000000000E+00  0.00000000000E+00  0.68534910066E+03  0.68534910066E+03  0.00000000000E+00 0.  1.
          1   -1    0    0  501    0  0.00000000000E+00 -0.00000000000E+00 -0.34632707026E+04  0.34632707026E+04  0.00000000000E+00 0. -1.
         23    2    1    2    0    0 -0.78935907482E+03 -0.78628376912E+03 -0.12067611762E+03  0.11246495307E+04  0.94572337231E+02 0.  0.
        254    2    1    2    0    0  0.78935907482E+03  0.78628376912E+03 -0.26572454844E+04  0.30239702726E+04  0.91766700430E+03 0.  0.
        -24    2    4    4    0    0  0.49045628306E+03 -0.81343940335E+02 -0.71597657670E+03  0.87525818609E+03  0.79310981094E+02 0.  0.
         24    2    4    4    0    0  0.29890279176E+03  0.86762770945E+03 -0.19412689077E+04  0.21487120865E+04  0.79485455765E+02 0.  0.
         13    1    3    3    0    0 -0.42418972455E+03 -0.38219398287E+03 -0.99627597825E+02  0.57959884507E+03  0.00000000000E+00 0.  1.
        -13    1    3    3    0    0 -0.36516935027E+03 -0.40408978625E+03 -0.21048519800E+02  0.54505068564E+03  0.00000000000E+00 0. -1.
          4    1    6    6  502    0  0.45161645244E+01  0.59556062027E+02 -0.15738693291E+03  0.16833884554E+03  0.00000000000E+00 0. -1.
          1    1    5    5  503    0  0.14603845010E+03  0.30779079403E+01 -0.16887204017E+03  0.22328114201E+03  0.00000000000E+00 0. -1.
         -2    1    5    5    0  503  0.34441783296E+03 -0.84421848275E+02 -0.54710453653E+03  0.65197704409E+03  0.00000000000E+00 0.  1.
         -3    1    6    6    0  502  0.29438662724E+03  0.80807164742E+03 -0.17838819747E+04  0.19803732410E+04  0.00000000000E+00 0.  1.
<mgrwt>
<rscale>  0 0.30812656E+04</rscale>
<asrwt>0</asrwt>
<pdfrwt beam="1">  1        1 0.53281088E+00 0.30812656E+04</pdfrwt>
<pdfrwt beam="2">  1       -1 0.10543832E+00 0.30812656E+04</pdfrwt>
<totfact> 0.19011774E-01</totfact>
</mgrwt>
</event>
<event>
12    1  0.1442183E-007  0.2736999E+04  0.7818608E-02  0.8323099E-01
         -1   -1    0    0    0  501 -0.00000000000E+00  0.00000000000E+00  0.58496131063E+03  0.58496131063E+03  0.00000000000E+00 0.  1.
          1   -1    0    0  501    0  0.00000000000E+00 -0.00000000000E+00 -0.32015632515E+04  0.32015632515E+04  0.00000000000E+00 0. -1.
         23    2    1    2    0    0 -0.11141156462E+04 -0.14744811481E+02 -0.18505030851E+04  0.21619572539E+04  0.90699598187E+02 0.  0.
        254    2    1    2    0    0  0.11141156462E+04  0.14744811481E+02 -0.76609885580E+03  0.16245673083E+04  0.90046676761E+03 0.  0.
        -24    2    4    4    0    0  0.94714414368E+03 -0.14309213826E+02 -0.12689473886E+03  0.95922425078E+03  0.81988450566E+02 0.  0.
         24    2    4    4    0    0  0.16697150255E+03  0.29054025307E+02 -0.63920411695E+03  0.66534305748E+03  0.73320269794E+02 0.  0.
         11    1    3    3    0    0 -0.10738259366E+04  0.12818220104E+01 -0.17626428471E+04  0.20639800366E+04  0.00000000000E+00 0. -1.
        -11    1    3    3    0    0 -0.40289709619E+02 -0.16026633491E+02 -0.87860237993E+02  0.97977217262E+02  0.00000000000E+00 0.  1.
          2    1    6    6  502    0  0.49050733438E+02 -0.22510595535E+02 -0.23618025400E+03  0.24226806174E+03  0.00000000000E+00 0. -1.
          1    1    5    5  503    0  0.69660917956E+03 -0.44061915333E+02 -0.10687159008E+03  0.70613549564E+03  0.00000000000E+00 0. -1.
         -2    1    5    5    0  503  0.25053496412E+03  0.29752701506E+02 -0.20023148779E+02  0.25308875514E+03  0.00000000000E+00 0.  1.
         -1    1    6    6    0  502  0.11792076911E+03  0.51564620842E+02 -0.40302386295E+03  0.42307499573E+03  0.00000000000E+00 0.  1.
<mgrwt>
<rscale>  0 0.27369988E+04</rscale>
<asrwt>0</asrwt>
<pdfrwt beam="1">  1        1 0.49254820E+00 0.27369988E+04</pdfrwt>
<pdfrwt beam="2">  1       -1 0.89994047E-01 0.27369988E+04</pdfrwt>
<totfact> 0.44559479E-01</totfact>
</mgrwt>
</event>
<event>
12    1  0.1445240E-007  0.1615422E+04  0.7818608E-02  0.8811129E-01
          2   -1    0    0  501    0  0.00000000000E+00  0.00000000000E+00  0.17349527095E+04  0.17349527095E+04  0.00000000000E+00 0. -1.
         -2   -1    0    0    0  501 -0.00000000000E+00 -0.00000000000E+00 -0.37603183676E+03  0.37603183676E+03  0.00000000000E+00 0.  1.
         23    2    1    2    0    0 -0.38605880264E+03  0.25669870745E+03  0.85829149134E+03  0.97976903812E+03  0.91364426635E+02 0.  0.
        254    2    1    2    0    0  0.38605880264E+03 -0.25669870745E+03  0.50062938137E+03  0.11312155081E+04  0.90226555004E+03 0.  0.
        -24    2    4    4    0    0  0.50002556762E+03  0.18237148764E+03  0.17165951190E+03  0.56472907639E+03  0.78530337512E+02 0.  0.
         24    2    4    4    0    0 -0.11396676498E+03 -0.43907019509E+03  0.32896986947E+03  0.56648643173E+03  0.83154329829E+02 0.  0.
         13    1    3    3    0    0 -0.28247910509E+03  0.22997109708E+03  0.63168488663E+03  0.72918238206E+03  0.00000000000E+00 0. -1.
        -13    1    3    3    0    0 -0.10357969755E+03  0.26727610373E+02  0.22660660470E+03  0.25058665606E+03  0.00000000000E+00 0.  1.
          2    1    6    6  502    0 -0.12065572975E+03 -0.38280522224E+03  0.26464351660E+03  0.48076380289E+03  0.00000000000E+00 0. -1.
          3    1    5    5  503    0  0.48398593586E+03  0.18678489432E+03  0.15561087675E+03  0.54161400261E+03  0.00000000000E+00 0. -1.
         -4    1    5    5    0  503  0.16039631762E+02 -0.44134066802E+01  0.16048635152E+02  0.23115073780E+02  0.00000000000E+00 0.  1.
         -1    1    6    6    0  502  0.66889647662E+01 -0.56264972853E+02  0.64326352875E+02  0.85722628833E+02  0.00000000000E+00 0.  1.
<mgrwt>
<rscale>  0 0.16154225E+04</rscale>
<asrwt>0</asrwt>
<pdfrwt beam="1">  1        2 0.26691580E+00 0.16154225E+04</pdfrwt>
<pdfrwt beam="2">  1       -2 0.57851053E-01 0.16154225E+04</pdfrwt>
<totfact> 0.25119994E+01</totfact>
</mgrwt>
</event>
<event>
12    1  0.1442183E-007  0.1886224E+04  0.7818608E-02  0.8661744E-01
          2   -1    0    0  501    0  0.00000000000E+00  0.00000000000E+00  0.16476212830E+04  0.16476212830E+04  0.00000000000E+00 0. -1.
         -2   -1    0    0    0  501 -0.00000000000E+00 -0.00000000000E+00 -0.53984505344E+03  0.53984505344E+03  0.00000000000E+00 0.  1.
         23    2    1    2    0    0 -0.76121761826E+02 -0.44890566758E+03 -0.23010753997E+03  0.51996753052E+03  0.10052826388E+03 0.  0.
        254    2    1    2    0    0  0.76121761826E+02  0.44890566758E+03  0.13378837695E+04  0.16674988059E+04  0.88504715465E+03 0.  0.
        -24    2    4    4    0    0 -0.18265316875E+03 -0.54928596679E+02 -0.57620492905E+01  0.20716415200E+03  0.80650194493E+02 0.  0.
         24    2    4    4    0    0  0.25877493058E+03  0.50383426426E+03  0.13436458188E+04  0.14603346539E+04  0.79873553040E+02 0.  0.
         13    1    3    3    0    0 -0.71629243003E+02 -0.27053923058E+03 -0.92862868477E+02  0.29486562377E+03  0.00000000000E+00 0. -1.
        -13    1    3    3    0    0 -0.44925188230E+01 -0.17836643700E+03 -0.13724467149E+03  0.22510190675E+03  0.00000000000E+00 0.  1.
          4    1    6    6  502    0  0.91632833397E+02  0.11039684040E+03  0.37760384471E+03  0.40394145871E+03  0.00000000000E+00 0. -1.
          1    1    5    5  503    0 -0.13115925189E+03 -0.68409375720E+02 -0.26042058456E+02  0.15020246619E+03  0.00000000000E+00 0. -1.
         -2    1    5    5    0  503 -0.51493916868E+02  0.13480779042E+02  0.20280009165E+02  0.56961685805E+02  0.00000000000E+00 0.  1.
         -3    1    6    6    0  502  0.16714209718E+03  0.39343742386E+03  0.96604197408E+03  0.10563931952E+04  0.00000000000E+00 0.  1.
<mgrwt>
<rscale>  0 0.18862240E+04</rscale>
<asrwt>0</asrwt>
<pdfrwt beam="1">  1        2 0.25348020E+00 0.18862240E+04</pdfrwt>
<pdfrwt beam="2">  1       -2 0.83053086E-01 0.18862240E+04</pdfrwt>
<totfact> 0.12489970E+01</totfact>
</mgrwt>
</event>
<event>
12    1  0.1442183E-007  0.2899812E+04  0.7818608E-02  0.8272933E-01
          2   -1    0    0  501    0  0.00000000000E+00  0.00000000000E+00  0.19259441369E+04  0.19259441369E+04  0.00000000000E+00 0. -1.
         -2   -1    0    0    0  501 -0.00000000000E+00 -0.00000000000E+00 -0.10915307038E+04  0.10915307038E+04  0.00000000000E+00 0.  1.
         23    2    1    2    0    0 -0.87209242552E+02 -0.35398609662E+03 -0.93016695636E+03  0.10032052702E+04  0.91096865113E+02 0.  0.
        254    2    1    2    0    0  0.87209242552E+02  0.35398609662E+03  0.17645803895E+04  0.20142695705E+04  0.90034790114E+03 0.  0.
        -24    2    4    4    0    0 -0.33656199895E+03 -0.20618749475E+02  0.10092928483E+04  0.10670403173E+04  0.78764669326E+02 0.  0.
         24    2    4    4    0    0  0.42377124150E+03  0.37460484609E+03  0.75528754116E+03  0.94722925318E+03  0.82904357002E+02 0.  0.
         11    1    3    3    0    0  0.48526530003E+01 -0.15817335510E+03 -0.35450578104E+03  0.38822249715E+03  0.00000000000E+00 0. -1.
        -11    1    3    3    0    0 -0.92061895552E+02 -0.19581274152E+03 -0.57566117532E+03  0.61498277303E+03  0.00000000000E+00 0.  1.
          2    1    6    6  502    0  0.41906834644E+03  0.36807010005E+03  0.75561197838E+03  0.93917162404E+03  0.00000000000E+00 0. -1.
          1    1    5    5  503    0 -0.27641954393E+03  0.14140464990E+02  0.81185762881E+03  0.85774152661E+03  0.00000000000E+00 0. -1.
         -2    1    5    5    0  503 -0.60142455015E+02 -0.34759214465E+02  0.19743521952E+03  0.20929879071E+03  0.00000000000E+00 0.  1.
         -1    1    6    6    0  502  0.47028950561E+01  0.65347460473E+01 -0.32443721773E+00  0.80576291376E+01  0.00000000000E+00 0.  1.
<mgrwt>
<rscale>  0 0.28998118E+04</rscale>
<asrwt>0</asrwt>
<pdfrwt beam="1">  1        2 0.29629910E+00 0.28998118E+04</pdfrwt>
<pdfrwt beam="2">  1       -2 0.16792780E+00 0.28998118E+04</pdfrwt>
<totfact> 0.13982652E+00</totfact>
</mgrwt>
</event>
<event>
12    1  0.1442183E-007  0.1756833E+04  0.7818608E-02  0.8729598E-01
         -2   -1    0    0    0  501 -0.00000000000E+00  0.00000000000E+00  0.31346347009E+03  0.31346347009E+03  0.00000000000E+00 0.  1.
          2   -1    0    0  501    0  0.00000000000E+00 -0.00000000000E+00 -0.24615790790E+04  0.24615790790E+04  0.00000000000E+00 0. -1.
         23    2    1    2    0    0  0.51007302363E+03  0.24037388554E+03 -0.29073676177E+03  0.64123865237E+03  0.93300859410E+02 0.  0.
        254    2    1    2    0    0 -0.51007302363E+03 -0.24037388554E+03 -0.18573788471E+04  0.21338038967E+04  0.88617650249E+03 0.  0.
        -24    2    4    4    0    0  0.37842113053E+02  0.40440193192E+02  0.63675036650E+02  0.11495351892E+03  0.78053612811E+02 0.  0.
         24    2    4    4    0    0 -0.54791513668E+03 -0.28081407873E+03 -0.19210538838E+04  0.20188503778E+04  0.79001770344E+02 0.  0.
         11    1    3    3    0    0  0.98573662994E+02  0.50263906661E+02 -0.10108698524E+03  0.14987263237E+03  0.00000000000E+00 0. -1.
        -11    1    3    3    0    0  0.41149936064E+03  0.19010997888E+03 -0.18964977653E+03  0.49136602000E+03  0.00000000000E+00 0.  1.
          2    1    6    6  502    0 -0.47753733143E+03 -0.24194885796E+03 -0.17458459832E+04  0.18260775860E+04  0.00000000000E+00 0. -1.
          3    1    5    5  503    0 -0.24249235803E+02  0.13918270599E+02  0.15093705265E+02  0.31773631082E+02  0.00000000000E+00 0. -1.
         -4    1    5    5    0  503  0.62091348856E+02  0.26521922593E+02  0.48581331385E+02  0.83179887833E+02  0.00000000000E+00 0.  1.
         -1    1    6    6    0  502 -0.70377805248E+02 -0.38865220771E+02 -0.17520790055E+03  0.19277279184E+03  0.00000000000E+00 0.  1.
<mgrwt>
<rscale>  0 0.17568325E+04</rscale>
<asrwt>0</asrwt>
<pdfrwt beam="1">  1        2 0.37870447E+00 0.17568325E+04</pdfrwt>
<pdfrwt beam="2">  1       -2 0.48225149E-01 0.17568325E+04</pdfrwt>
<totfact> 0.14155127E+01</totfact>
</mgrwt>
</event>
<event>
12    1  0.1442183E-007  0.4517188E+04  0.7818608E-02  0.7907635E-01
          2   -1    0    0  501    0  0.00000000000E+00  0.00000000000E+00  0.25118474472E+04  0.25118474472E+04  0.00000000000E+00 0. -1.
         -2   -1    0    0    0  501 -0.00000000000E+00 -0.00000000000E+00 -0.20308741669E+04  0.20308741669E+04  0.00000000000E+00 0.  1.
         23    2    1    2    0    0  0.81803885991E+03  0.93904122516E+03  0.20162675553E+04  0.23716761956E+04  0.92342424245E+02 0.  0.
        254    2    1    2    0    0 -0.81803885991E+03 -0.93904122516E+03 -0.15352942750E+04  0.21710454185E+04  0.89739829479E+03 0.  0.
        -24    2    4    4    0    0 -0.90045695923E+03 -0.64845585984E+03 -0.14836437576E+04  0.18544638451E+04  0.80744138712E+02 0.  0.
         24    2    4    4    0    0  0.82418099317E+02 -0.29058536531E+03 -0.51650517468E+02  0.31658157340E+03  0.79520557298E+02 0.  0.
         13    1    3    3    0    0  0.40797144404E+03  0.49404898265E+03  0.11183661442E+04  0.12889018306E+04  0.00000000000E+00 0. -1.
        -13    1    3    3    0    0  0.41006741587E+03  0.44499224250E+03  0.89790141112E+03  0.10827743650E+04  0.00000000000E+00 0.  1.
          2    1    6    6  502    0  0.52808085506E+02 -0.26530089655E+03 -0.30359074740E+02  0.27220384462E+03  0.00000000000E+00 0. -1.
          3    1    5    5  503    0 -0.61543493547E+03 -0.46385545062E+03 -0.10840279736E+04  0.13300521367E+04  0.00000000000E+00 0. -1.
         -4    1    5    5    0  503 -0.28502202376E+03 -0.18460040922E+03 -0.39961578397E+03  0.52441170840E+03  0.00000000000E+00 0.  1.
         -1    1    6    6    0  502  0.29610013811E+02 -0.25284468760E+02 -0.21291442727E+02  0.44377728781E+02  0.00000000000E+00 0.  1.
<mgrwt>
<rscale>  0 0.45171877E+04</rscale>
<asrwt>0</asrwt>
<pdfrwt beam="1">  1        2 0.38643807E+00 0.45171877E+04</pdfrwt>
<pdfrwt beam="2">  1       -2 0.31244218E+00 0.45171877E+04</pdfrwt>
<totfact> 0.69110974E-02</totfact>
</mgrwt>
</event>
<event>
12    1  0.1442183E-007  0.1472544E+04  0.7818608E-02  0.8902919E-01
          1   -1    0    0  501    0  0.00000000000E+00  0.00000000000E+00  0.38038068442E+03  0.38038068442E+03  0.00000000000E+00 0. -1.
         -1   -1    0    0    0  501 -0.00000000000E+00 -0.00000000000E+00 -0.14251426357E+04  0.14251426357E+04  0.00000000000E+00 0.  1.
         23    2    1    2    0    0  0.19793078579E+03 -0.24501528633E+03 -0.72769778186E+03  0.79833986825E+03  0.92700577235E+02 0.  0.
        254    2    1    2    0    0 -0.19793078579E+03  0.24501528633E+03 -0.31706416944E+03  0.10071834519E+04  0.90259610664E+03 0.  0.
        -24    2    4    4    0    0 -0.50184967619E+03  0.15419568720E+03 -0.40508430820E+03  0.66864183423E+03  0.85785769726E+02 0.  0.
         24    2    4    4    0    0  0.30391889040E+03  0.90819599128E+02  0.88020138759E+02  0.33854161766E+03  0.79044231487E+02 0.  0.
         11    1    3    3    0    0  0.19749101625E+03 -0.22641137108E+03 -0.71568747755E+03  0.77619158458E+03  0.00000000000E+00 0.  1.
        -11    1    3    3    0    0  0.43976954255E+00 -0.18603915251E+02 -0.12010304304E+02  0.22148283667E+02  0.00000000000E+00 0. -1.
          4    1    6    6  502    0  0.17141202981E+03  0.10031066884E+02  0.46566821682E+02  0.17790777147E+03  0.00000000000E+00 0. -1.
          1    1    5    5  503    0 -0.33294158439E+03  0.13023056538E+03 -0.31083457554E+03  0.47373856939E+03  0.00000000000E+00 0. -1.
         -2    1    5    5    0  503 -0.16890809180E+03  0.23965121825E+02 -0.94249732664E+02  0.19490326484E+03  0.00000000000E+00 0.  1.
         -3    1    6    6    0  502  0.13250686059E+03  0.80788532244E+02  0.41453317077E+02  0.16063384619E+03  0.00000000000E+00 0.  1.
<mgrwt>
<rscale>  0 0.14725444E+04</rscale>
<asrwt>0</asrwt>
<pdfrwt beam="1">  1        1 0.58520107E-01 0.14725444E+04</pdfrwt>
<pdfrwt beam="2">  1       -1 0.21925271E+00 0.14725444E+04</pdfrwt>
<totfact> 0.69241936E+00</totfact>
</mgrwt>
</event>
<event>
12    1  0.1442183E-007  0.2166399E+04  0.7818608E-02  0.8532545E-01
          2   -1    0    0  501    0  0.00000000000E+00  0.00000000000E+00  0.12103778542E+04  0.12103778542E+04  0.00000000000E+00 0. -1.
         -2   -1    0    0    0  501 -0.00000000000E+00 -0.00000000000E+00 -0.96938379617E+03  0.96938379617E+03  0.00000000000E+00 0.  1.
         23    2    1    2    0    0 -0.10350401840E+03  0.58145226676E+03 -0.57469500408E+03  0.82911636269E+03  0.91431804239E+02 0.  0.
        254    2    1    2    0    0  0.10350401840E+03 -0.58145226676E+03  0.81568906216E+03  0.13506452877E+04  0.90005234669E+03 0.  0.
        -24    2    4    4    0    0  0.21593036811E+03 -0.25268448646E+03 -0.10976299638E+03  0.35891863687E+03  0.79368123007E+02 0.  0.
         24    2    4    4    0    0 -0.11242634970E+03 -0.32876778030E+03  0.92545205853E+03  0.99172665086E+03  0.79575749511E+02 0.  0.
         11    1    3    3    0    0 -0.36942691374E+02  0.43622628716E+03 -0.42729404159E+03  0.61175022193E+03  0.00000000000E+00 0.  1.
        -11    1    3    3    0    0 -0.66561327030E+02  0.14522597959E+03 -0.14740096249E+03  0.21736614076E+03  0.00000000000E+00 0. -1.
          4    1    6    6  502    0 -0.11680032352E+03 -0.33097770317E+03  0.90453821984E+03  0.97024633301E+03  0.00000000000E+00 0. -1.
          1    1    5    5  503    0  0.12401415202E+03 -0.12634178875E+03 -0.18558403515E+02  0.17800610054E+03  0.00000000000E+00 0. -1.
         -2    1    5    5    0  503  0.91916216084E+02 -0.12634269771E+03 -0.91204592861E+02  0.18091253633E+03  0.00000000000E+00 0.  1.
         -3    1    6    6    0  502  0.43739738133E+01  0.22099228693E+01  0.20913838692E+02  0.21480317848E+02  0.00000000000E+00 0.  1.
<mgrwt>
<rscale>  0 0.21663986E+04</rscale>
<asrwt>0</asrwt>
<pdfrwt beam="1">  1        2 0.18621198E+00 0.21663986E+04</pdfrwt>
<pdfrwt beam="2">  1       -2 0.14913597E+00 0.21663986E+04</pdfrwt>
<totfact> 0.52073745E+00</totfact>
</mgrwt>
</event>
<event>
12    1  0.1442183E-007  0.1591940E+04  0.7818608E-02  0.8825515E-01
         -2   -1    0    0    0  501 -0.00000000000E+00  0.00000000000E+00  0.78689964698E+03  0.78689964698E+03  0.00000000000E+00 0. -1.
          2   -1    0    0  501    0  0.00000000000E+00 -0.00000000000E+00 -0.80514533317E+03  0.80514533317E+03  0.00000000000E+00 0.  1.
         23    2    1    2    0    0 -0.15277579285E+03  0.42737802658E+03  0.28131647176E+03  0.54172111409E+03  0.91270957465E+02 0.  0.
        254    2    1    2    0    0  0.15277579285E+03 -0.42737802658E+03 -0.29956215795E+03  0.10503238661E+04  0.89858239280E+03 0.  0.
        -24    2    4    4    0    0  0.40497648460E+03 -0.20893555152E+02 -0.37660590210E+03  0.55926158926E+03  0.80616536797E+02 0.  0.
         24    2    4    4    0    0 -0.25220069175E+03 -0.40648447143E+03  0.77043744144E+02  0.49106227680E+03  0.79822344939E+02 0.  0.
         13    1    3    3    0    0 -0.33782181390E+01  0.43178673445E+02  0.11954339384E+01  0.43327119227E+02  0.00000000000E+00 0.  1.
        -13    1    3    3    0    0 -0.14939757471E+03  0.38419935314E+03  0.28012103782E+03  0.49839399486E+03  0.00000000000E+00 0. -1.
          2    1    6    6  502    0 -0.19450438898E+03 -0.24577558178E+03  0.63310564907E+02  0.31975900544E+03  0.00000000000E+00 0. -1.
          1    1    5    5  503    0  0.32970158635E+03 -0.44284785706E+02 -0.32484452282E+03  0.46496047391E+03  0.00000000000E+00 0. -1.
         -2    1    5    5    0  503  0.75274898248E+02  0.23391230553E+02 -0.51761379274E+02  0.94301115355E+02  0.00000000000E+00 0.  1.
         -1    1    6    6    0  502 -0.57696302766E+02 -0.16070888965E+03  0.13733179238E+02  0.17130327136E+03  0.00000000000E+00 0.  1.
<mgrwt>
<rscale>  0 0.15919404E+04</rscale>
<asrwt>0</asrwt>
<pdfrwt beam="1">  1        2 0.12386851E+00 0.15919404E+04</pdfrwt>
<pdfrwt beam="2">  1       -2 0.12106148E+00 0.15919404E+04</pdfrwt>
<totfact> 0.17022299E+01</totfact>
</mgrwt>
</event>
<event>
12    1  0.1442183E-007  0.2046049E+04  0.7818608E-02  0.8585389E-01
         -1   -1    0    0    0  501 -0.00000000000E+00  0.00000000000E+00  0.60917110688E+03  0.60917110688E+03  0.00000000000E+00 0.  1.
          1   -1    0    0  501    0  0.00000000000E+00 -0.00000000000E+00 -0.17180372251E+04  0.17180372251E+04  0.00000000000E+00 0. -1.
         23    2    1    2    0    0  0.37839663519E+03 -0.67298561967E+03 -0.75791445155E+03  0.10855740662E+04  0.89123956101E+02 0.  0.
        254    2    1    2    0    0 -0.37839663519E+03  0.67298561967E+03 -0.35095166670E+03  0.12416342658E+04  0.90685992294E+03 0.  0.
        -24    2    4    4    0    0 -0.51733471464E+03  0.58086270826E+03  0.67447585296E+02  0.78485913301E+03  0.80112352923E+02 0.  0.
         24    2    4    4    0    0  0.13893807945E+03  0.92122911411E+02 -0.41839925200E+03  0.45677513279E+03  0.76125995115E+02 0.  0.
         13    1    3    3    0    0  0.29917527685E+03 -0.50932291463E+03 -0.62769162401E+03  0.86192369297E+03  0.00000000000E+00 0. -1.
        -13    1    3    3    0    0  0.79221358335E+02 -0.16366270504E+03 -0.13022282753E+03  0.22365037324E+03  0.00000000000E+00 0.  1.
          4    1    6    6  502    0  0.13517080291E+03  0.10412663270E+03 -0.39241322293E+03  0.42790377320E+03  0.00000000000E+00 0. -1.
          3    1    5    5  503    0 -0.41572779466E+03  0.48325107379E+03  0.26010285189E+02  0.63799508972E+03  0.00000000000E+00 0. -1.
         -4    1    5    5    0  503 -0.10160691998E+03  0.97611634472E+02  0.41437300107E+02  0.14686404329E+03  0.00000000000E+00 0.  1.
         -3    1    6    6    0  502  0.37672765439E+01 -0.12003721286E+02 -0.25986029073E+02  0.28871359584E+02  0.00000000000E+00 0.  1.
<mgrwt>
<rscale>  0 0.20460485E+04</rscale>
<asrwt>0</asrwt>
<pdfrwt beam="1">  1        1 0.26431342E+00 0.20460485E+04</pdfrwt>
<pdfrwt beam="2">  1       -1 0.93718631E-01 0.20460485E+04</pdfrwt>
<totfact> 0.47248350E+00</totfact>
</mgrwt>
</event>
<event>
12    1  0.1442183E-007  0.2127016E+04  0.7818608E-02  0.8549435E-01
          1   -1    0    0  501    0  0.00000000000E+00  0.00000000000E+00  0.55755737726E+03  0.55755737726E+03  0.00000000000E+00 0. -1.
         -1   -1    0    0    0  501 -0.00000000000E+00 -0.00000000000E+00 -0.20285789946E+04  0.20285789946E+04  0.00000000000E+00 0.  1.
         23    2    1    2    0    0  0.28782841523E+03  0.81077908565E+03 -0.77795154909E+03  0.11636141887E+04  0.92636089521E+02 0.  0.
        254    2    1    2    0    0 -0.28782841523E+03 -0.81077908565E+03 -0.69307006824E+03  0.14225221831E+04  0.89611122061E+03 0.  0.
        -24    2    4    4    0    0 -0.43908663772E+03 -0.54218057901E+03 -0.82013622630E+03  0.10798888039E+04  0.82337983161E+02 0.  0.
         24    2    4    4    0    0  0.15125822249E+03 -0.26859850664E+03  0.12706615806E+03  0.34263337922E+03  0.78915248142E+02 0.  0.
         11    1    3    3    0    0  0.63673291870E+02  0.21493029402E+03 -0.15219113475E+03  0.27094549430E+03  0.00000000000E+00 0. -1.
        -11    1    3    3    0    0  0.22415512336E+03  0.59584879164E+03 -0.62576041434E+03  0.89266869441E+03  0.00000000000E+00 0.  1.
          4    1    6    6  502    0  0.10628725157E+03 -0.16673842771E+03  0.11948241624E+03  0.23102971868E+03  0.00000000000E+00 0. -1.
          1    1    5    5  503    0 -0.33170585059E+03 -0.44023077588E+03 -0.60185870319E+03  0.81612854745E+03  0.00000000000E+00 0. -1.
         -2    1    5    5    0  503 -0.10738078713E+03 -0.10194980313E+03 -0.21827752311E+03  0.26376025648E+03  0.00000000000E+00 0.  1.
         -3    1    6    6    0  502  0.44970970916E+02 -0.10186007894E+03  0.75837418156E+01  0.11160366054E+03  0.00000000000E+00 0.  1.
<mgrwt>
<rscale>  0 0.21270159E+04</rscale>
<asrwt>0</asrwt>
<pdfrwt beam="1">  1        1 0.85778059E-01 0.21270159E+04</pdfrwt>
<pdfrwt beam="2">  1       -1 0.31208907E+00 0.21270159E+04</pdfrwt>
<totfact> 0.96274140E-01</totfact>
</mgrwt>
</event>
<event>
12    1  0.1442183E-007  0.1742184E+04  0.7818608E-02  0.8737664E-01
         -2   -1    0    0    0  501 -0.00000000000E+00  0.00000000000E+00  0.55222347384E+03  0.55222347384E+03  0.00000000000E+00 0.  1.
          2   -1    0    0  501    0  0.00000000000E+00 -0.00000000000E+00 -0.13740836984E+04  0.13740836984E+04  0.00000000000E+00 0. -1.
         23    2    1    2    0    0  0.51997258942E+03  0.36621575159E+03 -0.37366783624E+03  0.74283634190E+03  0.87708087128E+02 0.  0.
        254    2    1    2    0    0 -0.51997258942E+03 -0.36621575159E+03 -0.44819238832E+03  0.11834708303E+04  0.89176303964E+03 0.  0.
        -24    2    4    4    0    0 -0.11488849347E+03  0.20135790636E+03  0.12678909836E+03  0.27609267817E+03  0.80045731255E+02 0.  0.
         24    2    4    4    0    0 -0.40508409595E+03 -0.56757365795E+03 -0.57498148668E+03  0.90737815217E+03  0.80612772108E+02 0.  0.
         13    1    3    3    0    0  0.89313538046E+02  0.37664076430E+02 -0.85640861820E+02  0.12934391344E+03  0.00000000000E+00 0. -1.
        -13    1    3    3    0    0  0.43065905137E+03  0.32855167516E+03 -0.28802697442E+03  0.61349242846E+03  0.00000000000E+00 0.  1.
          2    1    6    6  502    0 -0.26128490449E+03 -0.34959502871E+03 -0.40774964475E+03  0.59728239402E+03  0.00000000000E+00 0. -1.
          3    1    5    5  503    0 -0.85183789780E+02  0.12416273406E+03  0.12101750610E+03  0.19317841327E+03  0.00000000000E+00 0. -1.
         -4    1    5    5    0  503 -0.29704703689E+02  0.77195172295E+02  0.57715922646E+01  0.82914264901E+02  0.00000000000E+00 0.  1.
         -1    1    6    6    0  502 -0.14379919146E+03 -0.21797862923E+03 -0.16723184193E+03  0.31009575815E+03  0.00000000000E+00 0.  1.
<mgrwt>
<rscale>  0 0.17421840E+04</rscale>
<asrwt>0</asrwt>
<pdfrwt beam="1">  1        2 0.21139749E+00 0.17421840E+04</pdfrwt>
<pdfrwt beam="2">  1       -2 0.84957458E-01 0.17421840E+04</pdfrwt>
<totfact> 0.17133434E+01</totfact>
</mgrwt>
</event>
<event>
12    1  0.1442183E-007  0.1727572E+04  0.7818608E-02  0.8745793E-01
          1   -1    0    0  501    0  0.00000000000E+00  0.00000000000E+00  0.56200105724E+03  0.56200105724E+03  0.00000000000E+00 0. -1.
         -1   -1    0    0    0  501 -0.00000000000E+00 -0.00000000000E+00 -0.13276241808E+04  0.13276241808E+04  0.00000000000E+00 0.  1.
         23    2    1    2    0    0 -0.35957742513E+02 -0.58469758960E+03 -0.16845832162E+03  0.61601881050E+03  0.89088373128E+02 0.  0.
        254    2    1    2    0    0  0.35957742513E+02  0.58469758960E+03 -0.59716480197E+03  0.12736064276E+04  0.96036623281E+03 0.  0.
        -24    2    4    4    0    0 -0.52187962572E+01 -0.73515939401E+02 -0.60003860251E+03  0.60970884428E+03  0.79162624389E+02 0.  0.
         24    2    4    4    0    0  0.41176538771E+02  0.65821352900E+03  0.28738005459E+01  0.66389758330E+03  0.76231130602E+02 0.  0.
         11    1    3    3    0    0 -0.13001708620E+02 -0.53496389865E+03 -0.13520164138E+03  0.55193740689E+03  0.00000000000E+00 0. -1.
        -11    1    3    3    0    0 -0.22956033894E+02 -0.49733690949E+02 -0.33256680245E+02  0.64081403609E+02  0.00000000000E+00 0.  1.
          4    1    6    6  502    0 -0.16962686247E+02  0.82472386611E+02 -0.11926109781E+02  0.85039163757E+02  0.00000000000E+00 0. -1.
          3    1    5    5  503    0  0.57077828057E+01  0.87407206161E+01 -0.12262198682E+02  0.16104052222E+02  0.00000000000E+00 0. -1.
         -4    1    5    5    0  503 -0.10926579063E+02 -0.82256660017E+02 -0.58777640383E+03  0.59360479205E+03  0.00000000000E+00 0.  1.
         -3    1    6    6    0  502  0.58139225018E+02  0.57574114239E+03  0.14799910327E+02  0.57885841954E+03  0.00000000000E+00 0.  1.
<mgrwt>
<rscale>  0 0.17275719E+04</rscale>
<asrwt>0</asrwt>
<pdfrwt beam="1">  1        1 0.86461702E-01 0.17275719E+04</pdfrwt>
<pdfrwt beam="2">  1       -1 0.20424987E+00 0.17275719E+04</pdfrwt>
<totfact> 0.50248068E+00</totfact>
</mgrwt>
</event>
<event>
12    1  0.1442183E-007  0.1087953E+04  0.7818608E-02  0.9217014E-01
         -1   -1    0    0    0  501 -0.00000000000E+00  0.00000000000E+00  0.14114147073E+03  0.14114147073E+03  0.00000000000E+00 0.  1.
          1   -1    0    0  501    0  0.00000000000E+00 -0.00000000000E+00 -0.20965521327E+04  0.20965521327E+04  0.00000000000E+00 0. -1.
         23    2    1    2    0    0  0.82377631583E+02 -0.55300047384E+02 -0.54071485807E+03  0.55772523202E+03  0.94025035312E+02 0.  0.
        254    2    1    2    0    0 -0.82377631583E+02  0.55300047384E+02 -0.14146958039E+04  0.16799683714E+04  0.90060276590E+03 0.  0.
        -24    2    4    4    0    0 -0.34863217287E+03  0.26248178189E+03 -0.36576959999E+03  0.57513050816E+03  0.80911206641E+02 0.  0.
         24    2    4    4    0    0  0.26625454129E+03 -0.20718173451E+03 -0.10489262039E+04  0.11048378632E+04  0.81269741938E+02 0.  0.
         13    1    3    3    0    0  0.25259514100E+02 -0.66456934690E+02 -0.38458905552E+03  0.39110524012E+03  0.00000000000E+00 0. -1.
        -13    1    3    3    0    0  0.57118117483E+02  0.11156887306E+02 -0.15612580255E+03  0.16661999190E+03  0.00000000000E+00 0.  1.
          4    1    6    6  502    0  0.26650944025E+03 -0.21072827378E+03 -0.10470981420E+04  0.11008397731E+04  0.00000000000E+00 0. -1.
          1    1    5    5  503    0 -0.22920203313E+03  0.18314676968E+03 -0.29181399877E+03  0.41380154798E+03  0.00000000000E+00 0. -1.
         -2    1    5    5    0  503 -0.11943013974E+03  0.79335012213E+02 -0.73955601213E+02  0.16132896018E+03  0.00000000000E+00 0.  1.
         -3    1    6    6    0  502 -0.25489895692E+00  0.35465392758E+01 -0.18280619078E+01  0.39980901256E+01  0.00000000000E+00 0.  1.
<mgrwt>
<rscale>  0 0.10879530E+04</rscale>
<asrwt>0</asrwt>
<pdfrwt beam="1">  1        1 0.32254645E+00 0.10879530E+04</pdfrwt>
<pdfrwt beam="2">  1       -1 0.21714075E-01 0.10879530E+04</pdfrwt>
<totfact> 0.45694284E+01</totfact>
</mgrwt>
</event>
<event>
12    1  0.1442183E-007  0.1223190E+04  0.7818608E-02  0.9092797E-01
         -1   -1    0    0    0  501 -0.00000000000E+00  0.00000000000E+00  0.13165405912E+03  0.13165405912E+03  0.00000000000E+00 0.  1.
          1   -1    0    0  501    0  0.00000000000E+00 -0.00000000000E+00 -0.28411473597E+04  0.28411473597E+04  0.00000000000E+00 0. -1.
         23    2    1    2    0    0  0.13269559330E+03  0.78500272308E+02 -0.15082932227E+04  0.15188735281E+04  0.90873183275E+02 0.  0.
        254    2    1    2    0    0 -0.13269559330E+03 -0.78500272308E+02 -0.12012000778E+04  0.14539278907E+04  0.80452114396E+03 0.  0.
        -24    2    4    4    0    0  0.41503081829E+02  0.19747031724E+03 -0.12191441295E+02  0.21817877515E+03  0.82075055246E+02 0.  0.
         24    2    4    4    0    0 -0.17419867513E+03 -0.27597058955E+03 -0.11890086365E+04  0.12357491155E+04  0.82640148016E+02 0.  0.
         11    1    3    3    0    0  0.74613755276E+02  0.79607373247E+02 -0.12145564453E+04  0.12194473770E+04  0.00000000000E+00 0. -1.
        -11    1    3    3    0    0  0.58081838022E+02 -0.11071009397E+01 -0.29373677743E+03  0.29942615115E+03  0.00000000000E+00 0.  1.
          2    1    6    6  502    0 -0.83595258514E+02 -0.19413855839E+03 -0.83252429283E+03  0.85893809163E+03  0.00000000000E+00 0. -1.
          1    1    5    5  503    0 -0.94551164632E+01  0.13461730263E+03  0.66005158905E+01  0.13511026684E+03  0.00000000000E+00 0. -1.
         -2    1    5    5    0  503  0.50958198292E+02  0.62853014608E+02 -0.18791957185E+02  0.83068508313E+02  0.00000000000E+00 0.  1.
         -1    1    6    6    0  502 -0.90603416612E+02 -0.81832031157E+02 -0.35648434370E+03  0.37681102390E+03  0.00000000000E+00 0.  1.
<mgrwt>
<rscale>  0 0.12231902E+04</rscale>
<asrwt>0</asrwt>
<pdfrwt beam="1">  1        1 0.43709958E+00 0.12231902E+04</pdfrwt>
<pdfrwt beam="2">  1       -1 0.20254471E-01 0.12231902E+04</pdfrwt>
<totfact> 0.15565396E+01</totfact>
</mgrwt>
</event>
<event>
12    1  0.1442183E-007  0.2143023E+04  0.7818608E-02  0.8542525E-01
          1   -1    0    0  501    0  0.00000000000E+00  0.00000000000E+00  0.21161591967E+04  0.21161591967E+04  0.00000000000E+00 0. -1.
         -1   -1    0    0    0  501 -0.00000000000E+00 -0.00000000000E+00 -0.54255684186E+03  0.54255684186E+03  0.00000000000E+00 0.  1.
         23    2    1    2    0    0  0.48890514533E+03 -0.14183313443E+02  0.15637615709E+04  0.16410372767E+04  0.91780637420E+02 0.  0.
        254    2    1    2    0    0 -0.48890514533E+03  0.14183313443E+02  0.98407839180E+01  0.10176787618E+04  0.89238098015E+03 0.  0.
        -24    2    4    4    0    0 -0.55285304928E+03 -0.12303695764E+02  0.35148444375E+03  0.65995883910E+03  0.78781216548E+02 0.  0.
         24    2    4    4    0    0  0.63947903951E+02  0.26487009207E+02 -0.34164365983E+03  0.35771992273E+03  0.80325940600E+02 0.  0.
         11    1    3    3    0    0  0.41585783857E+02 -0.42586977698E+01  0.24240302120E+03  0.24598117532E+03  0.00000000000E+00 0.  1.
        -11    1    3    3    0    0  0.44731936147E+03 -0.99246156732E+01  0.13213585497E+04  0.13950561014E+04  0.00000000000E+00 0. -1.
          2    1    6    6  502    0  0.50780687498E+02 -0.21735318865E+02 -0.20124236449E+03  0.20868538899E+03  0.00000000000E+00 0. -1.
          1    1    5    5  503    0 -0.67801422651E+02  0.75592820807E+01  0.16640878572E+02  0.70221752319E+02  0.00000000000E+00 0. -1.
         -2    1    5    5    0  503 -0.48505162663E+03 -0.19862977845E+02  0.33484356518E+03  0.58973708678E+03  0.00000000000E+00 0.  1.
         -1    1    6    6    0  502  0.13167216453E+02  0.48222328072E+02 -0.14040129534E+03  0.14903453374E+03  0.00000000000E+00 0.  1.
<mgrwt>
<rscale>  0 0.21430228E+04</rscale>
<asrwt>0</asrwt>
<pdfrwt beam="1">  1        1 0.32556295E+00 0.21430228E+04</pdfrwt>
<pdfrwt beam="2">  1       -1 0.83470284E-01 0.21430228E+04</pdfrwt>
<totfact> 0.32415943E+00</totfact>
</mgrwt>
</event>
<event>
12    1  0.1442183E-007  0.1223867E+04  0.7818608E-02  0.9092218E-01
         -2   -1    0    0    0  501 -0.00000000000E+00  0.00000000000E+00  0.15857600610E+03  0.15857600610E+03  0.00000000000E+00 0.  1.
          2   -1    0    0  501    0  0.00000000000E+00 -0.00000000000E+00 -0.23614095346E+04  0.23614095346E+04  0.00000000000E+00 0. -1.
         23    2    1    2    0    0 -0.76821884920E+02 -0.51380976054E+02 -0.10892541897E+04  0.10972175451E+04  0.94180915089E+02 0.  0.
        254    2    1    2    0    0  0.76821884920E+02  0.51380976054E+02 -0.11135793388E+04  0.14227679956E+04  0.88072028410E+03 0.  0.
        -24    2    4    4    0    0  0.59292121794E+02 -0.28264436979E+03 -0.48493844022E+02  0.30364309496E+03  0.80275031763E+02 0.  0.
         24    2    4    4    0    0  0.17529763125E+02  0.33402534585E+03 -0.10650854948E+04  0.11191249006E+04  0.78442385325E+02 0.  0.
         13    1    3    3    0    0 -0.82239573326E+02 -0.28806603841E+02 -0.50215272141E+03  0.50965726078E+03  0.00000000000E+00 0.  1.
        -13    1    3    3    0    0  0.54176884065E+01 -0.22574372212E+02 -0.58710146828E+03  0.58756028430E+03  0.00000000000E+00 0. -1.
          4    1    6    6  502    0  0.42940192696E+02  0.12107443181E+03 -0.36656807948E+03  0.38842635735E+03  0.00000000000E+00 0. -1.
          3    1    5    5  503    0  0.58810221777E+02 -0.98453761891E+02 -0.29905042373E+02  0.11851623085E+03  0.00000000000E+00 0. -1.
         -4    1    5    5    0  503  0.48190001738E+00 -0.18419060790E+03 -0.18588801650E+02  0.18512686410E+03  0.00000000000E+00 0.  1.
         -1    1    6    6    0  502 -0.25410429571E+02  0.21295091404E+03 -0.69851741528E+03  0.73069854330E+03  0.00000000000E+00 0.  1.
<mgrwt>
<rscale>  0 0.12238675E+04</rscale>
<asrwt>0</asrwt>
<pdfrwt beam="1">  1        2 0.36329375E+00 0.12238675E+04</pdfrwt>
<pdfrwt beam="2">  1       -2 0.24396310E-01 0.12238675E+04</pdfrwt>
<totfact> 0.62067072E+01</totfact>
</mgrwt>
</event>
<event>
12    1  0.1442183E-007  0.2415294E+04  0.7818608E-02  0.8433800E-01
         -1   -1    0    0    0  501 -0.00000000000E+00  0.00000000000E+00  0.51240517734E+03  0.51240517734E+03  0.00000000000E+00 0.  1.
          1   -1    0    0  501    0  0.00000000000E+00 -0.00000000000E+00 -0.28462064559E+04  0.28462064559E+04  0.00000000000E+00 0. -1.
         23    2    1    2    0    0 -0.27798467147E+03  0.10049484621E+04 -0.11014933272E+04  0.15195616023E+04  0.92644612299E+02 0.  0.
        254    2    1    2    0    0  0.27798467147E+03 -0.10049484621E+04 -0.12323079514E+04  0.18390500310E+04  0.88109320747E+03 0.  0.
        -24    2    4    4    0    0  0.15718035594E+03 -0.68775730990E+03 -0.13024310640E+04  0.14833712165E+04  0.79672502398E+02 0.  0.
         24    2    4    4    0    0  0.12080431553E+03 -0.31719115223E+03  0.70123112642E+02  0.35567881451E+03  0.79914069253E+02 0.  0.
         13    1    3    3    0    0 -0.16971073892E+03  0.74492748425E+03 -0.77311080817E+03  0.10869310067E+04  0.00000000000E+00 0. -1.
        -13    1    3    3    0    0 -0.10827393255E+03  0.26002097787E+03 -0.32838251901E+03  0.43263059554E+03  0.00000000000E+00 0.  1.
          2    1    6    6  502    0  0.36423490721E+02 -0.12634001600E+03 -0.10655649574E+02  0.13191669033E+03  0.00000000000E+00 0. -1.
          3    1    5    5  503    0 -0.22750943155E+01 -0.54493259337E+02 -0.13691214685E+03  0.14737580304E+03  0.00000000000E+00 0. -1.
         -4    1    5    5    0  503  0.15945545026E+03 -0.63326405056E+03 -0.11655189172E+04  0.13359954134E+04  0.00000000000E+00 0.  1.
         -3    1    6    6    0  502  0.84380824805E+02 -0.19085113623E+03  0.80778762216E+02  0.22376212418E+03  0.00000000000E+00 0.  1.
<mgrwt>
<rscale>  0 0.24152937E+04</rscale>
<asrwt>0</asrwt>
<pdfrwt beam="1">  1        1 0.43787791E+00 0.24152937E+04</pdfrwt>
<pdfrwt beam="2">  1       -1 0.78831567E-01 0.24152937E+04</pdfrwt>
<totfact> 0.11124704E+00</totfact>
</mgrwt>
</event>
<event>
12    1  0.1442183E-007  0.1760657E+04  0.7818608E-02  0.8727506E-01
          2   -1    0    0  501    0  0.00000000000E+00  0.00000000000E+00  0.25047451560E+04  0.25047451560E+04  0.00000000000E+00 0. -1.
         -2   -1    0    0    0  501 -0.00000000000E+00 -0.00000000000E+00 -0.30940397560E+03  0.30940397560E+03  0.00000000000E+00 0.  1.
         23    2    1    2    0    0 -0.36995575999E+03  0.36673403995E+03  0.14482137516E+04  0.15413119239E+04  0.83416160841E+02 0.  0.
        254    2    1    2    0    0  0.36995575999E+03 -0.36673403995E+03  0.74712742881E+03  0.12728372078E+04  0.88913106018E+03 0.  0.
        -24    2    4    4    0    0 -0.33280653514E+02 -0.54235717870E+03  0.24719120447E+03  0.60236737262E+03  0.80523591904E+02 0.  0.
         24    2    4    4    0    0  0.40323641350E+03  0.17562313875E+03  0.49993622434E+03  0.67046983514E+03  0.78424992063E+02 0.  0.
         11    1    3    3    0    0 -0.15779537577E+03  0.12575458041E+03  0.66201320826E+03  0.69208025764E+03  0.00000000000E+00 0.  1.
        -11    1    3    3    0    0 -0.21216038422E+03  0.24097945953E+03  0.78620054337E+03  0.84923166624E+03  0.00000000000E+00 0. -1.
          4    1    6    6  502    0  0.32125288569E+02  0.54487535421E+01  0.13142915487E+02  0.35134873108E+02  0.00000000000E+00 0. -1.
          3    1    5    5  503    0  0.14126762767E+02 -0.36391385860E+03  0.15193921526E+03  0.39461169147E+03  0.00000000000E+00 0. -1.
         -4    1    5    5    0  503 -0.47407416281E+02 -0.17844332010E+03  0.95251989203E+02  0.20775568116E+03  0.00000000000E+00 0.  1.
         -3    1    6    6    0  502  0.37111112494E+03  0.17017438521E+03  0.48679330886E+03  0.63533496203E+03  0.00000000000E+00 0.  1.
<mgrwt>
<rscale>  0 0.17606568E+04</rscale>
<asrwt>0</asrwt>
<pdfrwt beam="1">  1        2 0.38534540E+00 0.17606568E+04</pdfrwt>
<pdfrwt beam="2">  1       -2 0.47600613E-01 0.17606568E+04</pdfrwt>
<totfact> 0.13719363E+01</totfact>
</mgrwt>
</event>
<event>
12    1  0.1442183E-007  0.1589030E+04  0.7818608E-02  0.8827316E-01
         -1   -1    0    0    0  501 -0.00000000000E+00  0.00000000000E+00  0.35417337614E+03  0.35417337614E+03  0.00000000000E+00 0.  1.
          1   -1    0    0  501    0  0.00000000000E+00 -0.00000000000E+00 -0.17823307618E+04  0.17823307618E+04  0.00000000000E+00 0. -1.
         23    2    1    2    0    0  0.40469157387E+03  0.31710137941E+03 -0.63160369450E+03  0.81938095092E+03  0.90185148639E+02 0.  0.
        254    2    1    2    0    0 -0.40469157387E+03 -0.31710137941E+03 -0.79655369114E+03  0.13171231870E+04  0.91432333016E+03 0.  0.
        -24    2    4    4    0    0 -0.43322994165E+03 -0.41998574988E+03 -0.11085818627E+03  0.61862323866E+03  0.79554770437E+02 0.  0.
         24    2    4    4    0    0  0.28538367772E+02  0.10288437047E+03 -0.68569550487E+03  0.69849994834E+03  0.79524966604E+02 0.  0.
         13    1    3    3    0    0  0.36193785324E+03  0.28825524679E+03 -0.60407683259E+03  0.76091978328E+03  0.00000000000E+00 0. -1.
        -13    1    3    3    0    0  0.42753720637E+02  0.28846132624E+02 -0.27526861905E+02  0.58461167641E+02  0.00000000000E+00 0.  1.
          4    1    6    6  502    0  0.22750056088E+02  0.11629126681E+03 -0.60552917520E+03  0.61701442918E+03  0.00000000000E+00 0. -1.
          3    1    5    5  503    0 -0.40541346807E+03 -0.40473580403E+03 -0.12063901652E+03  0.58542712908E+03  0.00000000000E+00 0. -1.
         -4    1    5    5    0  503 -0.27816473574E+02 -0.15249945856E+02  0.97808302481E+01  0.33196109577E+02  0.00000000000E+00 0.  1.
         -3    1    6    6    0  502  0.57883116841E+01 -0.13406896341E+02 -0.80166329667E+02  0.81485519167E+02  0.00000000000E+00 0.  1.
<mgrwt>
<rscale>  0 0.15890300E+04</rscale>
<asrwt>0</asrwt>
<pdfrwt beam="1">  1        1 0.27420473E+00 0.15890300E+04</pdfrwt>
<pdfrwt beam="2">  1       -1 0.54488213E-01 0.15890300E+04</pdfrwt>
<totfact> 0.13686950E+01</totfact>
</mgrwt>
</event>
<event>
12    1  0.1472268E-007  0.2470895E+04  0.7818608E-02  0.8413428E-01
          2   -1    0    0  501    0  0.00000000000E+00  0.00000000000E+00  0.23183915712E+04  0.23183915712E+04  0.00000000000E+00 0.  1.
         -2   -1    0    0    0  501 -0.00000000000E+00 -0.00000000000E+00 -0.65835748989E+03  0.65835748989E+03  0.00000000000E+00 0. -1.
         23    2    1    2    0    0  0.10178389684E+03 -0.31228389762E+03  0.19480289826E+04  0.19776442095E+04  0.91534189174E+02 0.  0.
        254    2    1    2    0    0 -0.10178389684E+03  0.31228389762E+03 -0.28799490130E+03  0.99910485162E+03  0.89854785459E+03 0.  0.
        -24    2    4    4    0    0  0.25417953130E+02  0.60942220283E+03 -0.24846788764E+03  0.66380332529E+03  0.82807426208E+02 0.  0.
         24    2    4    4    0    0 -0.12720184997E+03 -0.29713830521E+03 -0.39527013660E+02  0.33530152633E+03  0.79957774441E+02 0.  0.
         11    1    3    3    0    0  0.11482090948E+03 -0.30323225451E+03  0.18228561654E+04  0.18514692115E+04  0.00000000000E+00 0.  1.
        -11    1    3    3    0    0 -0.13037012647E+02 -0.90516431134E+01  0.12517281725E+03  0.12617499800E+03  0.00000000000E+00 0. -1.
          4    1    6    6  502    0 -0.86111234435E+02 -0.10176921931E+03 -0.14689947784E+02  0.13411902647E+03  0.00000000000E+00 0. -1.
          1    1    5    5  503    0  0.42881079062E+02  0.16303577380E+03 -0.76364552360E+02  0.18507024433E+03  0.00000000000E+00 0. -1.
         -2    1    5    5    0  503 -0.17463125932E+02  0.44638642903E+03 -0.17210333528E+03  0.47873308096E+03  0.00000000000E+00 0.  1.
         -3    1    6    6    0  502 -0.41090615534E+02 -0.19536908590E+03 -0.24837065877E+02  0.20118249986E+03  0.00000000000E+00 0.  1.
<mgrwt>
<rscale>  0 0.24708949E+04</rscale>
<asrwt>0</asrwt>
<pdfrwt beam="1">  1        2 0.35667562E+00 0.24708949E+04</pdfrwt>
<pdfrwt beam="2">  1       -2 0.10128577E+00 0.24708949E+04</pdfrwt>
<totfact> 0.31699171E+00</totfact>
</mgrwt>
</event>
<event>
12    1  0.1442183E-007  0.3441053E+04  0.7818608E-02  0.8127903E-01
          2   -1    0    0  501    0  0.00000000000E+00  0.00000000000E+00  0.25190364199E+04  0.25190364199E+04  0.00000000000E+00 0. -1.
         -2   -1    0    0    0  501 -0.00000000000E+00 -0.00000000000E+00 -0.11751367399E+04  0.11751367399E+04  0.00000000000E+00 0.  1.
         23    2    1    2    0    0 -0.10116325985E+04 -0.11156067715E+04  0.12140854406E+04  0.19365720386E+04  0.91262372099E+02 0.  0.
        254    2    1    2    0    0  0.10116325985E+04  0.11156067715E+04  0.12981423942E+03  0.17576011212E+04  0.89684501526E+03 0.  0.
        -24    2    4    4    0    0  0.36636472793E+03  0.99335958818E+03 -0.77293507390E+02  0.10643311004E+04  0.76420022067E+02 0.  0.
         24    2    4    4    0    0  0.64526787057E+03  0.12224718333E+03  0.20710774681E+03  0.69327002073E+03  0.80091848750E+02 0.  0.
         13    1    3    3    0    0 -0.52479520698E+03 -0.55429099871E+03  0.66983523395E+03  0.10155430868E+04  0.00000000000E+00 0. -1.
        -13    1    3    3    0    0 -0.48683739152E+03 -0.56131577279E+03  0.54425020669E+03  0.92102895179E+03  0.00000000000E+00 0.  1.
          4    1    6    6  502    0  0.22486668172E+03  0.81705297378E+02  0.73113355474E+02  0.25017262623E+03  0.00000000000E+00 0. -1.
          3    1    5    5  503    0  0.75935027554E+02  0.12922671925E+03 -0.10176696734E+02  0.15023061783E+03  0.00000000000E+00 0. -1.
         -4    1    5    5    0  503  0.29042970037E+03  0.86413286893E+03 -0.67116810656E+02  0.91410048260E+03  0.00000000000E+00 0.  1.
         -3    1    6    6    0  502  0.42040118885E+03  0.40541885947E+02  0.13399439134E+03  0.44309739450E+03  0.00000000000E+00 0.  1.
<mgrwt>
<rscale>  0 0.34410535E+04</rscale>
<asrwt>0</asrwt>
<pdfrwt beam="1">  1        2 0.38754406E+00 0.34410535E+04</pdfrwt>
<pdfrwt beam="2">  1       -2 0.18079027E+00 0.34410535E+04</pdfrwt>
<totfact> 0.50166161E-01</totfact>
</mgrwt>
</event>
<event>
12    1  0.1442183E-007  0.2282152E+04  0.7818608E-02  0.8484992E-01
          1   -1    0    0  501    0  0.00000000000E+00  0.00000000000E+00  0.43405574807E+04  0.43405574807E+04  0.00000000000E+00 0. -1.
         -1   -1    0    0    0  501 -0.00000000000E+00 -0.00000000000E+00 -0.29997399234E+03  0.29997399234E+03  0.00000000000E+00 0.  1.
         23    2    1    2    0    0  0.16417029509E+03 -0.37730592797E+03  0.34831327164E+04  0.35085446327E+04  0.91434517524E+02 0.  0.
        254    2    1    2    0    0 -0.16417029509E+03  0.37730592797E+03  0.55745077194E+03  0.11319868403E+04  0.89517104192E+03 0.  0.
        -24    2    4    4    0    0  0.19085621537E+03  0.34049898368E+03 -0.70472466295E+02  0.40534928532E+03  0.83522582410E+02 0.  0.
         24    2    4    4    0    0 -0.35502651045E+03  0.36806944290E+02  0.62792323824E+03  0.72663755493E+03  0.79473069891E+02 0.  0.
         11    1    3    3    0    0  0.11017327527E+03 -0.33385288690E+03  0.28342346135E+04  0.28559554873E+04  0.00000000000E+00 0. -1.
        -11    1    3    3    0    0  0.53997019812E+02 -0.43453041075E+02  0.64889810285E+03  0.65258914548E+03  0.00000000000E+00 0.  1.
          4    1    6    6  502    0 -0.13015269527E+02  0.15376114901E+02  0.60491184825E+02  0.63757396370E+02  0.00000000000E+00 0. -1.
          1    1    5    5  503    0 -0.67732909369E+01  0.19391863715E+01 -0.39500973511E-02  0.70454190438E+01  0.00000000000E+00 0. -1.
         -2    1    5    5    0  503  0.19762950630E+03  0.33855979731E+03 -0.70468516198E+02  0.39830386628E+03  0.00000000000E+00 0.  1.
         -3    1    6    6    0  502 -0.34201124093E+03  0.21430829389E+02  0.56743205341E+03  0.66288015856E+03  0.00000000000E+00 0.  1.
<mgrwt>
<rscale>  0 0.22821519E+04</rscale>
<asrwt>0</asrwt>
<pdfrwt beam="1">  1        1 0.66777803E+00 0.22821519E+04</pdfrwt>
<pdfrwt beam="2">  1       -1 0.46149848E-01 0.22821519E+04</pdfrwt>
<totfact> 0.19797390E-01</totfact>
</mgrwt>
</event>
<event>
12    1  0.1442183E-007  0.2165015E+04  0.7818608E-02  0.8533132E-01
          1   -1    0    0  501    0  0.00000000000E+00  0.00000000000E+00  0.80871306051E+03  0.80871306051E+03  0.00000000000E+00 0. -1.
         -1   -1    0    0    0  501 -0.00000000000E+00 -0.00000000000E+00 -0.14489964720E+04  0.14489964720E+04  0.00000000000E+00 0.  1.
         23    2    1    2    0    0  0.47352983809E+03  0.60542783371E+03  0.19563794098E+03  0.79862144727E+03  0.93534179310E+02 0.  0.
        254    2    1    2    0    0 -0.47352983809E+03 -0.60542783371E+03 -0.83592135251E+03  0.14590880853E+04  0.91618784297E+03 0.  0.
        -24    2    4    4    0    0 -0.24366038874E+03 -0.35849860147E+02  0.14703345971E+03  0.29723371557E+03  0.77932316046E+02 0.  0.
         24    2    4    4    0    0 -0.22986944936E+03 -0.56957797356E+03 -0.98295481222E+03  0.11618543697E+04  0.80289363138E+02 0.  0.
         11    1    3    3    0    0  0.83932044195E+02  0.57054322234E+02  0.20941572690E+02  0.10362592916E+03  0.00000000000E+00 0.  1.
        -11    1    3    3    0    0  0.38959779390E+03  0.54837351147E+03  0.17469636829E+03  0.69499551811E+03  0.00000000000E+00 0. -1.
          2    1    6    6  502    0 -0.14198218640E+03 -0.28987644885E+03 -0.57620169925E+03  0.66045112996E+03  0.00000000000E+00 0. -1.
          3    1    5    5  503    0 -0.14457954616E+03 -0.41598860961E+02  0.12493252103E+03  0.19555522293E+03  0.00000000000E+00 0. -1.
         -4    1    5    5    0  503 -0.99080842572E+02  0.57490008142E+01  0.22100938674E+02  0.10167849264E+03  0.00000000000E+00 0.  1.
         -1    1    6    6    0  502 -0.87887262956E+02 -0.27970152472E+03 -0.40675311297E+03  0.50140323975E+03  0.00000000000E+00 0.  1.
<mgrwt>
<rscale>  0 0.21650149E+04</rscale>
<asrwt>0</asrwt>
<pdfrwt beam="1">  1        1 0.12441739E+00 0.21650149E+04</pdfrwt>
<pdfrwt beam="2">  1       -1 0.22292253E+00 0.21650149E+04</pdfrwt>
<totfact> 0.20900973E+00</totfact>
</mgrwt>
</event>
<event>
12    1  0.1442183E-007  0.2488756E+04  0.7818608E-02  0.8407002E-01
         -1   -1    0    0    0  501 -0.00000000000E+00  0.00000000000E+00  0.91388740701E+03  0.91388740701E+03  0.00000000000E+00 0.  1.
          1   -1    0    0  501    0  0.00000000000E+00 -0.00000000000E+00 -0.16943841025E+04  0.16943841025E+04  0.00000000000E+00 0. -1.
         23    2    1    2    0    0 -0.70010556387E+02  0.87343693448E+03 -0.10030429041E+04  0.13343720588E+04  0.81609848164E+02 0.  0.
        254    2    1    2    0    0  0.70010556387E+02 -0.87343693448E+03  0.22254620860E+03  0.12738994507E+04  0.89749620558E+03 0.  0.
        -24    2    4    4    0    0  0.10129328351E+03 -0.24686937660E+03  0.50860410672E+03  0.57969974842E+03  0.78541979571E+02 0.  0.
         24    2    4    4    0    0 -0.31282727120E+02 -0.62656755788E+03 -0.28605789812E+03  0.69419970229E+03  0.80737797720E+02 0.  0.
         13    1    3    3    0    0 -0.47493636901E+01  0.23123954462E+03 -0.31677749600E+03  0.39222731346E+03  0.00000000000E+00 0. -1.
        -13    1    3    3    0    0 -0.65261192697E+02  0.64219738986E+03 -0.68626540810E+03  0.94214474534E+03  0.00000000000E+00 0.  1.
          2    1    6    6  502    0 -0.17114436262E+01 -0.11397030839E+03 -0.19355939334E+02  0.11561493252E+03  0.00000000000E+00 0. -1.
          1    1    5    5  503    0  0.60157242581E+02 -0.55169670674E+02  0.13445852990E+03  0.15729489076E+03  0.00000000000E+00 0. -1.
         -2    1    5    5    0  503  0.41136040925E+02 -0.19169970593E+03  0.37414557682E+03  0.42240485765E+03  0.00000000000E+00 0.  1.
         -1    1    6    6    0  502 -0.29571283493E+02 -0.51259724949E+03 -0.26670195879E+03  0.57858476977E+03  0.00000000000E+00 0.  1.
<mgrwt>
<rscale>  0 0.24887557E+04</rscale>
<asrwt>0</asrwt>
<pdfrwt beam="1">  1        1 0.26067448E+00 0.24887557E+04</pdfrwt>
<pdfrwt beam="2">  1       -1 0.14059806E+00 0.24887557E+04</pdfrwt>
<totfact> 0.17723036E+00</totfact>
</mgrwt>
</event>
<event>
12    1  0.1442183E-007  0.1154531E+04  0.7818608E-02  0.9153614E-01
         -1   -1    0    0    0  501 -0.00000000000E+00  0.00000000000E+00  0.14443965697E+03  0.14443965697E+03  0.00000000000E+00 0.  1.
          1   -1    0    0  501    0  0.00000000000E+00 -0.00000000000E+00 -0.23070893220E+04  0.23070893220E+04  0.00000000000E+00 0. -1.
         23    2    1    2    0    0  0.15258418399E+03 -0.20028625505E+02 -0.55898166050E+03  0.58673274389E+03  0.90065181578E+02 0.  0.
        254    2    1    2    0    0 -0.15258418399E+03  0.20028625505E+02 -0.16036680046E+04  0.18647962351E+04  0.93916497516E+03 0.  0.
        -24    2    4    4    0    0 -0.12541018130E+03  0.34255917788E+03 -0.20424371951E+03  0.42617267584E+03  0.82662861980E+02 0.  0.
         24    2    4    4    0    0 -0.27174002694E+02 -0.32253055237E+03 -0.13994242851E+04  0.14386235593E+04  0.80529696665E+02 0.  0.
         13    1    3    3    0    0  0.98569852270E+01  0.63236202538E+01 -0.29588217907E+01  0.12079029649E+02  0.00000000000E+00 0.  1.
        -13    1    3    3    0    0  0.14272719877E+03 -0.26352245759E+02 -0.55602283871E+03  0.57465371424E+03  0.00000000000E+00 0. -1.
          2    1    6    6  502    0  0.12218737271E+00 -0.22830790325E+03 -0.83077699233E+03  0.86157699865E+03  0.00000000000E+00 0. -1.
          1    1    5    5  503    0 -0.86465157611E+02  0.28970039338E+03 -0.19526760769E+03  0.35990551541E+03  0.00000000000E+00 0. -1.
         -2    1    5    5    0  503 -0.38945023689E+02  0.52858784497E+02 -0.89761118194E+01  0.66267160434E+02  0.00000000000E+00 0.  1.
         -1    1    6    6    0  502 -0.27296190067E+02 -0.94222649126E+02 -0.56864729273E+03  0.57704656062E+03  0.00000000000E+00 0.  1.
<mgrwt>
<rscale>  0 0.11545305E+04</rscale>
<asrwt>0</asrwt>
<pdfrwt beam="1">  1        1 0.35493680E+00 0.11545305E+04</pdfrwt>
<pdfrwt beam="2">  1       -1 0.22221487E-01 0.11545305E+04</pdfrwt>
<totfact> 0.31456921E+01</totfact>
</mgrwt>
</event>
<event>
12    1  0.1442183E-007  0.1590694E+04  0.7818608E-02  0.8826286E-01
          2   -1    0    0  501    0  0.00000000000E+00  0.00000000000E+00  0.15671300261E+04  0.15671300261E+04  0.00000000000E+00 0.  1.
         -2   -1    0    0    0  501 -0.00000000000E+00 -0.00000000000E+00 -0.40365294395E+03  0.40365294395E+03  0.00000000000E+00 0. -1.
         23    2    1    2    0    0  0.36237705510E+03 -0.34051568561E+02  0.88760475186E+03  0.96358688509E+03  0.90448052506E+02 0.  0.
        254    2    1    2    0    0 -0.36237705510E+03  0.34051568561E+02  0.27587233026E+03  0.10071960849E+04  0.89769804027E+03 0.  0.
        -24    2    4    4    0    0 -0.29421272773E+03 -0.22844410823E+03  0.51263876142E+03  0.63864266332E+03  0.79486552050E+02 0.  0.
         24    2    4    4    0    0 -0.68164327373E+02  0.26249567679E+03 -0.23676643116E+03  0.36855342161E+03  0.78885523366E+02 0.  0.
         11    1    3    3    0    0  0.16736586698E+03 -0.46758933850E+02  0.50315954403E+03  0.53232251321E+03  0.00000000000E+00 0.  1.
        -11    1    3    3    0    0  0.19501118812E+03  0.12707365289E+02  0.38444520784E+03  0.43126437188E+03  0.00000000000E+00 0. -1.
          4    1    6    6  502    0 -0.44161984997E+02  0.24685473565E+03 -0.22708737488E+03  0.33831378521E+03  0.00000000000E+00 0. -1.
          3    1    5    5  503    0 -0.21790911594E+03 -0.14455269078E+03  0.30250019345E+03  0.39985776253E+03  0.00000000000E+00 0. -1.
         -4    1    5    5    0  503 -0.76303611789E+02 -0.83891417456E+02  0.21013856797E+03  0.23878490079E+03  0.00000000000E+00 0.  1.
         -1    1    6    6    0  502 -0.24002342377E+02  0.15640941139E+02 -0.96790562814E+01  0.30239636403E+02  0.00000000000E+00 0.  1.
<mgrwt>
<rscale>  0 0.15906937E+04</rscale>
<asrwt>0</asrwt>
<pdfrwt beam="1">  1        2 0.24109692E+00 0.15906937E+04</pdfrwt>
<pdfrwt beam="2">  1       -2 0.62100454E-01 0.15906937E+04</pdfrwt>
<totfact> 0.26875883E+01</totfact>
</mgrwt>
</event>
<event>
12    1  0.1442183E-007  0.1628215E+04  0.7818608E-02  0.8803400E-01
          2   -1    0    0  501    0  0.00000000000E+00  0.00000000000E+00  0.11949399286E+04  0.11949399286E+04  0.00000000000E+00 0. -1.
         -2   -1    0    0    0  501 -0.00000000000E+00 -0.00000000000E+00 -0.55464791668E+03  0.55464791668E+03  0.00000000000E+00 0.  1.
         23    2    1    2    0    0  0.23671423776E+02  0.30931516556E+02 -0.37726118797E+03  0.39335265987E+03  0.10432265359E+03 0.  0.
        254    2    1    2    0    0 -0.23671423776E+02 -0.30931516556E+02  0.10175531999E+04  0.13562351854E+04  0.89579142022E+03 0.  0.
        -24    2    4    4    0    0  0.10226269299E+03  0.13097206402E+03 -0.10472476892E+03  0.21233852810E+03  0.80678580551E+02 0.  0.
         24    2    4    4    0    0 -0.12593411677E+03 -0.16190358057E+03  0.11222779688E+04  0.11438966573E+04  0.83183845604E+02 0.  0.
         13    1    3    3    0    0  0.25194299086E+02  0.45456256382E+02 -0.77958791718E+02  0.93694168211E+02  0.00000000000E+00 0. -1.
        -13    1    3    3    0    0 -0.15228753103E+01 -0.14524739826E+02 -0.29930239626E+03  0.29965849166E+03  0.00000000000E+00 0.  1.
          4    1    6    6  502    0 -0.66152156367E+02 -0.28942743076E+02  0.47095722041E+03  0.47646037991E+03  0.00000000000E+00 0. -1.
          1    1    5    5  503    0  0.66164143786E+02  0.10357561399E+03 -0.11219070521E+03  0.16641020423E+03  0.00000000000E+00 0. -1.
         -2    1    5    5    0  503  0.36098549209E+02  0.27396450024E+02  0.74659362898E+01  0.45928323871E+02  0.00000000000E+00 0.  1.
         -1    1    6    6    0  502 -0.59781960404E+02 -0.13296083750E+03  0.65132074841E+03  0.66743627742E+03  0.00000000000E+00 0.  1.
<mgrwt>
<rscale>  0 0.16282149E+04</rscale>
<asrwt>0</asrwt>
<pdfrwt beam="1">  1        2 0.18383691E+00 0.16282149E+04</pdfrwt>
<pdfrwt beam="2">  1       -2 0.85330449E-01 0.16282149E+04</pdfrwt>
<totfact> 0.21799954E+01</totfact>
</mgrwt>
</event>
<event>
12    1  0.1442183E-007  0.1130929E+04  0.7818608E-02  0.9175560E-01
         -2   -1    0    0    0  501 -0.00000000000E+00  0.00000000000E+00  0.17042778072E+03  0.17042778072E+03  0.00000000000E+00 0.  1.
          2   -1    0    0  501    0  0.00000000000E+00 -0.00000000000E+00 -0.18761603394E+04  0.18761603394E+04  0.00000000000E+00 0. -1.
         23    2    1    2    0    0 -0.20263139774E+00  0.17876512719E+03 -0.19722112554E+03  0.28122460088E+03  0.90741897848E+02 0.  0.
        254    2    1    2    0    0  0.20263139774E+00 -0.17876512719E+03 -0.15085114332E+04  0.17653635193E+04  0.89941347522E+03 0.  0.
        -24    2    4    4    0    0 -0.12589758345E+02 -0.28379734977E+03 -0.48194307751E+02  0.29885767430E+03  0.79333350099E+02 0.  0.
         24    2    4    4    0    0  0.12792389742E+02  0.10503222258E+03 -0.14603171254E+04  0.14665058450E+04  0.83173754962E+02 0.  0.
         11    1    3    3    0    0  0.23281963235E+02  0.42652905147E+02 -0.10340276709E+03  0.11425170621E+03  0.00000000000E+00 0. -1.
        -11    1    3    3    0    0 -0.23484594633E+02  0.13611222204E+03 -0.93818358447E+02  0.16697289467E+03  0.00000000000E+00 0.  1.
          2    1    6    6  502    0  0.10277140595E+02  0.11877589453E+03 -0.13608440016E+04  0.13660562687E+04  0.00000000000E+00 0. -1.
          1    1    5    5  503    0 -0.31981511994E+02 -0.26452153808E+03 -0.35816937526E+02  0.26884440524E+03  0.00000000000E+00 0. -1.
         -2    1    5    5    0  503  0.19391753649E+02 -0.19275811694E+02 -0.12377370225E+02  0.30013269061E+02  0.00000000000E+00 0.  1.
         -1    1    6    6    0  502  0.25152491474E+01 -0.13743671950E+02 -0.99473123871E+02  0.10044957625E+03  0.00000000000E+00 0.  1.
<mgrwt>
<rscale>  0 0.11309285E+04</rscale>
<asrwt>0</asrwt>
<pdfrwt beam="1">  1        2 0.28864005E+00 0.11309285E+04</pdfrwt>
<pdfrwt beam="2">  1       -2 0.26219659E-01 0.11309285E+04</pdfrwt>
<totfact> 0.10213988E+02</totfact>
</mgrwt>
</event>
<event>
12    1  0.1442183E-007  0.1606453E+04  0.7818608E-02  0.8816594E-01
         -2   -1    0    0    0  501 -0.00000000000E+00  0.00000000000E+00  0.24486602766E+03  0.24486602766E+03  0.00000000000E+00 0.  1.
          2   -1    0    0  501    0  0.00000000000E+00 -0.00000000000E+00 -0.26347987242E+04  0.26347987242E+04  0.00000000000E+00 0. -1.
         23    2    1    2    0    0  0.19197011650E+03 -0.49277660544E+03 -0.58281456528E+03  0.79237286348E+03  0.92198854588E+02 0.  0.
        254    2    1    2    0    0 -0.19197011650E+03  0.49277660544E+03 -0.18071181313E+04  0.20872918884E+04  0.90079419320E+03 0.  0.
        -24    2    4    4    0    0  0.12398283949E+03  0.66075377168E+03 -0.11355920669E+04  0.13222031263E+04  0.81758629470E+02 0.  0.
         24    2    4    4    0    0 -0.31595295599E+03 -0.16797716624E+03 -0.67152606430E+03  0.76508876204E+03  0.79818293571E+02 0.  0.
         11    1    3    3    0    0  0.23742049028E+02 -0.46791997757E+02 -0.23475061526E+02  0.57482644857E+02  0.00000000000E+00 0. -1.
        -11    1    3    3    0    0  0.16822806747E+03 -0.44598460768E+03 -0.55933950375E+03  0.73489021862E+03  0.00000000000E+00 0.  1.
          4    1    6    6  502    0 -0.16394944748E+03 -0.43533026758E+02 -0.29040825597E+03  0.33632053295E+03  0.00000000000E+00 0. -1.
          1    1    5    5  503    0  0.16090868228E+02  0.49681956356E+02 -0.53146752413E+02  0.74510335657E+02  0.00000000000E+00 0. -1.
         -2    1    5    5    0  503  0.10789197127E+03  0.61107181532E+03 -0.10824453145E+04  0.12476927907E+04  0.00000000000E+00 0.  1.
         -3    1    6    6    0  502 -0.15200350851E+03 -0.12444413949E+03 -0.38111780834E+03  0.42876822910E+03  0.00000000000E+00 0.  1.
<mgrwt>
<rscale>  0 0.16064529E+04</rscale>
<asrwt>0</asrwt>
<pdfrwt beam="1">  1        2 0.40535366E+00 0.16064529E+04</pdfrwt>
<pdfrwt beam="2">  1       -2 0.37671696E-01 0.16064529E+04</pdfrwt>
<totfact> 0.18551473E+01</totfact>
</mgrwt>
</event>
<event>
12    1  0.1442183E-007  0.2546907E+04  0.7818608E-02  0.8386463E-01
         -2   -1    0    0    0  501 -0.00000000000E+00  0.00000000000E+00  0.80634282055E+03  0.80634282055E+03  0.00000000000E+00 0. -1.
          2   -1    0    0  501    0  0.00000000000E+00 -0.00000000000E+00 -0.20111594802E+04  0.20111594802E+04  0.00000000000E+00 0.  1.
         23    2    1    2    0    0  0.90152927415E+03 -0.15038848556E+03 -0.12295588939E+04  0.15347280061E+04  0.90571796261E+02 0.  0.
        254    2    1    2    0    0 -0.90152927415E+03  0.15038848556E+03  0.24742234259E+02  0.12827742947E+04  0.89973661935E+03 0.  0.
        -24    2    4    4    0    0 -0.10058485765E+04 -0.85017339486E+02 -0.17816478559E+01  0.10126285750E+04  0.80337723276E+02 0.  0.
         24    2    4    4    0    0  0.10431930238E+03  0.23540582504E+03  0.26523882115E+02  0.27014571964E+03  0.77309599694E+02 0.  0.
         11    1    3    3    0    0  0.23069069372E+03 -0.32008980528E+02 -0.38130423514E+03  0.44680609971E+03  0.00000000000E+00 0. -1.
        -11    1    3    3    0    0  0.67083858044E+03 -0.11837950503E+03 -0.84825465876E+03  0.10879219064E+04  0.00000000000E+00 0.  1.
          4    1    6    6  502    0  0.44232975654E+02  0.13818546179E+03  0.50007235461E+02  0.15346824292E+03  0.00000000000E+00 0. -1.
          1    1    5    5  503    0 -0.21956496687E+03 -0.40393455167E+02 -0.25648454123E+02  0.22471815480E+03  0.00000000000E+00 0. -1.
         -2    1    5    5    0  503 -0.78628360966E+03 -0.44623884319E+02  0.23866806267E+02  0.78791042023E+03  0.00000000000E+00 0.  1.
         -3    1    6    6    0  502  0.60086326730E+02  0.97220363253E+02 -0.23483353346E+02  0.11667747673E+03  0.00000000000E+00 0.  1.
<mgrwt>
<rscale>  0 0.25469072E+04</rscale>
<asrwt>0</asrwt>
<pdfrwt beam="1">  1        2 0.30940915E+00 0.25469072E+04</pdfrwt>
<pdfrwt beam="2">  1       -2 0.12405274E+00 0.25469072E+04</pdfrwt>
<totfact> 0.28598216E+00</totfact>
</mgrwt>
</event>
<event>
12    1  0.1442183E-007  0.2212373E+04  0.7818608E-02  0.8513296E-01
         -2   -1    0    0    0  501 -0.00000000000E+00  0.00000000000E+00  0.15455453480E+04  0.15455453480E+04  0.00000000000E+00 0.  1.
          2   -1    0    0  501    0  0.00000000000E+00 -0.00000000000E+00 -0.79172633721E+03  0.79172633721E+03  0.00000000000E+00 0. -1.
         23    2    1    2    0    0  0.53027931790E+03  0.23674387839E+03 -0.42859447523E+03  0.72796199109E+03  0.94824138981E+02 0.  0.
        254    2    1    2    0    0 -0.53027931790E+03 -0.23674387839E+03  0.11824134860E+04  0.16093096941E+04  0.92440911977E+03 0.  0.
        -24    2    4    4    0    0  0.13882347567E+03 -0.16400135319E+03 -0.18724987849E+02  0.23025384796E+03  0.80608982657E+02 0.  0.
         24    2    4    4    0    0 -0.66910279357E+03 -0.72742525193E+02  0.12011384739E+04  0.13790558461E+04  0.77918996799E+02 0.  0.
         13    1    3    3    0    0  0.28523829013E+03  0.15676186193E+03 -0.28659701577E+03  0.43367385552E+03  0.00000000000E+00 0.  1.
        -13    1    3    3    0    0  0.24504102777E+03  0.79982016457E+02 -0.14199745946E+03  0.29428813558E+03  0.00000000000E+00 0. -1.
          4    1    6    6  502    0 -0.35738887143E+03 -0.60527737869E+02  0.57934872191E+03  0.68339984932E+03  0.00000000000E+00 0. -1.
          1    1    5    5  503    0 -0.65816310330E+01 -0.78803132478E+00  0.76006911461E+01  0.10085106163E+02  0.00000000000E+00 0. -1.
         -2    1    5    5    0  503  0.14540510671E+03 -0.16321332187E+03 -0.26325678995E+02  0.22016874180E+03  0.00000000000E+00 0.  1.
         -3    1    6    6    0  502 -0.31171392214E+03 -0.12214787325E+02  0.62178975195E+03  0.69565599683E+03  0.00000000000E+00 0.  1.
<mgrwt>
<rscale>  0 0.22123733E+04</rscale>
<asrwt>0</asrwt>
<pdfrwt beam="1">  1        2 0.12180405E+00 0.22123733E+04</pdfrwt>
<pdfrwt beam="2">  1       -2 0.23777621E+00 0.22123733E+04</pdfrwt>
<totfact> 0.24378827E+00</totfact>
</mgrwt>
</event>
<event>
12    1  0.1442183E-007  0.1974401E+04  0.7818608E-02  0.8618684E-01
         -2   -1    0    0    0  501 -0.00000000000E+00  0.00000000000E+00  0.49227606182E+03  0.49227606182E+03  0.00000000000E+00 0.  1.
          2   -1    0    0  501    0  0.00000000000E+00 -0.00000000000E+00 -0.19797114629E+04  0.19797114629E+04  0.00000000000E+00 0. -1.
         23    2    1    2    0    0 -0.34536094075E+03 -0.49651495110E+03  0.22943969027E+02  0.61222177488E+03  0.92129256275E+02 0.  0.
        254    2    1    2    0    0  0.34536094075E+03  0.49651495110E+03 -0.15103793701E+04  0.18597657499E+04  0.90093369710E+03 0.  0.
        -24    2    4    4    0    0  0.55554850936E+03  0.87224744659E+02 -0.10991322111E+04  0.12375322387E+04  0.84570219061E+02 0.  0.
         24    2    4    4    0    0 -0.21018756861E+03  0.40929020644E+03 -0.41124715905E+03  0.62223351120E+03  0.79705894063E+02 0.  0.
         11    1    3    3    0    0 -0.27480907032E+03 -0.38625103480E+03 -0.19991000948E+02  0.47445708671E+03  0.00000000000E+00 0.  1.
        -11    1    3    3    0    0 -0.70551870431E+02 -0.11026391630E+03  0.42934969974E+02  0.13776468816E+03  0.00000000000E+00 0. -1.
          4    1    6    6  502    0 -0.34929322891E+02  0.11909587554E+03 -0.76441392410E+02  0.14576409586E+03  0.00000000000E+00 0. -1.
          3    1    5    5  503    0  0.20003448386E+03 -0.31221914611E+01 -0.43601574307E+03  0.47972207685E+03  0.00000000000E+00 0. -1.
         -2    1    5    5    0  503  0.35551402549E+03  0.90346936120E+02 -0.66311646801E+03  0.75781016180E+03  0.00000000000E+00 0.  1.
         -3    1    6    6    0  502 -0.17525824572E+03  0.29019433090E+03 -0.33480576664E+03  0.47646941534E+03  0.00000000000E+00 0.  1.
<mgrwt>
<rscale>  0 0.19744007E+04</rscale>
<asrwt>0</asrwt>
<pdfrwt beam="1">  1        2 0.30457100E+00 0.19744007E+04</pdfrwt>
<pdfrwt beam="2">  1       -2 0.75734778E-01 0.19744007E+04</pdfrwt>
<totfact> 0.99745949E+00</totfact>
</mgrwt>
</event>
<event>
12    1  0.1442183E-007  0.1737162E+04  0.7818608E-02  0.8740449E-01
          1   -1    0    0  501    0  0.00000000000E+00  0.00000000000E+00  0.11381549468E+04  0.11381549468E+04  0.00000000000E+00 0.  1.
         -1   -1    0    0    0  501 -0.00000000000E+00 -0.00000000000E+00 -0.66285597289E+03  0.66285597289E+03  0.00000000000E+00 0. -1.
         23    2    1    2    0    0  0.68080556970E+02  0.23556604799E+03 -0.42329656045E+03  0.49758989660E+03  0.91046152601E+02 0.  0.
        254    2    1    2    0    0 -0.68080556970E+02 -0.23556604799E+03  0.89859553436E+03  0.13034210231E+04  0.91175989373E+03 0.  0.
        -24    2    4    4    0    0  0.17178784457E+03  0.88717864797E+02 -0.92972867461E+02  0.22947885769E+03  0.81453477296E+02 0.  0.
         24    2    4    4    0    0 -0.23986840154E+03 -0.32428391279E+03  0.99156840182E+03  0.10739421654E+04  0.86295845544E+02 0.  0.
         13    1    3    3    0    0  0.59738028813E+02  0.11825420344E+03 -0.29590716846E+03  0.32421249368E+03  0.00000000000E+00 0. -1.
        -13    1    3    3    0    0  0.83425281564E+01  0.11731184455E+03 -0.12738939200E+03  0.17337740292E+03  0.00000000000E+00 0.  1.
          4    1    6    6  502    0 -0.23372552894E+03 -0.27569167997E+03  0.83434330791E+03  0.90926469234E+03  0.00000000000E+00 0. -1.
          1    1    5    5  503    0  0.78702330117E+02  0.86129608128E+02 -0.52686255400E+02  0.12801643516E+03  0.00000000000E+00 0. -1.
         -2    1    5    5    0  503  0.93085514456E+02  0.25882566690E+01 -0.40286612061E+02  0.10146242253E+03  0.00000000000E+00 0.  1.
         -3    1    6    6    0  502 -0.61428726007E+01 -0.48592232816E+02  0.15722509391E+03  0.16467747305E+03  0.00000000000E+00 0.  1.
<mgrwt>
<rscale>  0 0.17371618E+04</rscale>
<asrwt>0</asrwt>
<pdfrwt beam="1">  1        1 0.17510076E+00 0.17371618E+04</pdfrwt>
<pdfrwt beam="2">  1       -1 0.10197784E+00 0.17371618E+04</pdfrwt>
<totfact> 0.10261367E+01</totfact>
</mgrwt>
</event>
<event>
12    1  0.1442183E-007  0.2008993E+04  0.7818608E-02  0.8602428E-01
         -2   -1    0    0    0  501 -0.00000000000E+00  0.00000000000E+00  0.16307862745E+04  0.16307862745E+04  0.00000000000E+00 0.  1.
          2   -1    0    0  501    0  0.00000000000E+00 -0.00000000000E+00 -0.61872810645E+03  0.61872810645E+03  0.00000000000E+00 0. -1.
         23    2    1    2    0    0  0.74923757255E+03 -0.16011463697E+02  0.73290081778E+03  0.10544406457E+04  0.11440349412E+03 0.  0.
        254    2    1    2    0    0 -0.74923757255E+03  0.16011463697E+02  0.27915735028E+03  0.11950737353E+04  0.88806480588E+03 0.  0.
        -24    2    4    4    0    0 -0.71933818403E+03 -0.32609214739E+03  0.10176599965E+03  0.80036571375E+03  0.80283531850E+02 0.  0.
         24    2    4    4    0    0 -0.29899388529E+02  0.34210361108E+03  0.17739135063E+03  0.39470802152E+03  0.79986729064E+02 0.  0.
         11    1    3    3    0    0  0.22777882577E+03 -0.35474924199E+02  0.16690290078E+03  0.28460190092E+03  0.00000000000E+00 0. -1.
        -11    1    3    3    0    0  0.52145874678E+03  0.19463460502E+02  0.56599791701E+03  0.76983874477E+03  0.00000000000E+00 0.  1.
          2    1    6    6  502    0 -0.29098848309E+02  0.25809480152E+03  0.16989623586E+03  0.31036172526E+03  0.00000000000E+00 0. -1.
          3    1    5    5  503    0 -0.43405727981E+03 -0.23922649215E+03  0.67476985291E+02  0.50018814484E+03  0.00000000000E+00 0. -1.
         -4    1    5    5    0  503 -0.28528090422E+03 -0.86865655239E+02  0.34289014355E+02  0.30017756891E+03  0.00000000000E+00 0.  1.
         -1    1    6    6    0  502 -0.80054021961E+00  0.84008809563E+02  0.74951147728E+01  0.84346296269E+02  0.00000000000E+00 0.  1.
<mgrwt>
<rscale>  0 0.20089931E+04</rscale>
<asrwt>0</asrwt>
<pdfrwt beam="1">  1        2 0.95188940E-01 0.20089931E+04</pdfrwt>
<pdfrwt beam="2">  1       -2 0.25089019E+00 0.20089931E+04</pdfrwt>
<totfact> 0.28140366E+00</totfact>
</mgrwt>
</event>
<event>
12    1  0.1442183E-007  0.1050818E+04  0.7818608E-02  0.9254500E-01
          1   -1    0    0  501    0  0.00000000000E+00  0.00000000000E+00  0.25851222732E+03  0.25851222732E+03  0.00000000000E+00 0. -1.
         -1   -1    0    0    0  501 -0.00000000000E+00 -0.00000000000E+00 -0.10678580184E+04  0.10678580184E+04  0.00000000000E+00 0.  1.
         23    2    1    2    0    0 -0.64490771891E+02 -0.24712791651E+02 -0.22232243168E+03  0.24997394062E+03  0.91049028724E+02 0.  0.
        254    2    1    2    0    0  0.64490771891E+02  0.24712791651E+02 -0.58702335940E+03  0.10763963051E+04  0.89959035089E+03 0.  0.
        -24    2    4    4    0    0 -0.21476412582E+03 -0.27892387523E+03 -0.54584838220E+03  0.65435959095E+03  0.79459801205E+02 0.  0.
         24    2    4    4    0    0  0.27925489771E+03  0.30363666688E+03 -0.41174977205E+02  0.42203671414E+03  0.79000544073E+02 0.  0.
         13    1    3    3    0    0 -0.21475702727E+02 -0.13622535447E+02 -0.23265749076E+01  0.25538054555E+02  0.00000000000E+00 0. -1.
        -13    1    3    3    0    0 -0.43015069164E+02 -0.11090256204E+02 -0.21999585677E+03  0.22443588607E+03  0.00000000000E+00 0.  1.
          4    1    6    6  502    0  0.77627089247E+01  0.31317119084E+02 -0.17667702836E+02  0.36785449855E+02  0.00000000000E+00 0. -1.
          1    1    5    5  503    0 -0.55160387940E+02 -0.81238896152E+02 -0.93765077877E+02  0.13577303294E+03  0.00000000000E+00 0. -1.
         -2    1    5    5    0  503 -0.15960373788E+03 -0.19768497908E+03 -0.45208330432E+03  0.51858655801E+03  0.00000000000E+00 0.  1.
         -3    1    6    6    0  502  0.27149218879E+03  0.27231954780E+03 -0.23507274369E+02  0.38525126429E+03  0.00000000000E+00 0.  1.
<mgrwt>
<rscale>  0 0.10508175E+04</rscale>
<asrwt>0</asrwt>
<pdfrwt beam="1">  1        1 0.39771112E-01 0.10508175E+04</pdfrwt>
<pdfrwt beam="2">  1       -1 0.16428585E+00 0.10508175E+04</pdfrwt>
<totfact> 0.28878918E+01</totfact>
</mgrwt>
</event>
<event>
12    1  0.1442183E-007  0.1794704E+04  0.7818608E-02  0.8709121E-01
         -2   -1    0    0    0  501 -0.00000000000E+00  0.00000000000E+00  0.41350818512E+03  0.41350818512E+03  0.00000000000E+00 0.  1.
          2   -1    0    0  501    0  0.00000000000E+00 -0.00000000000E+00 -0.19473396355E+04  0.19473396355E+04  0.00000000000E+00 0. -1.
         23    2    1    2    0    0 -0.26951569675E+03  0.48413353159E+03 -0.81324492562E+02  0.56758629483E+03  0.92285111420E+02 0.  0.
        254    2    1    2    0    0  0.26951569675E+03 -0.48413353159E+03 -0.14525069578E+04  0.17932615258E+04  0.89386041985E+03 0.  0.
        -24    2    4    4    0    0  0.22898849018E+03 -0.13499581698E+03  0.19210820279E+02  0.27798542992E+03  0.79039511595E+02 0.  0.
         24    2    4    4    0    0  0.40527206570E+02 -0.34913771461E+03 -0.14717177781E+04  0.15152760959E+04  0.81048319698E+02 0.  0.
         11    1    3    3    0    0 -0.75635120182E-01  0.22973215076E+02 -0.19088503618E+02  0.29868801482E+02  0.00000000000E+00 0. -1.
        -11    1    3    3    0    0 -0.26944006163E+03  0.46116031651E+03 -0.62235988945E+02  0.53771749335E+03  0.00000000000E+00 0.  1.
          2    1    6    6  502    0  0.26038335438E+02 -0.56364041023E+02 -0.37276751631E+03  0.37790279338E+03  0.00000000000E+00 0. -1.
          1    1    5    5  503    0  0.61520694542E+02 -0.52935267355E+02 -0.27570538234E+02  0.85715068485E+02  0.00000000000E+00 0. -1.
         -2    1    5    5    0  503  0.16746779564E+03 -0.82060549622E+02  0.46781358513E+02  0.19227036143E+03  0.00000000000E+00 0.  1.
         -1    1    6    6    0  502  0.14488871132E+02 -0.29277367359E+03 -0.10989502618E+04  0.11373733025E+04  0.00000000000E+00 0.  1.
<mgrwt>
<rscale>  0 0.17947043E+04</rscale>
<asrwt>0</asrwt>
<pdfrwt beam="1">  1        2 0.29959071E+00 0.17947043E+04</pdfrwt>
<pdfrwt beam="2">  1       -2 0.63616644E-01 0.17947043E+04</pdfrwt>
<totfact> 0.15433305E+01</totfact>
</mgrwt>
</event>
<event>
12    1  0.1442183E-007  0.1332297E+04  0.7818608E-02  0.9004338E-01
         -1   -1    0    0    0  501 -0.00000000000E+00  0.00000000000E+00  0.10132354984E+04  0.10132354984E+04  0.00000000000E+00 0.  1.
          1   -1    0    0  501    0  0.00000000000E+00 -0.00000000000E+00 -0.43795735782E+03  0.43795735782E+03  0.00000000000E+00 0. -1.
         23    2    1    2    0    0 -0.74855791912E+01 -0.20546432800E+03 -0.15618321543E+03  0.27106930541E+03  0.82545427365E+02 0.  0.
        254    2    1    2    0    0  0.74855791912E+01  0.20546432800E+03  0.73146135599E+03  0.11801235508E+04  0.90298629881E+03 0.  0.
        -24    2    4    4    0    0  0.12894513479E+03 -0.23735738227E+03 -0.34663418980E+02  0.28346824716E+03  0.78659518344E+02 0.  0.
         24    2    4    4    0    0 -0.12145955560E+03  0.44282171026E+03  0.76612477497E+03  0.89665530363E+03  0.78740535767E+02 0.  0.
         11    1    3    3    0    0  0.13613346818E+02 -0.33580024609E+02  0.23196581971E+01  0.36308705271E+02  0.00000000000E+00 0.  1.
        -11    1    3    3    0    0 -0.21098926009E+02 -0.17188430339E+03 -0.15850287363E+03  0.23476060014E+03  0.00000000000E+00 0. -1.
          2    1    6    6  502    0 -0.12848225262E+03  0.36724146939E+03  0.61937059496E+03  0.73143278569E+03  0.00000000000E+00 0. -1.
          1    1    5    5  503    0  0.74983285209E+02 -0.14737593879E+03  0.17530719361E+02  0.16628134747E+03  0.00000000000E+00 0. -1.
         -2    1    5    5    0  503  0.53961849585E+02 -0.89981443481E+02 -0.52194138342E+02  0.11718689969E+03  0.00000000000E+00 0.  1.
         -1    1    6    6    0  502  0.70226970185E+01  0.75580240877E+02  0.14675418001E+03  0.16522251794E+03  0.00000000000E+00 0.  1.
<mgrwt>
<rscale>  0 0.13322972E+04</rscale>
<asrwt>0</asrwt>
<pdfrwt beam="1">  1        1 0.67378055E-01 0.13322972E+04</pdfrwt>
<pdfrwt beam="2">  1       -1 0.15588238E+00 0.13322972E+04</pdfrwt>
<totfact> 0.16357945E+01</totfact>
</mgrwt>
</event>
<event>
12    1  0.1442183E-007  0.2520173E+04  0.7818608E-02  0.8395834E-01
          2   -1    0    0  501    0  0.00000000000E+00  0.00000000000E+00  0.15288285587E+04  0.15288285587E+04  0.00000000000E+00 0. -1.
         -2   -1    0    0    0  501 -0.00000000000E+00 -0.00000000000E+00 -0.10385848753E+04  0.10385848753E+04  0.00000000000E+00 0.  1.
         23    2    1    2    0    0 -0.28794817612E+03  0.99065897743E+03 -0.17066605983E+03  0.10494326950E+04  0.88671955499E+02 0.  0.
        254    2    1    2    0    0  0.28794817612E+03 -0.99065897743E+03  0.66090974320E+03  0.15179807389E+04  0.89618328113E+03 0.  0.
        -24    2    4    4    0    0  0.21064355630E+03 -0.68080376775E+03  0.86946283723E+03  0.11277654323E+04  0.89581063052E+02 0.  0.
         24    2    4    4    0    0  0.77304619819E+02 -0.30985520968E+03 -0.20855309403E+03  0.39021530666E+03  0.82385297935E+02 0.  0.
         11    1    3    3    0    0 -0.27095289332E+03  0.94795056741E+03 -0.18082197421E+03  0.10023583865E+04  0.00000000000E+00 0.  1.
        -11    1    3    3    0    0 -0.16995282801E+02  0.42708410025E+02  0.10155914386E+02  0.47074308507E+02  0.00000000000E+00 0. -1.
          4    1    6    6  502    0 -0.17218950555E+02 -0.32384173145E+02 -0.22809094088E+02  0.43191222507E+02  0.00000000000E+00 0. -1.
          3    1    5    5  503    0  0.59228252725E+02 -0.14479771461E+03  0.13974388660E+03  0.20976824811E+03  0.00000000000E+00 0. -1.
         -4    1    5    5    0  503  0.15141530358E+03 -0.53600605315E+03  0.72971895064E+03  0.91799718414E+03  0.00000000000E+00 0.  1.
         -3    1    6    6    0  502  0.94523570374E+02 -0.27747103653E+03 -0.18574399994E+03  0.34702408416E+03  0.00000000000E+00 0.  1.
<mgrwt>
<rscale>  0 0.25201732E+04</rscale>
<asrwt>0</asrwt>
<pdfrwt beam="1">  1        2 0.23520439E+00 0.25201732E+04</pdfrwt>
<pdfrwt beam="2">  1       -2 0.15978229E+00 0.25201732E+04</pdfrwt>
<totfact> 0.27529890E+00</totfact>
</mgrwt>
</event>
<event>
12    1  0.1442183E-007  0.1560877E+04  0.7818608E-02  0.8844950E-01
         -2   -1    0    0    0  501 -0.00000000000E+00  0.00000000000E+00  0.85163572249E+03  0.85163572249E+03  0.00000000000E+00 0.  1.
          2   -1    0    0  501    0  0.00000000000E+00 -0.00000000000E+00 -0.71519381849E+03  0.71519381849E+03  0.00000000000E+00 0. -1.
         23    2    1    2    0    0  0.49690814055E+03  0.17515581096E+03  0.24193542501E+02  0.53529791491E+03  0.91439990994E+02 0.  0.
        254    2    1    2    0    0 -0.49690814055E+03 -0.17515581096E+03  0.11224836150E+03  0.10315316261E+04  0.87969343675E+03 0.  0.
        -24    2    4    4    0    0  0.57878320789E+01 -0.35823266807E+03  0.28282773688E+03  0.46431326437E+03  0.85036082060E+02 0.  0.
         24    2    4    4    0    0 -0.50269597263E+03  0.18307685711E+03 -0.17057937538E+03  0.56721836169E+03  0.80118474952E+02 0.  0.
         13    1    3    3    0    0  0.48582076608E+03  0.17247464151E+03  0.81250658196E+01  0.51559221814E+03  0.00000000000E+00 0. -1.
        -13    1    3    3    0    0  0.11087374476E+02  0.26811694507E+01  0.16068476682E+02  0.19705696772E+02  0.00000000000E+00 0.  1.
          2    1    6    6  502    0 -0.43052659091E+03  0.18366404578E+03 -0.15761944740E+03  0.49389221232E+03  0.00000000000E+00 0. -1.
          3    1    5    5  503    0  0.48777968910E+00 -0.35504338164E+03  0.25841504784E+03  0.43912911283E+03  0.00000000000E+00 0. -1.
         -4    1    5    5    0  503  0.53000523898E+01 -0.31892864253E+01  0.24412689036E+02  0.25184151548E+02  0.00000000000E+00 0.  1.
         -1    1    6    6    0  502 -0.72169381719E+02 -0.58718866999E+00 -0.12959927978E+02  0.73326149370E+02  0.00000000000E+00 0.  1.
<mgrwt>
<rscale>  0 0.15608775E+04</rscale>
<asrwt>0</asrwt>
<pdfrwt beam="1">  1        2 0.11002982E+00 0.15608775E+04</pdfrwt>
<pdfrwt beam="2">  1       -2 0.13102088E+00 0.15608775E+04</pdfrwt>
<totfact> 0.16321077E+01</totfact>
</mgrwt>
</event>
<event>
12    1  0.1442183E-007  0.1400465E+04  0.7818608E-02  0.8953482E-01
          1   -1    0    0  501    0  0.00000000000E+00  0.00000000000E+00  0.15802828838E+04  0.15802828838E+04  0.00000000000E+00 0. -1.
         -1   -1    0    0    0  501 -0.00000000000E+00 -0.00000000000E+00 -0.31027700151E+03  0.31027700151E+03  0.00000000000E+00 0.  1.
         23    2    1    2    0    0 -0.73192021610E+02 -0.30625427469E+03  0.39150736750E+02  0.33079278888E+03  0.93500460950E+02 0.  0.
        254    2    1    2    0    0  0.73192021610E+02  0.30625427469E+03  0.12308551455E+04  0.15597670964E+04  0.90483161582E+03 0.  0.
        -24    2    4    4    0    0  0.33231373271E+03  0.63808347157E+02  0.88265287605E+02  0.36070608288E+03  0.88397936164E+02 0.  0.
         24    2    4    4    0    0 -0.25912171110E+03  0.24244592753E+03  0.11425898579E+04  0.11990610135E+04  0.79445841909E+02 0.  0.
         13    1    3    3    0    0 -0.13391821406E+02 -0.11540357906E+03  0.58102047776E+02  0.12989678555E+03  0.00000000000E+00 0. -1.
        -13    1    3    3    0    0 -0.59800200204E+02 -0.19085069563E+03 -0.18951311026E+02  0.20089600333E+03  0.00000000000E+00 0.  1.
          2    1    6    6  502    0 -0.12044213699E+03  0.13075761455E+03  0.69439880420E+03  0.71679394627E+03  0.00000000000E+00 0. -1.
          1    1    5    5  503    0  0.31254102777E+03  0.80479773188E+02  0.73778580343E+02  0.33106217974E+03  0.00000000000E+00 0. -1.
         -2    1    5    5    0  503  0.19772704934E+02 -0.16671426031E+02  0.14486707263E+02  0.29643903144E+02  0.00000000000E+00 0.  1.
         -1    1    6    6    0  502 -0.13867957411E+03  0.11168831298E+03  0.44819105373E+03  0.48226706727E+03  0.00000000000E+00 0.  1.
<mgrwt>
<rscale>  0 0.14004648E+04</rscale>
<asrwt>0</asrwt>
<pdfrwt beam="1">  1        1 0.24312044E+00 0.14004648E+04</pdfrwt>
<pdfrwt beam="2">  1       -1 0.47734924E-01 0.14004648E+04</pdfrwt>
<totfact> 0.24603818E+01</totfact>
</mgrwt>
</event>
<event>
12    1  0.1442183E-007  0.1596645E+04  0.7818608E-02  0.8822612E-01
          1   -1    0    0  501    0  0.00000000000E+00  0.00000000000E+00  0.11108962803E+04  0.11108962803E+04  0.00000000000E+00 0. -1.
         -1   -1    0    0    0  501 -0.00000000000E+00 -0.00000000000E+00 -0.57369768124E+03  0.57369768124E+03  0.00000000000E+00 0.  1.
         23    2    1    2    0    0 -0.51163349461E+03  0.10769984759E+03  0.31552791503E+03  0.61752859177E+03  0.91736614902E+02 0.  0.
        254    2    1    2    0    0  0.51163349461E+03 -0.10769984759E+03  0.22167068406E+03  0.10670653698E+04  0.90339499737E+03 0.  0.
        -24    2    4    4    0    0  0.12562738166E+03 -0.31691550048E+03 -0.24031749474E+03  0.42459655297E+03  0.79448480459E+02 0.  0.
         24    2    4    4    0    0  0.38600611295E+03  0.20921565289E+03  0.46198817880E+03  0.64246881683E+03  0.81001201249E+02 0.  0.
         13    1    3    3    0    0 -0.42746703570E+03  0.83762242385E+02  0.22006706103E+03  0.48803042038E+03  0.00000000000E+00 0. -1.
        -13    1    3    3    0    0 -0.84166458905E+02  0.23937605204E+02  0.95460854003E+02  0.12949817139E+03  0.00000000000E+00 0.  1.
          4    1    6    6  502    0  0.34031406851E+03  0.18541930060E+03  0.36361549844E+03  0.53142281939E+03  0.00000000000E+00 0. -1.
          3    1    5    5  503    0  0.28410032876E+02 -0.14309185493E+03 -0.66812018098E+02  0.16045639495E+03  0.00000000000E+00 0. -1.
         -4    1    5    5    0  503  0.97217348787E+02 -0.17382364554E+03 -0.17350547664E+03  0.26414015802E+03  0.00000000000E+00 0.  1.
         -3    1    6    6    0  502  0.45692044439E+02  0.23796352289E+02  0.98372680359E+02  0.11104599744E+03  0.00000000000E+00 0.  1.
<mgrwt>
<rscale>  0 0.15966448E+04</rscale>
<asrwt>0</asrwt>
<pdfrwt beam="1">  1        1 0.17090712E+00 0.15966448E+04</pdfrwt>
<pdfrwt beam="2">  1       -1 0.88261181E-01 0.15966448E+04</pdfrwt>
<totfact> 0.15060504E+01</totfact>
</mgrwt>
</event>
<event>
12    1  0.1442183E-007  0.2117981E+04  0.7818608E-02  0.8553364E-01
          1   -1    0    0  501    0  0.00000000000E+00  0.00000000000E+00  0.16128531293E+04  0.16128531293E+04  0.00000000000E+00 0. -1.
         -1   -1    0    0    0  501 -0.00000000000E+00 -0.00000000000E+00 -0.69532757404E+03  0.69532757404E+03  0.00000000000E+00 0.  1.
         23    2    1    2    0    0  0.86565619121E+02 -0.36203587082E+03 -0.47778878602E+03  0.61285716756E+03  0.93531842753E+02 0.  0.
        254    2    1    2    0    0 -0.86565619121E+02  0.36203587082E+03  0.13953143413E+04  0.16953235358E+04  0.88806317448E+03 0.  0.
        -24    2    4    4    0    0 -0.10063684717E+03  0.20916909145E+03 -0.40278758774E+02  0.24930325748E+03  0.81549076960E+02 0.  0.
         24    2    4    4    0    0  0.14071228053E+02  0.15286677937E+03  0.14355931001E+04  0.14460202783E+04  0.80503693622E+02 0.  0.
         13    1    3    3    0    0  0.69659915027E+02 -0.13200632259E+03 -0.23134999246E+03  0.27531979946E+03  0.00000000000E+00 0. -1.
        -13    1    3    3    0    0  0.16905704093E+02 -0.23002954823E+03 -0.24643879356E+03  0.33753736809E+03  0.00000000000E+00 0.  1.
          2    1    6    6  502    0 -0.17434481508E+02  0.16832775375E+02  0.44193763053E+03  0.44260159597E+03  0.00000000000E+00 0. -1.
          3    1    5    5  503    0 -0.48982108651E+02  0.15633853916E+03  0.26441679224E+01  0.16385352428E+03  0.00000000000E+00 0. -1.
         -4    1    5    5    0  503 -0.51654738523E+02  0.52830552284E+02 -0.42922926696E+02  0.85449733193E+02  0.00000000000E+00 0.  1.
         -1    1    6    6    0  502  0.31505709561E+02  0.13603400399E+03  0.99365546953E+03  0.10034186824E+04  0.00000000000E+00 0.  1.
<mgrwt>
<rscale>  0 0.21179814E+04</rscale>
<asrwt>0</asrwt>
<pdfrwt beam="1">  1        1 0.24813125E+00 0.21179814E+04</pdfrwt>
<pdfrwt beam="2">  1       -1 0.10697347E+00 0.21179814E+04</pdfrwt>
<totfact> 0.40919904E+00</totfact>
</mgrwt>
</event>
<event>
12    1  0.1442183E-007  0.1700955E+04  0.7818608E-02  0.8760820E-01
         -1   -1    0    0    0  501 -0.00000000000E+00  0.00000000000E+00  0.67222598618E+03  0.67222598618E+03  0.00000000000E+00 0.  1.
          1   -1    0    0  501    0  0.00000000000E+00 -0.00000000000E+00 -0.10759952477E+04  0.10759952477E+04  0.00000000000E+00 0. -1.
         23    2    1    2    0    0 -0.52972275111E+03 -0.27878632721E+03 -0.25600692179E+03  0.65606878073E+03  0.80985750359E+02 0.  0.
        254    2    1    2    0    0  0.52972275111E+03  0.27878632721E+03 -0.14776233971E+03  0.10921524531E+04  0.90146284592E+03 0.  0.
        -24    2    4    4    0    0 -0.15885807863E+03  0.30008694559E+03 -0.19197999925E+03  0.39793569426E+03  0.78793607604E+02 0.  0.
         24    2    4    4    0    0  0.68858082974E+03 -0.21300618372E+02  0.44217659533E+02  0.69421675887E+03  0.73378685330E+02 0.  0.
         13    1    3    3    0    0 -0.10897960941E+03 -0.69306960373E+02 -0.21933134693E+02  0.13100027642E+03  0.00000000000E+00 0.  1.
        -13    1    3    3    0    0 -0.42074314170E+03 -0.20947936684E+03 -0.23407378709E+03  0.52506850431E+03  0.00000000000E+00 0. -1.
          4    1    6    6  502    0  0.21924754555E+03  0.22826657113E+02  0.31237157648E+02  0.22263490859E+03  0.00000000000E+00 0. -1.
          1    1    5    5  503    0 -0.96705070849E+01  0.84445828103E+02 -0.62429391448E+02  0.10546110898E+03  0.00000000000E+00 0. -1.
         -2    1    5    5    0  503 -0.14918757155E+03  0.21564111748E+03 -0.12955060780E+03  0.29247458528E+03  0.00000000000E+00 0.  1.
         -3    1    6    6    0  502  0.46933328419E+03 -0.44127275485E+02  0.12980501885E+02  0.47158185029E+03  0.00000000000E+00 0.  1.
<mgrwt>
<rscale>  0 0.17009550E+04</rscale>
<asrwt>0</asrwt>
<pdfrwt beam="1">  1        1 0.16553773E+00 0.17009550E+04</pdfrwt>
<pdfrwt beam="2">  1       -1 0.10341938E+00 0.17009550E+04</pdfrwt>
<totfact> 0.11096824E+01</totfact>
</mgrwt>
</event>
<event>
12    1  0.1442183E-007  0.1966830E+04  0.7818608E-02  0.8622288E-01
          1   -1    0    0  501    0  0.00000000000E+00  0.00000000000E+00  0.12593260082E+04  0.12593260082E+04  0.00000000000E+00 0. -1.
         -1   -1    0    0    0  501 -0.00000000000E+00 -0.00000000000E+00 -0.76795438221E+03  0.76795438221E+03  0.00000000000E+00 0.  1.
         23    2    1    2    0    0 -0.24151646702E+02  0.71834183448E+03 -0.92002808072E+02  0.73078013629E+03  0.94745964018E+02 0.  0.
        254    2    1    2    0    0  0.24151646702E+02 -0.71834183448E+03  0.58337443403E+03  0.12965002541E+04  0.90773833531E+03 0.  0.
        -24    2    4    4    0    0  0.14030902420E+03  0.58654682814E+02  0.46782781026E+03  0.49842523492E+03  0.80236280167E+02 0.  0.
         24    2    4    4    0    0 -0.11615737750E+03 -0.77699651729E+03  0.11554662376E+03  0.79807501918E+03  0.79728224239E+02 0.  0.
         13    1    3    3    0    0 -0.29157508395E+02  0.71570488143E+03 -0.84328200198E+02  0.72124536945E+03  0.00000000000E+00 0. -1.
        -13    1    3    3    0    0  0.50058616928E+01  0.26369530472E+01 -0.76746078743E+01  0.95347668395E+01  0.00000000000E+00 0.  1.
          4    1    6    6  502    0 -0.10232894122E+03 -0.59063586103E+03  0.11917589990E+03  0.61116677565E+03  0.00000000000E+00 0. -1.
          3    1    5    5  503    0  0.14410195021E+03  0.46704761534E+02  0.45827813967E+03  0.48266505996E+03  0.00000000000E+00 0. -1.
         -4    1    5    5    0  503 -0.37929260008E+01  0.11949921280E+02  0.95496705896E+01  0.15760174955E+02  0.00000000000E+00 0.  1.
         -3    1    6    6    0  502 -0.13828436284E+02 -0.18636065626E+03 -0.36292761315E+01  0.18690824353E+03  0.00000000000E+00 0.  1.
<mgrwt>
<rscale>  0 0.19668299E+04</rscale>
<asrwt>0</asrwt>
<pdfrwt beam="1">  1        1 0.19374246E+00 0.19668299E+04</pdfrwt>
<pdfrwt beam="2">  1       -1 0.11814683E+00 0.19668299E+04</pdfrwt>
<totfact> 0.57889949E+00</totfact>
</mgrwt>
</event>
<event>
12    1  0.1442183E-007  0.2014847E+04  0.7818608E-02  0.8599710E-01
          2   -1    0    0  501    0  0.00000000000E+00  0.00000000000E+00  0.83183568718E+03  0.83183568718E+03  0.00000000000E+00 0. -1.
         -2   -1    0    0    0  501 -0.00000000000E+00 -0.00000000000E+00 -0.12200754753E+04  0.12200754753E+04  0.00000000000E+00 0.  1.
         23    2    1    2    0    0  0.15099180061E+03  0.55963424178E+03  0.40587901818E+03  0.71356156599E+03  0.91887554307E+02 0.  0.
        254    2    1    2    0    0 -0.15099180061E+03 -0.55963424178E+03 -0.79411880627E+03  0.13383495965E+04  0.90805614114E+03 0.  0.
        -24    2    4    4    0    0  0.13228987254E+03 -0.19925775186E+03  0.14475235252E+03  0.29048135055E+03  0.78879080891E+02 0.  0.
         24    2    4    4    0    0 -0.28328167315E+03 -0.36037648992E+03 -0.93887115879E+03  0.10478682459E+04  0.80181588687E+02 0.  0.
         11    1    3    3    0    0  0.10997981280E+03  0.36247199338E+03  0.21229810393E+03  0.43422573639E+03  0.00000000000E+00 0. -1.
        -11    1    3    3    0    0  0.41011987807E+02  0.19716224839E+03  0.19358091425E+03  0.27933582960E+03  0.00000000000E+00 0.  1.
          2    1    6    6  502    0  0.28420595325E+01 -0.16793082412E+02 -0.51019486703E+02  0.53787293506E+02  0.00000000000E+00 0. -1.
          3    1    5    5  503    0  0.14319897735E+02 -0.89730469726E+02  0.51440522859E+02  0.10441620593E+03  0.00000000000E+00 0. -1.
         -4    1    5    5    0  503  0.11796997480E+03 -0.10952728213E+03  0.93311829660E+02  0.18606514462E+03  0.00000000000E+00 0.  1.
         -3    1    6    6    0  502 -0.28612373268E+03 -0.34358340751E+03 -0.88785167209E+03  0.99408095241E+03  0.00000000000E+00 0.  1.
<mgrwt>
<rscale>  0 0.20148472E+04</rscale>
<asrwt>0</asrwt>
<pdfrwt beam="1">  1        2 0.12797472E+00 0.20148472E+04</pdfrwt>
<pdfrwt beam="2">  1       -2 0.18770392E+00 0.20148472E+04</pdfrwt>
<totfact> 0.48694948E+00</totfact>
</mgrwt>
</event>
<event>
12    1  0.1442183E-007  0.2597597E+04  0.7818608E-02  0.8369018E-01
          2   -1    0    0  501    0  0.00000000000E+00  0.00000000000E+00  0.20505000402E+04  0.20505000402E+04  0.00000000000E+00 0. -1.
         -2   -1    0    0    0  501 -0.00000000000E+00 -0.00000000000E+00 -0.82266631580E+03  0.82266631580E+03  0.00000000000E+00 0.  1.
         23    2    1    2    0    0  0.20632700920E+03 -0.23952388516E+03 -0.67636978389E+03  0.75324891140E+03  0.99826407765E+02 0.  0.
        254    2    1    2    0    0 -0.20632700920E+03  0.23952388516E+03  0.19042035082E+04  0.21199174446E+04  0.87642252633E+03 0.  0.
        -24    2    4    4    0    0 -0.33006582780E+03  0.36487724335E+03  0.51244559251E+03  0.71483102025E+03  0.79398040500E+02 0.  0.
         24    2    4    4    0    0  0.12373881860E+03 -0.12535335819E+03  0.13917579157E+04  0.14050864243E+04  0.79075938983E+02 0.  0.
         11    1    3    3    0    0  0.44996354048E+02 -0.21398185673E+02 -0.49716191736E+02  0.70386461400E+02  0.00000000000E+00 0. -1.
        -11    1    3    3    0    0  0.16133065515E+03 -0.21812569949E+03 -0.62665359215E+03  0.68286245000E+03  0.00000000000E+00 0.  1.
          4    1    6    6  502    0  0.85304406396E+02 -0.77095417698E+02  0.11439745784E+04  0.11497383969E+04  0.00000000000E+00 0. -1.
          1    1    5    5  503    0 -0.19101133678E+03  0.23286777643E+03  0.26040835120E+03  0.39815228425E+03  0.00000000000E+00 0. -1.
         -2    1    5    5    0  503 -0.13905449102E+03  0.13200946692E+03  0.25203724131E+03  0.31667873600E+03  0.00000000000E+00 0.  1.
         -3    1    6    6    0  502  0.38434412203E+02 -0.48257940493E+02  0.24778333729E+03  0.25534802740E+03  0.00000000000E+00 0.  1.
<mgrwt>
<rscale>  0 0.25975968E+04</rscale>
<asrwt>0</asrwt>
<pdfrwt beam="1">  1        2 0.31546154E+00 0.25975968E+04</pdfrwt>
<pdfrwt beam="2">  1       -2 0.12656405E+00 0.25975968E+04</pdfrwt>
<totfact> 0.25746396E+00</totfact>
</mgrwt>
</event>
<event>
12    1  0.1442183E-007  0.1485846E+04  0.7818608E-02  0.8893920E-01
         -2   -1    0    0    0  501 -0.00000000000E+00  0.00000000000E+00  0.90635834852E+03  0.90635834852E+03  0.00000000000E+00 0. -1.
          2   -1    0    0  501    0  0.00000000000E+00 -0.00000000000E+00 -0.60895879302E+03  0.60895879302E+03  0.00000000000E+00 0.  1.
         23    2    1    2    0    0 -0.24302990597E+03 -0.26510230733E+03 -0.19837743208E+03  0.42100990880E+03  0.92482264247E+02 0.  0.
        254    2    1    2    0    0  0.24302990597E+03  0.26510230733E+03  0.49577698758E+03  0.10943072327E+04  0.90684658551E+03 0.  0.
        -24    2    4    4    0    0  0.35380344157E+03 -0.23830693016E+03  0.33510837162E+03  0.54845235121E+03  0.80841156505E+02 0.  0.
         24    2    4    4    0    0 -0.11077353560E+03  0.50340923749E+03  0.16066861596E+03  0.54585488153E+03  0.80321298231E+02 0.  0.
         11    1    3    3    0    0 -0.16141917003E+01 -0.26463230016E+02  0.24021542745E+01  0.26621016188E+02  0.00000000000E+00 0. -1.
        -11    1    3    3    0    0 -0.24141571427E+03 -0.23863907732E+03 -0.20077958635E+03  0.39438889261E+03  0.00000000000E+00 0.  1.
          4    1    6    6  502    0 -0.10087832073E+03  0.27634596663E+03  0.82920407826E+02  0.30564574739E+03  0.00000000000E+00 0. -1.
          3    1    5    5  503    0  0.21354283946E+03 -0.97125530240E+02  0.19520541310E+03  0.30518693650E+03  0.00000000000E+00 0. -1.
         -4    1    5    5    0  503  0.14026060211E+03 -0.14118139992E+03  0.13990295853E+03  0.24326541470E+03  0.00000000000E+00 0.  1.
         -1    1    6    6    0  502 -0.98952148664E+01  0.22706327087E+03  0.77748208138E+02  0.24020913414E+03  0.00000000000E+00 0.  1.
<mgrwt>
<rscale>  0 0.14858464E+04</rscale>
<asrwt>0</asrwt>
<pdfrwt beam="1">  1        2 0.93685968E-01 0.14858464E+04</pdfrwt>
<pdfrwt beam="2">  1       -2 0.13943975E+00 0.14858464E+04</pdfrwt>
<totfact> 0.17089265E+01</totfact>
</mgrwt>
</event>
<event>
12    1  0.1442183E-007  0.1831442E+04  0.7818608E-02  0.8689756E-01
         -2   -1    0    0    0  501 -0.00000000000E+00  0.00000000000E+00  0.81662053233E+03  0.81662053233E+03  0.00000000000E+00 0. -1.
          2   -1    0    0  501    0  0.00000000000E+00 -0.00000000000E+00 -0.10268473260E+04  0.10268473260E+04  0.00000000000E+00 0.  1.
         23    2    1    2    0    0 -0.37839216717E+03  0.49084380963E+03  0.22941878405E+03  0.66704510232E+03  0.90597529926E+02 0.  0.
        254    2    1    2    0    0  0.37839216717E+03 -0.49084380963E+03 -0.43964557774E+03  0.11764227560E+04  0.89809464382E+03 0.  0.
        -24    2    4    4    0    0  0.56040343092E+03 -0.62029827663E+03 -0.27039633912E+03  0.88226559296E+03  0.80351969106E+02 0.  0.
         24    2    4    4    0    0 -0.18201126375E+03  0.12945446700E+03 -0.16924923861E+03  0.29415716306E+03  0.89423557589E+02 0.  0.
         13    1    3    3    0    0 -0.31872317185E+03  0.44806438683E+03  0.18012105519E+03  0.57861018790E+03  0.00000000000E+00 0. -1.
        -13    1    3    3    0    0 -0.59668995320E+02  0.42779422793E+02  0.49297728860E+02  0.88434914416E+02  0.00000000000E+00 0.  1.
          2    1    6    6  502    0 -0.15591731210E+03  0.61900692983E+02 -0.11016890586E+03  0.20069651672E+03  0.00000000000E+00 0. -1.
          1    1    5    5  503    0  0.35436297511E+03 -0.44505609981E+03 -0.19628762057E+03  0.60181133264E+03  0.00000000000E+00 0. -1.
         -2    1    5    5    0  503  0.20604045581E+03 -0.17524217682E+03 -0.74108718557E+02  0.28045426032E+03  0.00000000000E+00 0.  1.
         -1    1    6    6    0  502 -0.26093951647E+02  0.67553774019E+02 -0.59080332749E+02  0.93460646341E+02  0.00000000000E+00 0.  1.
<mgrwt>
<rscale>  0 0.18314416E+04</rscale>
<asrwt>0</asrwt>
<pdfrwt beam="1">  1        2 0.15797651E+00 0.18314416E+04</pdfrwt>
<pdfrwt beam="2">  1       -2 0.12563393E+00 0.18314416E+04</pdfrwt>
<totfact> 0.10794720E+01</totfact>
</mgrwt>
</event>
<event>
12    1  0.1442183E-007  0.1269038E+04  0.7818608E-02  0.9054485E-01
         -4   -1    0    0    0  501 -0.00000000000E+00  0.00000000000E+00  0.64573048567E+03  0.64573048567E+03  0.00000000000E+00 0.  1.
          4   -1    0    0  501    0  0.00000000000E+00 -0.00000000000E+00 -0.62350182921E+03  0.62350182921E+03  0.00000000000E+00 0. -1.
         23    2    1    2    0    0 -0.19208272400E+03  0.99107486462E+01  0.23576857477E+03  0.31733446185E+03  0.90112951546E+02 0.  0.
        254    2    1    2    0    0  0.19208272400E+03 -0.99107486462E+01 -0.21353991831E+03  0.95189785302E+03  0.90747795019E+03 0.  0.
        -24    2    4    4    0    0  0.36063136300E+03  0.34205376713E+03 -0.22991678111E+03  0.55307888677E+03  0.77322501062E+02 0.  0.
         24    2    4    4    0    0 -0.16854863900E+03 -0.35196451578E+03  0.16376862798E+02  0.39881896625E+03  0.80626931776E+02 0.  0.
         13    1    3    3    0    0 -0.11491264642E+02  0.15938287662E+02 -0.78535856447E+00  0.19664561137E+02  0.00000000000E+00 0. -1.
        -13    1    3    3    0    0 -0.18059145935E+03 -0.60275390155E+01  0.23655393333E+03  0.29766990072E+03  0.00000000000E+00 0.  1.
          2    1    6    6  502    0 -0.13414494356E+03 -0.18817996557E+03  0.11707412660E+02  0.23139496286E+03  0.00000000000E+00 0. -1.
          3    1    5    5  503    0  0.83345215781E+02  0.45384704328E+02 -0.63706830366E+02  0.11430116629E+03  0.00000000000E+00 0. -1.
         -4    1    5    5    0  503  0.27728614722E+03  0.29666906280E+03 -0.16620995075E+03  0.43877772048E+03  0.00000000000E+00 0.  1.
         -1    1    6    6    0  502 -0.34403695444E+02 -0.16378455021E+03  0.46694501380E+01  0.16742400339E+03  0.00000000000E+00 0.  1.
<mgrwt>
<rscale>  0 0.12690376E+04</rscale>
<asrwt>0</asrwt>
<pdfrwt beam="1">  1        4 0.95923358E-01 0.12690376E+04</pdfrwt>
<pdfrwt beam="2">  1       -4 0.99343152E-01 0.12690376E+04</pdfrwt>
<totfact> 0.14987301E+00</totfact>
</mgrwt>
</event>
<event>
12    1  0.1442183E-007  0.1571167E+04  0.7818608E-02  0.8838460E-01
         -2   -1    0    0    0  501 -0.00000000000E+00  0.00000000000E+00  0.30224202771E+03  0.30224202771E+03  0.00000000000E+00 0.  1.
          2   -1    0    0  501    0  0.00000000000E+00 -0.00000000000E+00 -0.20418779965E+04  0.20418779965E+04  0.00000000000E+00 0. -1.
         23    2    1    2    0    0  0.25453858026E+03  0.37524210448E+03 -0.20384343366E+03  0.50548399250E+03  0.91462535565E+02 0.  0.
        254    2    1    2    0    0 -0.25453858026E+03 -0.37524210448E+03 -0.15357925351E+04  0.18386360317E+04  0.90350828459E+03 0.  0.
        -24    2    4    4    0    0 -0.29955386927E+03 -0.21538559063E+03 -0.15988914105E+04  0.16429650883E+04  0.82201371994E+02 0.  0.
         24    2    4    4    0    0  0.45015289007E+02 -0.15985651385E+03  0.63098875416E+02  0.19567094337E+03  0.82007126124E+02 0.  0.
         13    1    3    3    0    0  0.69243560657E+02  0.12568067234E+03 -0.10997572760E+03  0.18078983034E+03  0.00000000000E+00 0. -1.
        -13    1    3    3    0    0  0.18529501960E+03  0.24956143214E+03 -0.93867706061E+02  0.32469416216E+03  0.00000000000E+00 0.  1.
          2    1    6    6  502    0  0.59866100112E+02 -0.12928299922E+03  0.73249092343E+02  0.16019823145E+03  0.00000000000E+00 0. -1.
          3    1    5    5  503    0 -0.21416189612E+03 -0.15742063041E+03 -0.12959428540E+04  0.13229189142E+04  0.00000000000E+00 0. -1.
         -4    1    5    5    0  503 -0.85391973146E+02 -0.57964960219E+02 -0.30294855650E+03  0.32004617413E+03  0.00000000000E+00 0.  1.
         -1    1    6    6    0  502 -0.14850811105E+02 -0.30573514627E+02 -0.10150216927E+02  0.35472711918E+02  0.00000000000E+00 0.  1.
<mgrwt>
<rscale>  0 0.15711669E+04</rscale>
<asrwt>0</asrwt>
<pdfrwt beam="1">  1        2 0.31413507E+00 0.15711669E+04</pdfrwt>
<pdfrwt beam="2">  1       -2 0.46498775E-01 0.15711669E+04</pdfrwt>
<totfact> 0.26691801E+01</totfact>
</mgrwt>
</event>
<event>
12    1  0.1442183E-007  0.2353782E+04  0.7818608E-02  0.8457013E-01
         -1   -1    0    0    0  501 -0.00000000000E+00  0.00000000000E+00  0.71272912965E+03  0.71272912965E+03  0.00000000000E+00 0.  1.
          1   -1    0    0  501    0  0.00000000000E+00 -0.00000000000E+00 -0.19433357062E+04  0.19433357062E+04  0.00000000000E+00 0. -1.
         23    2    1    2    0    0 -0.23443464545E+03 -0.18247842944E+03 -0.16107991285E+04  0.16408742008E+04  0.97654137466E+02 0.  0.
        254    2    1    2    0    0  0.23443464545E+03  0.18247842944E+03  0.38019255187E+03  0.10151906350E+04  0.89320079981E+03 0.  0.
        -24    2    4    4    0    0  0.17602244568E+03 -0.25894408094E+03 -0.11635320049E+03  0.34346843540E+03  0.79978499677E+02 0.  0.
         24    2    4    4    0    0  0.58412199767E+02  0.44142251039E+03  0.49654575236E+03  0.67172219965E+03  0.79920032215E+02 0.  0.
         11    1    3    3    0    0 -0.16890273077E+03 -0.18043955472E+03 -0.12738949630E+04  0.12976497764E+04  0.00000000000E+00 0. -1.
        -11    1    3    3    0    0 -0.65531914674E+02 -0.20388747278E+01 -0.33690416543E+03  0.34322442445E+03  0.00000000000E+00 0.  1.
          4    1    6    6  502    0  0.19048718110E+02  0.11566089163E+03  0.18652131516E+03  0.22029638337E+03  0.00000000000E+00 0. -1.
          1    1    5    5  503    0  0.60858856038E+02 -0.34182837728E+02 -0.35388669285E+02  0.78259981262E+02  0.00000000000E+00 0. -1.
         -2    1    5    5    0  503  0.11516358964E+03 -0.22476124322E+03 -0.80964531210E+02  0.26520845414E+03  0.00000000000E+00 0.  1.
         -3    1    6    6    0  502  0.39363481657E+02  0.32576161875E+03  0.31002443720E+03  0.45142581628E+03  0.00000000000E+00 0.  1.
<mgrwt>
<rscale>  0 0.23537816E+04</rscale>
<asrwt>0</asrwt>
<pdfrwt beam="1">  1        1 0.29897472E+00 0.23537816E+04</pdfrwt>
<pdfrwt beam="2">  1       -1 0.10965064E+00 0.23537816E+04</pdfrwt>
<totfact> 0.22521578E+00</totfact>
</mgrwt>
</event>
<event>
12    1  0.1442183E-007  0.1657593E+04  0.7818608E-02  0.8785927E-01
          1   -1    0    0  501    0  0.00000000000E+00  0.00000000000E+00  0.39330674559E+03  0.39330674559E+03  0.00000000000E+00 0. -1.
         -1   -1    0    0    0  501 -0.00000000000E+00 -0.00000000000E+00 -0.17464830692E+04  0.17464830692E+04  0.00000000000E+00 0.  1.
         23    2    1    2    0    0  0.31166142013E+03  0.59374605851E+02  0.14220041545E+03  0.36894853248E+03  0.12346609594E+03 0.  0.
        254    2    1    2    0    0 -0.31166142013E+03 -0.59374605851E+02 -0.14953767391E+04  0.17708412823E+04  0.89390663428E+03 0.  0.
        -24    2    4    4    0    0 -0.54738083439E+03  0.17565448361E+02 -0.13780316041E+04  0.14850356962E+04  0.80159804323E+02 0.  0.
         24    2    4    4    0    0  0.23571941427E+03 -0.76940054212E+02 -0.11734513501E+03  0.28580558617E+03  0.80196871314E+02 0.  0.
         11    1    3    3    0    0  0.18868361010E+03  0.83044920008E+02  0.46489163398E+02  0.21132724806E+03  0.00000000000E+00 0.  1.
        -11    1    3    3    0    0  0.12297781003E+03 -0.23670314157E+02  0.95711252053E+02  0.15762128442E+03  0.00000000000E+00 0. -1.
          2    1    6    6  502    0  0.25726360584E+02 -0.13235303192E+02 -0.47314360219E+02  0.55458701413E+02  0.00000000000E+00 0. -1.
          3    1    5    5  503    0 -0.21173703199E+03  0.15471668546E+02 -0.43479276373E+03  0.48385606397E+03  0.00000000000E+00 0. -1.
         -4    1    5    5    0  503 -0.33564380241E+03  0.20937798158E+01 -0.94323884035E+03  0.10011796322E+04  0.00000000000E+00 0.  1.
         -1    1    6    6    0  502  0.20999305368E+03 -0.63704751021E+02 -0.70030774796E+02  0.23034688475E+03  0.00000000000E+00 0.  1.
<mgrwt>
<rscale>  0 0.16575929E+04</rscale>
<asrwt>0</asrwt>
<pdfrwt beam="1">  1        1 0.60508730E-01 0.16575929E+04</pdfrwt>
<pdfrwt beam="2">  1       -1 0.26868970E+00 0.16575929E+04</pdfrwt>
<totfact> 0.30898987E+00</totfact>
</mgrwt>
</event>
<event>
12    1  0.1442183E-007  0.1463640E+04  0.7818608E-02  0.8908998E-01
          1   -1    0    0  501    0  0.00000000000E+00  0.00000000000E+00  0.10461431274E+04  0.10461431274E+04  0.00000000000E+00 0. -1.
         -1   -1    0    0    0  501 -0.00000000000E+00 -0.00000000000E+00 -0.51193809624E+03  0.51193809624E+03  0.00000000000E+00 0.  1.
         23    2    1    2    0    0  0.20791407829E+03 -0.10597040963E+02 -0.26020492419E+03  0.34556503597E+03  0.91476938551E+02 0.  0.
        254    2    1    2    0    0 -0.20791407829E+03  0.10597040963E+02  0.79440995530E+03  0.12125161876E+04  0.89205816342E+03 0.  0.
        -24    2    4    4    0    0 -0.47486624464E+03 -0.68547034655E+02  0.15432808926E+03  0.51006883222E+03  0.78462782365E+02 0.  0.
         24    2    4    4    0    0  0.26695216635E+03  0.79144075618E+02  0.64008186605E+03  0.70244735540E+03  0.78741653769E+02 0.  0.
         13    1    3    3    0    0  0.60380974910E+02 -0.13292816850E+02 -0.14735704865E+03  0.15980194272E+03  0.00000000000E+00 0.  1.
        -13    1    3    3    0    0  0.14753310338E+03  0.26957758872E+01 -0.11284787554E+03  0.18576309325E+03  0.00000000000E+00 0. -1.
          2    1    6    6  502    0  0.25640283476E+03  0.58794312416E+02  0.55268560446E+03  0.61209522317E+03  0.00000000000E+00 0. -1.
          1    1    5    5  503    0 -0.40104408637E+03 -0.32189196506E+02  0.11254280755E+03  0.41777791602E+03  0.00000000000E+00 0. -1.
         -2    1    5    5    0  503 -0.73822158268E+02 -0.36357838149E+02  0.41785281708E+02  0.92290916204E+02  0.00000000000E+00 0.  1.
         -1    1    6    6    0  502  0.10549331590E+02  0.20349763201E+02  0.87396261587E+02  0.90352132231E+02  0.00000000000E+00 0.  1.
<mgrwt>
<rscale>  0 0.14636400E+04</rscale>
<asrwt>0</asrwt>
<pdfrwt beam="1">  1        1 0.16094510E+00 0.14636400E+04</pdfrwt>
<pdfrwt beam="2">  1       -1 0.78759707E-01 0.14636400E+04</pdfrwt>
<totfact> 0.21804617E+01</totfact>
</mgrwt>
</event>
<event>
12    1  0.1442183E-007  0.3494116E+04  0.7818608E-02  0.8115186E-01
          2   -1    0    0  501    0  0.00000000000E+00  0.00000000000E+00  0.36640598133E+04  0.36640598133E+04  0.00000000000E+00 0. -1.
         -2   -1    0    0    0  501 -0.00000000000E+00 -0.00000000000E+00 -0.83301339075E+03  0.83301339075E+03  0.00000000000E+00 0.  1.
         23    2    1    2    0    0 -0.24632283883E+03  0.43617497326E+03  0.33197130833E+04  0.33590022274E+04  0.10713290935E+03 0.  0.
        254    2    1    2    0    0  0.24632283883E+03 -0.43617497326E+03 -0.48866666076E+03  0.11380709766E+04  0.89748921678E+03 0.  0.
        -24    2    4    4    0    0 -0.26458590146E+03 -0.16453353157E+03 -0.44925160188E+03  0.55250111694E+03  0.79708846193E+02 0.  0.
         24    2    4    4    0    0  0.51090874029E+03 -0.27164144170E+03 -0.39415058874E+02  0.58556985967E+03  0.80757042646E+02 0.  0.
         11    1    3    3    0    0 -0.10176138609E+01  0.19096808195E+02  0.31484017600E+03  0.31542044963E+03  0.00000000000E+00 0.  1.
        -11    1    3    3    0    0 -0.24530522497E+03  0.41707816507E+03  0.30048729073E+04  0.30435817778E+04  0.00000000000E+00 0. -1.
          2    1    6    6  502    0  0.29844395875E+03 -0.20152887452E+03 -0.34740923645E+02  0.36178669898E+03  0.00000000000E+00 0. -1.
          3    1    5    5  503    0 -0.18024745533E+03 -0.15287376143E+03 -0.32355655534E+03  0.40068488441E+03  0.00000000000E+00 0. -1.
         -4    1    5    5    0  503 -0.84338446129E+02 -0.11659770138E+02 -0.12569504654E+03  0.15181623253E+03  0.00000000000E+00 0.  1.
         -1    1    6    6    0  502  0.21246478154E+03 -0.70112567178E+02 -0.46741352282E+01  0.22378316070E+03  0.00000000000E+00 0.  1.
<mgrwt>
<rscale>  0 0.34941156E+04</rscale>
<asrwt>0</asrwt>
<pdfrwt beam="1">  1        2 0.56370150E+00 0.34941156E+04</pdfrwt>
<pdfrwt beam="2">  1       -2 0.12815591E+00 0.34941156E+04</pdfrwt>
<totfact> 0.22919489E-01</totfact>
</mgrwt>
</event>
<event>
12    1  0.1442183E-007  0.2065613E+04  0.7818608E-02  0.8576544E-01
         -1   -1    0    0    0  501 -0.00000000000E+00  0.00000000000E+00  0.81845671624E+03  0.81845671624E+03  0.00000000000E+00 0.  1.
          1   -1    0    0  501    0  0.00000000000E+00 -0.00000000000E+00 -0.13032934413E+04  0.13032934413E+04  0.00000000000E+00 0. -1.
         23    2    1    2    0    0  0.24184162646E+03 -0.67384506050E+03  0.26418312643E+03  0.76874464163E+03  0.92849673590E+02 0.  0.
        254    2    1    2    0    0 -0.24184162646E+03  0.67384506050E+03 -0.74901985152E+03  0.13530055159E+04  0.87007968045E+03 0.  0.
        -24    2    4    4    0    0  0.10842729382E+03  0.11686079955E+03 -0.66018186099E+03  0.68411032777E+03  0.82182275831E+02 0.  0.
         24    2    4    4    0    0 -0.35026892028E+03  0.55698426095E+03 -0.88837990531E+02  0.66889518817E+03  0.81294530766E+02 0.  0.
         13    1    3    3    0    0  0.76725190986E+02 -0.25988409372E+03  0.55354585655E+02  0.27656938958E+03  0.00000000000E+00 0. -1.
        -13    1    3    3    0    0  0.16511643548E+03 -0.41396096678E+03  0.20882854077E+03  0.49217525205E+03  0.00000000000E+00 0.  1.
          2    1    6    6  502    0 -0.19337207121E+03  0.37772564934E+03 -0.68037444013E+02  0.42976565461E+03  0.00000000000E+00 0. -1.
          3    1    5    5  503    0  0.10546889332E+03  0.11713536495E+03 -0.50781803051E+03  0.53171753149E+03  0.00000000000E+00 0. -1.
         -4    1    5    5    0  503  0.29584005038E+01 -0.27456539953E+00 -0.15236383047E+03  0.15239279627E+03  0.00000000000E+00 0.  1.
         -3    1    6    6    0  502 -0.15689684908E+03  0.17925861161E+03 -0.20800546519E+02  0.23912953357E+03  0.00000000000E+00 0.  1.
<mgrwt>
<rscale>  0 0.20656130E+04</rscale>
<asrwt>0</asrwt>
<pdfrwt beam="1">  1        1 0.20050668E+00 0.20656130E+04</pdfrwt>
<pdfrwt beam="2">  1       -1 0.12591642E+00 0.20656130E+04</pdfrwt>
<totfact> 0.45605889E+00</totfact>
</mgrwt>
</event>
<event>
12    1  0.1442183E-007  0.1605974E+04  0.7818608E-02  0.8816886E-01
          1   -1    0    0  501    0  0.00000000000E+00  0.00000000000E+00  0.49160043008E+03  0.49160043008E+03  0.00000000000E+00 0. -1.
         -1   -1    0    0    0  501 -0.00000000000E+00 -0.00000000000E+00 -0.13116106838E+04  0.13116106838E+04  0.00000000000E+00 0.  1.
         23    2    1    2    0    0 -0.13178205745E+03  0.20197838670E+03 -0.83499998865E+03  0.87388465535E+03  0.91036423709E+02 0.  0.
        254    2    1    2    0    0  0.13178205745E+03 -0.20197838670E+03  0.14989734965E+02  0.92932645851E+03  0.89736346871E+03 0.  0.
        -24    2    4    4    0    0  0.13541863542E+03  0.23453800614E+03 -0.27868553333E+03  0.39686633199E+03  0.80566592555E+02 0.  0.
         24    2    4    4    0    0 -0.36365779720E+01 -0.43651639284E+03  0.29367526829E+03  0.53246012653E+03  0.81907491821E+02 0.  0.
         11    1    3    3    0    0 -0.14164418359E+03  0.15608203861E+03 -0.69018569103E+03  0.72165155416E+03  0.00000000000E+00 0.  1.
        -11    1    3    3    0    0  0.98621261470E+01  0.45896348094E+02 -0.14481429762E+03  0.15223310119E+03  0.00000000000E+00 0. -1.
          4    1    6    6  502    0  0.34674883074E+02 -0.18122070818E+03  0.14403539481E+03  0.23407154365E+03  0.00000000000E+00 0. -1.
          1    1    5    5  503    0  0.73157511738E+00  0.11042331463E+02  0.43572377351E+01  0.11893435457E+02  0.00000000000E+00 0. -1.
         -2    1    5    5    0  503  0.13468706030E+03  0.22349567468E+03 -0.28304277106E+03  0.38497289653E+03  0.00000000000E+00 0.  1.
         -3    1    6    6    0  502 -0.38311461046E+02 -0.25529568466E+03  0.14963987348E+03  0.29838858287E+03  0.00000000000E+00 0.  1.
<mgrwt>
<rscale>  0 0.16059743E+04</rscale>
<asrwt>0</asrwt>
<pdfrwt beam="1">  1        1 0.75630835E-01 0.16059743E+04</pdfrwt>
<pdfrwt beam="2">  1       -1 0.20178626E+00 0.16059743E+04</pdfrwt>
<totfact> 0.63648564E+00</totfact>
</mgrwt>
</event>
<event>
12    1  0.1442183E-007  0.1194839E+04  0.7818608E-02  0.9117386E-01
         -1   -1    0    0    0  501 -0.00000000000E+00  0.00000000000E+00  0.23037271968E+03  0.23037271968E+03  0.00000000000E+00 0.  1.
          1   -1    0    0  501    0  0.00000000000E+00 -0.00000000000E+00 -0.15492728151E+04  0.15492728151E+04  0.00000000000E+00 0. -1.
         23    2    1    2    0    0 -0.18228806601E+03  0.15211866368E+03 -0.32012591968E+03  0.40783926865E+03  0.86505709378E+02 0.  0.
        254    2    1    2    0    0  0.18228806601E+03 -0.15211866368E+03 -0.99877417576E+03  0.13718062661E+04  0.90990853981E+03 0.  0.
        -24    2    4    4    0    0 -0.17865501913E+03 -0.42050257237E+03 -0.36404275614E+03  0.58981258954E+03  0.81312565169E+02 0.  0.
         24    2    4    4    0    0  0.36094308514E+03  0.26838390868E+03 -0.63473141962E+03  0.78199367660E+03  0.79500327328E+02 0.  0.
         11    1    3    3    0    0 -0.45470432039E+02 -0.33441155324E+01 -0.58561274223E+02  0.74217020536E+02  0.00000000000E+00 0. -1.
        -11    1    3    3    0    0 -0.13681763397E+03  0.15546277921E+03 -0.26156464545E+03  0.33362224812E+03  0.00000000000E+00 0.  1.
          4    1    6    6  502    0  0.20388399966E+03  0.18145907025E+03 -0.43413451659E+03  0.51280489271E+03  0.00000000000E+00 0. -1.
          3    1    5    5  503    0 -0.90756687843E+02 -0.29033455573E+03 -0.27008407205E+03  0.40678782752E+03  0.00000000000E+00 0. -1.
         -4    1    5    5    0  503 -0.87898331289E+02 -0.13016801663E+03 -0.93958684090E+02  0.18302476202E+03  0.00000000000E+00 0.  1.
         -3    1    6    6    0  502  0.15705908548E+03  0.86924838438E+02 -0.20059690302E+03  0.26918878389E+03  0.00000000000E+00 0.  1.
<mgrwt>
<rscale>  0 0.11948392E+04</rscale>
<asrwt>0</asrwt>
<pdfrwt beam="1">  1        1 0.23834966E+00 0.11948392E+04</pdfrwt>
<pdfrwt beam="2">  1       -1 0.35441958E-01 0.11948392E+04</pdfrwt>
<totfact> 0.45421585E+01</totfact>
</mgrwt>
</event>
<event>
12    1  0.1442183E-007  0.1789821E+04  0.7818608E-02  0.8711732E-01
         -1   -1    0    0    0  501 -0.00000000000E+00  0.00000000000E+00  0.58063333981E+03  0.58063333981E+03  0.00000000000E+00 0.  1.
          1   -1    0    0  501    0  0.00000000000E+00 -0.00000000000E+00 -0.13792945791E+04  0.13792945791E+04  0.00000000000E+00 0. -1.
         23    2    1    2    0    0  0.54768026134E+03  0.38023595568E+03 -0.31759604787E+03  0.74261809251E+03  0.77982889415E+02 0.  0.
        254    2    1    2    0    0 -0.54768026134E+03 -0.38023595568E+03 -0.48106519146E+03  0.12173098264E+04  0.89771178251E+03 0.  0.
        -24    2    4    4    0    0 -0.32765475240E+03 -0.49942186020E+03  0.70215233555E+02  0.60660015794E+03  0.79080600530E+02 0.  0.
         24    2    4    4    0    0 -0.22002550894E+03  0.11918590452E+03 -0.55128042502E+03  0.61070966850E+03  0.80247665194E+02 0.  0.
         13    1    3    3    0    0  0.47795893329E+02  0.34305661492E+02 -0.54579786772E+02  0.80251348609E+02  0.00000000000E+00 0.  1.
        -13    1    3    3    0    0  0.49988436801E+03  0.34593029419E+03 -0.26301626110E+03  0.66236674390E+03  0.00000000000E+00 0. -1.
          4    1    6    6  502    0 -0.14519355710E+03  0.10921266729E+03 -0.32724411391E+03  0.37429571973E+03  0.00000000000E+00 0. -1.
          3    1    5    5  503    0 -0.93037554159E+01 -0.52261147167E+01  0.11702765548E+02  0.15837514368E+02  0.00000000000E+00 0. -1.
         -4    1    5    5    0  503 -0.31835099698E+03 -0.49419574548E+03  0.58512468006E+02  0.59076264358E+03  0.00000000000E+00 0.  1.
         -3    1    6    6    0  502 -0.74831951842E+02  0.99732372292E+01 -0.22403631111E+03  0.23641394877E+03  0.00000000000E+00 0.  1.
<mgrwt>
<rscale>  0 0.17898206E+04</rscale>
<asrwt>0</asrwt>
<pdfrwt beam="1">  1        1 0.21219917E+00 0.17898206E+04</pdfrwt>
<pdfrwt beam="2">  1       -1 0.89328206E-01 0.17898206E+04</pdfrwt>
<totfact> 0.92152821E+00</totfact>
</mgrwt>
</event>
<event>
12    1  0.1442183E-007  0.2488691E+04  0.7818608E-02  0.8407025E-01
         -1   -1    0    0    0  501 -0.00000000000E+00  0.00000000000E+00  0.96616255227E+03  0.96616255227E+03  0.00000000000E+00 0.  1.
          1   -1    0    0  501    0  0.00000000000E+00 -0.00000000000E+00 -0.16026246464E+04  0.16026246464E+04  0.00000000000E+00 0. -1.
         23    2    1    2    0    0 -0.38828368751E+03 -0.18256597907E+02 -0.13187993104E+04  0.13776622022E+04  0.87315501622E+02 0.  0.
        254    2    1    2    0    0  0.38828368751E+03  0.18256597907E+02  0.68233721628E+03  0.11911249965E+04  0.89559876907E+03 0.  0.
        -24    2    4    4    0    0  0.64721975548E+03 -0.13148687303E+03  0.43159684898E+03  0.79298404519E+03  0.79785000024E+02 0.  0.
         24    2    4    4    0    0 -0.25893606796E+03  0.14974347094E+03  0.25074036730E+03  0.39814095128E+03  0.78577928913E+02 0.  0.
         11    1    3    3    0    0 -0.13978212536E+03  0.30519969364E+01 -0.34090752425E+03  0.36846478440E+03  0.00000000000E+00 0.  1.
        -11    1    3    3    0    0 -0.24850156215E+03 -0.21308594843E+02 -0.97789178617E+03  0.10091974178E+04  0.00000000000E+00 0. -1.
          4    1    6    6  502    0 -0.23163080823E+03  0.12102669899E+03  0.24476932657E+03  0.35806747467E+03  0.00000000000E+00 0. -1.
          3    1    5    5  503    0  0.55060439109E+03 -0.13595622347E+03  0.38614771922E+03  0.68611905035E+03  0.00000000000E+00 0. -1.
         -4    1    5    5    0  503  0.96615364384E+02  0.44693504336E+01  0.45449129755E+02  0.10686499485E+03  0.00000000000E+00 0.  1.
         -3    1    6    6    0  502 -0.27305259730E+02  0.28716771952E+02  0.59710407384E+01  0.40073476612E+02  0.00000000000E+00 0.  1.
<mgrwt>
<rscale>  0 0.24886912E+04</rscale>
<asrwt>0</asrwt>
<pdfrwt beam="1">  1        1 0.24655763E+00 0.24886912E+04</pdfrwt>
<pdfrwt beam="2">  1       -1 0.14864040E+00 0.24886912E+04</pdfrwt>
<totfact> 0.17670066E+00</totfact>
</mgrwt>
</event>
<event>
12    1  0.1442183E-007  0.1604858E+04  0.7818608E-02  0.8817569E-01
          1   -1    0    0  501    0  0.00000000000E+00  0.00000000000E+00  0.26683130964E+04  0.26683130964E+04  0.00000000000E+00 0. -1.
         -1   -1    0    0    0  501 -0.00000000000E+00 -0.00000000000E+00 -0.24131060971E+03  0.24131060971E+03  0.00000000000E+00 0.  1.
         23    2    1    2    0    0 -0.31236806637E+03  0.12525084013E+03  0.53164056395E+02  0.35238036885E+03  0.89910653533E+02 0.  0.
        254    2    1    2    0    0  0.31236806637E+03 -0.12525084013E+03  0.23738384303E+04  0.25572433373E+04  0.88945096044E+03 0.  0.
        -24    2    4    4    0    0  0.60575228545E+02  0.29491958420E+03  0.32848039606E+03  0.45251915623E+03  0.78913222553E+02 0.  0.
         24    2    4    4    0    0  0.25179283782E+03 -0.42017042433E+03  0.20453580343E+04  0.21047241811E+04  0.80197078511E+02 0.  0.
         11    1    3    3    0    0 -0.19087495913E+03  0.76579446459E+02  0.76510907176E+02  0.21943468404E+03  0.00000000000E+00 0. -1.
        -11    1    3    3    0    0 -0.12149310724E+03  0.48671393671E+02 -0.23346850781E+02  0.13294568481E+03  0.00000000000E+00 0.  1.
          2    1    6    6  502    0  0.12415441746E+03 -0.17548785766E+03  0.74440664301E+03  0.77482356554E+03  0.00000000000E+00 0. -1.
          3    1    5    5  503    0  0.30546024340E+02  0.12912189671E+03  0.20265068156E+03  0.24222473563E+03  0.00000000000E+00 0. -1.
         -4    1    5    5    0  503  0.30029204205E+02  0.16579768749E+03  0.12582971451E+03  0.21029442060E+03  0.00000000000E+00 0.  1.
         -1    1    6    6    0  502  0.12763842037E+03 -0.24468256668E+03  0.13009513913E+04  0.13299006155E+04  0.00000000000E+00 0.  1.
<mgrwt>
<rscale>  0 0.16048580E+04</rscale>
<asrwt>0</asrwt>
<pdfrwt beam="1">  1        1 0.41050969E+00 0.16048580E+04</pdfrwt>
<pdfrwt beam="2">  1       -1 0.37124711E-01 0.16048580E+04</pdfrwt>
<totfact> 0.69342773E+00</totfact>
</mgrwt>
</event>
<event>
12    1  0.1442183E-007  0.1197705E+04  0.7818608E-02  0.9114868E-01
          2   -1    0    0  501    0  0.00000000000E+00  0.00000000000E+00  0.90499587248E+03  0.90499587248E+03  0.00000000000E+00 0.  1.
         -2   -1    0    0    0  501 -0.00000000000E+00 -0.00000000000E+00 -0.39627167331E+03  0.39627167331E+03  0.00000000000E+00 0. -1.
         23    2    1    2    0    0 -0.17925597625E+03 -0.82589498349E+02  0.27182742347E+03  0.34793444404E+03  0.90633873056E+02 0.  0.
        254    2    1    2    0    0  0.17925597625E+03  0.82589498349E+02  0.23689677571E+03  0.95333310175E+03  0.90209211852E+03 0.  0.
        -24    2    4    4    0    0  0.43956497838E+03 -0.17368208540E+03  0.31328925052E+03  0.57172266239E+03  0.73032945946E+02 0.  0.
         24    2    4    4    0    0 -0.26030900213E+03  0.25627158375E+03 -0.76392474810E+02  0.38161043937E+03  0.79717099796E+02 0.  0.
         13    1    3    3    0    0  0.83754598470E+01 -0.13486485562E+02  0.11139951003E+02  0.19394126142E+02  0.00000000000E+00 0. -1.
        -13    1    3    3    0    0 -0.18763143609E+03 -0.69103012786E+02  0.26068747246E+03  0.32854031790E+03  0.00000000000E+00 0.  1.
          4    1    6    6  502    0 -0.87055352983E+02  0.10519845495E+03 -0.65598861598E+02  0.15148782146E+03  0.00000000000E+00 0. -1.
          1    1    5    5  503    0  0.44127719805E+02 -0.35771835543E+01  0.10716425691E+02  0.45551000834E+02  0.00000000000E+00 0. -1.
         -2    1    5    5    0  503  0.39543725857E+03 -0.17010490185E+03  0.30257282483E+03  0.52617166155E+03  0.00000000000E+00 0.  1.
         -3    1    6    6    0  502 -0.17325364915E+03  0.15107312879E+03 -0.10793613212E+02  0.23012261791E+03  0.00000000000E+00 0.  1.
<mgrwt>
<rscale>  0 0.11977049E+04</rscale>
<asrwt>0</asrwt>
<pdfrwt beam="1">  1        2 0.13923013E+00 0.11977049E+04</pdfrwt>
<pdfrwt beam="2">  1       -2 0.60964873E-01 0.11977049E+04</pdfrwt>
<totfact> 0.71907015E+01</totfact>
</mgrwt>
</event>
<event>
12    1  0.1442183E-007  0.2439246E+04  0.7818608E-02  0.8424955E-01
         -2   -1    0    0    0  501 -0.00000000000E+00  0.00000000000E+00  0.52855674223E+03  0.52855674223E+03  0.00000000000E+00 0.  1.
          2   -1    0    0  501    0  0.00000000000E+00 -0.00000000000E+00 -0.28142309274E+04  0.28142309274E+04  0.00000000000E+00 0. -1.
         23    2    1    2    0    0  0.94500204897E+03 -0.58737964279E+02 -0.16047314173E+04  0.18653951750E+04  0.89761996831E+02 0.  0.
        254    2    1    2    0    0 -0.94500204897E+03  0.58737964279E+02 -0.68094276781E+03  0.14773924946E+04  0.90693247219E+03 0.  0.
        -24    2    4    4    0    0 -0.22399928162E+03  0.55775470678E+02  0.21485127986E+03  0.32520445357E+03  0.79437288905E+02 0.  0.
         24    2    4    4    0    0 -0.72100276734E+03  0.29624936016E+01 -0.89579404767E+03  0.11521880410E+04  0.72363935714E+02 0.  0.
         13    1    3    3    0    0  0.37392654046E+03 -0.93244732899E+01 -0.55336594737E+03  0.66792355488E+03  0.00000000000E+00 0. -1.
        -13    1    3    3    0    0  0.57107550851E+03 -0.49413490989E+02 -0.10513654700E+04  0.11974716201E+04  0.00000000000E+00 0.  1.
          4    1    6    6  502    0 -0.24137885800E+03 -0.82835219381E+01 -0.24903486779E+03  0.34691603480E+03  0.00000000000E+00 0. -1.
          1    1    5    5  503    0 -0.34978427072E+02  0.19857365128E+02  0.82176041580E+02  0.91491568573E+02  0.00000000000E+00 0. -1.
         -2    1    5    5    0  503 -0.18902085455E+03  0.35918105550E+02  0.13267523828E+03  0.23371288500E+03  0.00000000000E+00 0.  1.
         -3    1    6    6    0  502 -0.47962390935E+03  0.11246015540E+02 -0.64675917988E+03  0.80527200625E+03  0.00000000000E+00 0.  1.
<mgrwt>
<rscale>  0 0.24392464E+04</rscale>
<asrwt>0</asrwt>
<pdfrwt beam="1">  1        2 0.43295861E+00 0.24392464E+04</pdfrwt>
<pdfrwt beam="2">  1       -2 0.81316421E-01 0.24392464E+04</pdfrwt>
<totfact> 0.27074485E+00</totfact>
</mgrwt>
</event>
<event>
12    1  0.1442183E-007  0.1418892E+04  0.7818608E-02  0.8940256E-01
         -4   -1    0    0    0  501 -0.00000000000E+00  0.00000000000E+00  0.24709689706E+03  0.24709689706E+03  0.00000000000E+00 0.  1.
          4   -1    0    0  501    0  0.00000000000E+00 -0.00000000000E+00 -0.20369068648E+04  0.20369068648E+04  0.00000000000E+00 0. -1.
         23    2    1    2    0    0 -0.14638567364E+03 -0.83434805990E+02  0.76467113822E+02  0.20367590924E+03  0.85126518843E+02 0.  0.
        254    2    1    2    0    0  0.14638567364E+03  0.83434805990E+02 -0.18662770815E+04  0.20803278526E+04  0.90353953811E+03 0.  0.
        -24    2    4    4    0    0  0.37598915893E+03 -0.65541983994E+02 -0.17128925505E+04  0.17567017504E+04  0.79602455882E+02 0.  0.
         24    2    4    4    0    0 -0.22960348529E+03  0.14897678998E+03 -0.15338453103E+03  0.32362610220E+03  0.79342266502E+02 0.  0.
         11    1    3    3    0    0 -0.41660002586E+01 -0.39720352904E+02  0.18149395775E+02  0.43868696812E+02  0.00000000000E+00 0. -1.
        -11    1    3    3    0    0 -0.14221967338E+03 -0.43714453086E+02  0.58317718047E+02  0.15980721243E+03  0.00000000000E+00 0.  1.
          2    1    6    6  502    0 -0.72866464493E+02  0.82830670431E+01 -0.51814435281E+02  0.89793466081E+02  0.00000000000E+00 0. -1.
          3    1    5    5  503    0  0.13483008909E+02 -0.18425518769E+02 -0.69931505063E+02  0.73564302971E+02  0.00000000000E+00 0. -1.
         -4    1    5    5    0  503  0.36250615002E+03 -0.47116465225E+02 -0.16429610454E+04  0.16831374474E+04  0.00000000000E+00 0.  1.
         -1    1    6    6    0  502 -0.15673702080E+03  0.14069372294E+03 -0.10157009575E+03  0.23383263612E+03  0.00000000000E+00 0.  1.
<mgrwt>
<rscale>  0 0.14188916E+04</rscale>
<asrwt>0</asrwt>
<pdfrwt beam="1">  1        4 0.31337028E+00 0.14188916E+04</pdfrwt>
<pdfrwt beam="2">  1       -4 0.38014908E-01 0.14188916E+04</pdfrwt>
<totfact> 0.33732685E-01</totfact>
</mgrwt>
</event>
<event>
12    1  0.1819777E-007  0.1529436E+04  0.7818608E-02  0.8865111E-01
          1   -1    0    0  501    0  0.00000000000E+00  0.00000000000E+00  0.10319197644E+04  0.10319197644E+04  0.00000000000E+00 0. -1.
         -1   -1    0    0    0  501 -0.00000000000E+00 -0.00000000000E+00 -0.56670479825E+03  0.56670479825E+03  0.00000000000E+00 0.  1.
         23    2    1    2    0    0  0.24303097175E+03 -0.24745929393E+03  0.55329492594E+03  0.65942622220E+03  0.91692486418E+02 0.  0.
        254    2    1    2    0    0 -0.24303097175E+03  0.24745929393E+03 -0.88079959767E+02  0.93919834048E+03  0.86835205307E+03 0.  0.
        -24    2    4    4    0    0  0.13354931617E+03 -0.51810643582E+02 -0.34954659892E+03  0.38608904658E+03  0.79763177193E+02 0.  0.
         24    2    4    4    0    0 -0.37658028792E+03  0.29926993751E+03  0.26146663915E+03  0.55310929390E+03  0.78675783230E+02 0.  0.
         13    1    3    3    0    0  0.16382722107E+03 -0.12070065136E+03  0.25925670785E+03  0.32957858876E+03  0.00000000000E+00 0.  1.
        -13    1    3    3    0    0  0.79203750686E+02 -0.12675864257E+03  0.29403821809E+03  0.32984763344E+03  0.00000000000E+00 0. -1.
          2    1    6    6  502    0 -0.36896442096E+03  0.29566843636E+03  0.24040135813E+03  0.53042188981E+03  0.00000000000E+00 0. -1.
          1    1    5    5  503    0  0.14403446911E+03 -0.48688037502E+02 -0.33499796571E+03  0.36788597461E+03  0.00000000000E+00 0. -1.
         -2    1    5    5    0  503 -0.10485152937E+02 -0.31226060796E+01 -0.14548633211E+02  0.18203071970E+02  0.00000000000E+00 0.  1.
         -1    1    6    6    0  502 -0.76158669585E+01  0.36015011481E+01  0.21065281025E+02  0.22687404098E+02  0.00000000000E+00 0.  1.
<mgrwt>
<rscale>  0 0.15294363E+04</rscale>
<asrwt>0</asrwt>
<pdfrwt beam="1">  1        1 0.15875689E+00 0.15294363E+04</pdfrwt>
<pdfrwt beam="2">  1       -1 0.87185354E-01 0.15294363E+04</pdfrwt>
<totfact> 0.17868109E+01</totfact>
</mgrwt>
</event>
<event>
12    1  0.1442183E-007  0.1525816E+04  0.7818608E-02  0.8867465E-01
         -2   -1    0    0    0  501 -0.00000000000E+00  0.00000000000E+00  0.16267221078E+03  0.16267221078E+03  0.00000000000E+00 0.  1.
          2   -1    0    0  501    0  0.00000000000E+00 -0.00000000000E+00 -0.35779241117E+04  0.35779241117E+04  0.00000000000E+00 0. -1.
         23    2    1    2    0    0  0.35622316510E+03 -0.38070903172E+02 -0.29663987863E+03  0.47425547109E+03  0.92621256960E+02 0.  0.
        254    2    1    2    0    0 -0.35622316510E+03  0.38070903172E+02 -0.31186120223E+04  0.32663408514E+04  0.90271660830E+03 0.  0.
        -24    2    4    4    0    0  0.26891567106E+03 -0.13853224138E+03 -0.11509125744E+04  0.11926152305E+04  0.78895588622E+02 0.  0.
         24    2    4    4    0    0 -0.62513883616E+03  0.17660314455E+03 -0.19676994479E+04  0.20737256210E+04  0.80682083937E+02 0.  0.
         13    1    3    3    0    0  0.33778130900E+03 -0.58150674900E+02 -0.27597218358E+03  0.44004358854E+03  0.00000000000E+00 0.  1.
        -13    1    3    3    0    0  0.18441856097E+02  0.20079771728E+02 -0.20667695055E+02  0.34211882553E+02  0.00000000000E+00 0. -1.
          2    1    6    6  502    0 -0.84142742947E+02  0.52271248195E+02 -0.32616790875E+03  0.34087796830E+03  0.00000000000E+00 0. -1.
          1    1    5    5  503    0  0.58887308303E+02 -0.69280744004E+02 -0.30421464035E+03  0.31751233673E+03  0.00000000000E+00 0. -1.
         -2    1    5    5    0  503  0.21002836276E+03 -0.69251497373E+02 -0.84669793409E+03  0.87510289374E+03  0.00000000000E+00 0.  1.
         -1    1    6    6    0  502 -0.54099609321E+03  0.12433189636E+03 -0.16415315391E+04  0.17328476527E+04  0.00000000000E+00 0.  1.
<mgrwt>
<rscale>  0 0.15258163E+04</rscale>
<asrwt>0</asrwt>
<pdfrwt beam="1">  1        2 0.55044978E+00 0.15258163E+04</pdfrwt>
<pdfrwt beam="2">  1       -2 0.25026498E-01 0.15258163E+04</pdfrwt>
<totfact> 0.10033835E+01</totfact>
</mgrwt>
</event>
<event>
12    1  0.1442183E-007  0.1311189E+04  0.7818608E-02  0.9020739E-01
          2   -1    0    0  501    0  0.00000000000E+00  0.00000000000E+00  0.20757780267E+04  0.20757780267E+04  0.00000000000E+00 0. -1.
         -2   -1    0    0    0  501 -0.00000000000E+00 -0.00000000000E+00 -0.20705678451E+03  0.20705678451E+03  0.00000000000E+00 0.  1.
         23    2    1    2    0    0  0.18187623158E+03  0.46659428502E+02  0.98240992281E+03  0.10045079292E+04  0.93009986175E+02 0.  0.
        254    2    1    2    0    0 -0.18187623158E+03 -0.46659428502E+02  0.88631131941E+03  0.12783268820E+04  0.90184022783E+03 0.  0.
        -24    2    4    4    0    0  0.19053040269E+03 -0.14048088519E+03 -0.57673182742E+02  0.25611854115E+03  0.78954402437E+02 0.  0.
         24    2    4    4    0    0 -0.37240663426E+03  0.93821456685E+02  0.94398450215E+03  0.10222083409E+04  0.79460586981E+02 0.  0.
         11    1    3    3    0    0  0.18424740495E+02 -0.59301728566E+01  0.30716721108E+03  0.30777643440E+03  0.00000000000E+00 0.  1.
        -11    1    3    3    0    0  0.16345149108E+03  0.52589601358E+02  0.67524271173E+03  0.69673149480E+03  0.00000000000E+00 0. -1.
          2    1    6    6  502    0 -0.13747892617E+02  0.37580175297E+01  0.96659625550E+02  0.97704710524E+02  0.00000000000E+00 0. -1.
          1    1    5    5  503    0  0.99497454931E+02 -0.49715943656E+02 -0.62297202089E+02  0.12748474411E+03  0.00000000000E+00 0. -1.
         -2    1    5    5    0  503  0.91032947755E+02 -0.90764941531E+02  0.46240193472E+01  0.12863379705E+03  0.00000000000E+00 0.  1.
         -1    1    6    6    0  502 -0.35865874165E+03  0.90063439155E+02  0.84732487660E+03  0.92450363035E+03  0.00000000000E+00 0.  1.
<mgrwt>
<rscale>  0 0.13111887E+04</rscale>
<asrwt>0</asrwt>
<pdfrwt beam="1">  1        2 0.31935045E+00 0.13111887E+04</pdfrwt>
<pdfrwt beam="2">  1       -2 0.31854891E-01 0.13111887E+04</pdfrwt>
<totfact> 0.54466157E+01</totfact>
</mgrwt>
</event>
<event>
12    1  0.1442183E-007  0.2696302E+04  0.7818608E-02  0.8336206E-01
         -1   -1    0    0    0  501 -0.00000000000E+00  0.00000000000E+00  0.22017207312E+04  0.22017207312E+04  0.00000000000E+00 0.  1.
          1   -1    0    0  501    0  0.00000000000E+00 -0.00000000000E+00 -0.82549587416E+03  0.82549587416E+03  0.00000000000E+00 0. -1.
         23    2    1    2    0    0 -0.33495591292E+03  0.61362018674E+03  0.17031044228E+04  0.18432884311E+04  0.91773460278E+02 0.  0.
        254    2    1    2    0    0  0.33495591292E+03 -0.61362018674E+03 -0.32687956579E+03  0.11839281743E+04  0.89783655200E+03 0.  0.
        -24    2    4    4    0    0  0.61683832484E+03 -0.41143560365E+03 -0.35625779250E+03  0.82656102784E+03  0.80713958353E+02 0.  0.
         24    2    4    4    0    0 -0.28188241192E+03 -0.20218458309E+03  0.29378226711E+02  0.35736714643E+03  0.80696327984E+02 0.  0.
         13    1    3    3    0    0 -0.64734119060E+02  0.66282652747E+02  0.27547272802E+03  0.29063571719E+03  0.00000000000E+00 0. -1.
        -13    1    3    3    0    0 -0.27022179386E+03  0.54733753399E+03  0.14276316948E+04  0.15526527139E+04  0.00000000000E+00 0.  1.
          4    1    6    6  502    0 -0.33445461595E+02  0.15571913821E+01 -0.63884453324E+01  0.34085715191E+02  0.00000000000E+00 0. -1.
          3    1    5    5  503    0  0.22755897746E+02 -0.35170309000E+02 -0.28855160257E+02  0.50866509521E+02  0.00000000000E+00 0. -1.
         -4    1    5    5    0  503  0.59408242710E+03 -0.37626529465E+03 -0.32740263224E+03  0.77569451832E+03  0.00000000000E+00 0.  1.
         -3    1    6    6    0  502 -0.24843695033E+03 -0.20374177447E+03  0.35766672043E+02  0.32328143124E+03  0.00000000000E+00 0.  1.
<mgrwt>
<rscale>  0 0.26963022E+04</rscale>
<asrwt>0</asrwt>
<pdfrwt beam="1">  1        1 0.12699937E+00 0.26963022E+04</pdfrwt>
<pdfrwt beam="2">  1       -1 0.33872626E+00 0.26963022E+04</pdfrwt>
<totfact> 0.33857876E-01</totfact>
</mgrwt>
</event>
<event>
12    1  0.1442183E-007  0.1295877E+04  0.7818608E-02  0.9032841E-01
         -1   -1    0    0    0  501 -0.00000000000E+00  0.00000000000E+00  0.59210875968E+03  0.59210875968E+03  0.00000000000E+00 0.  1.
          1   -1    0    0  501    0  0.00000000000E+00 -0.00000000000E+00 -0.70903226733E+03  0.70903226733E+03  0.00000000000E+00 0. -1.
         23    2    1    2    0    0  0.48542165605E+02  0.31213304083E+03 -0.11597999762E+03  0.34847266113E+03  0.90545340527E+02 0.  0.
        254    2    1    2    0    0 -0.48542165605E+02 -0.31213304083E+03 -0.94351002789E+00  0.95266836587E+03  0.89877291242E+03 0.  0.
        -24    2    4    4    0    0 -0.29138982365E+03  0.20751329260E+03 -0.59144491355E+02  0.37062315399E+03  0.76770147119E+02 0.  0.
         24    2    4    4    0    0  0.24284765804E+03 -0.51964633342E+03  0.58200981328E+02  0.58204521188E+03  0.79887280514E+02 0.  0.
         11    1    3    3    0    0  0.56714514184E+02  0.29903253352E+03 -0.88528650325E+02  0.31697683536E+03  0.00000000000E+00 0. -1.
        -11    1    3    3    0    0 -0.81723485788E+01  0.13100507305E+02 -0.27451347298E+02  0.31495825778E+02  0.00000000000E+00 0.  1.
          2    1    6    6  502    0  0.14247048640E+03 -0.38378937016E+03  0.26982951356E+02  0.41026844847E+03  0.00000000000E+00 0. -1.
          3    1    5    5  503    0 -0.27223705798E+03  0.20877052354E+03 -0.43415886630E+02  0.34580787505E+03  0.00000000000E+00 0. -1.
         -4    1    5    5    0  503 -0.19152765663E+02 -0.12572309405E+01 -0.15728604726E+02  0.24815278939E+02  0.00000000000E+00 0.  1.
         -1    1    6    6    0  502  0.10037717164E+03 -0.13585696326E+03  0.31218029972E+02  0.17177676341E+03  0.00000000000E+00 0.  1.
<mgrwt>
<rscale>  0 0.12958769E+04</rscale>
<asrwt>0</asrwt>
<pdfrwt beam="1">  1        1 0.10908189E+00 0.12958769E+04</pdfrwt>
<pdfrwt beam="2">  1       -1 0.91093656E-01 0.12958769E+04</pdfrwt>
<totfact> 0.30895448E+01</totfact>
</mgrwt>
</event>
<event>
12    1  0.1442183E-007  0.1049579E+04  0.7818608E-02  0.9255779E-01
         -1   -1    0    0    0  501 -0.00000000000E+00  0.00000000000E+00  0.18696485418E+03  0.18696485418E+03  0.00000000000E+00 0.  1.
          1   -1    0    0  501    0  0.00000000000E+00 -0.00000000000E+00 -0.14730243696E+04  0.14730243696E+04  0.00000000000E+00 0. -1.
         23    2    1    2    0    0  0.26520592538E+02 -0.65069745635E+02 -0.30240253111E+03  0.32352578451E+03  0.91017738921E+02 0.  0.
        254    2    1    2    0    0 -0.26520592538E+02  0.65069745635E+02 -0.98365698429E+03  0.13364634392E+04  0.90200667852E+03 0.  0.
        -24    2    4    4    0    0 -0.20406852715E+03 -0.27235745971E+02  0.91751557294E+02  0.23917800908E+03  0.80012637318E+02 0.  0.
         24    2    4    4    0    0  0.17754793461E+03  0.92305491606E+02 -0.10754085416E+04  0.10972854302E+04  0.86534450327E+02 0.  0.
         11    1    3    3    0    0 -0.24048231167E+02  0.63114027085E+01 -0.41828130752E+02  0.48659467204E+02  0.00000000000E+00 0.  1.
        -11    1    3    3    0    0  0.50568823705E+02 -0.71381148344E+02 -0.26057440035E+03  0.27486631731E+03  0.00000000000E+00 0. -1.
          4    1    6    6  502    0  0.48692209790E+02  0.11968975725E+02 -0.48793727749E+03  0.49050685462E+03  0.00000000000E+00 0. -1.
          1    1    5    5  503    0 -0.75189760818E+02 -0.18994139469E+02  0.76849032087E+02  0.10917898698E+03  0.00000000000E+00 0. -1.
         -2    1    5    5    0  503 -0.12887876633E+03 -0.82416065020E+01  0.14902525207E+02  0.12999902210E+03  0.00000000000E+00 0.  1.
         -3    1    6    6    0  502  0.12885572482E+03  0.80336515881E+02 -0.58747126410E+03  0.60677857555E+03  0.00000000000E+00 0.  1.
<mgrwt>
<rscale>  0 0.10495786E+04</rscale>
<asrwt>0</asrwt>
<pdfrwt beam="1">  1        1 0.22661914E+00 0.10495786E+04</pdfrwt>
<pdfrwt beam="2">  1       -1 0.28763823E-01 0.10495786E+04</pdfrwt>
<totfact> 0.74982395E+01</totfact>
</mgrwt>
</event>
<event>
12    1  0.1442183E-007  0.1803969E+04  0.7818608E-02  0.8704192E-01
          2   -1    0    0  501    0  0.00000000000E+00  0.00000000000E+00  0.91809176443E+03  0.91809176443E+03  0.00000000000E+00 0.  1.
         -2   -1    0    0    0  501 -0.00000000000E+00 -0.00000000000E+00 -0.88616002358E+03  0.88616002358E+03  0.00000000000E+00 0. -1.
         23    2    1    2    0    0  0.13959358850E+03 -0.55735903583E+03 -0.34012998699E+03  0.67355126884E+03  0.88585771577E+02 0.  0.
        254    2    1    2    0    0 -0.13959358850E+03  0.55735903583E+03  0.37206172784E+03  0.11307005192E+04  0.89995459327E+03 0.  0.
        -24    2    4    4    0    0 -0.19500134463E+03 -0.11409022888E+03  0.38389876457E+03  0.45203914100E+03  0.76935159832E+02 0.  0.
         24    2    4    4    0    0  0.55407756129E+02  0.67144926471E+03 -0.11837036736E+02  0.67866137817E+03  0.80789951517E+02 0.  0.
         13    1    3    3    0    0  0.13818543844E+03 -0.40992932826E+03 -0.27315200592E+03  0.51161439376E+03  0.00000000000E+00 0. -1.
        -13    1    3    3    0    0  0.14081500649E+01 -0.14742970757E+03 -0.66977981073E+02  0.16193687508E+03  0.00000000000E+00 0.  1.
          4    1    6    6  502    0 -0.90845477903E+01  0.62756083422E+02 -0.20054828364E+02  0.66506023454E+02  0.00000000000E+00 0. -1.
          3    1    5    5  503    0 -0.48788214182E+02 -0.52903217078E+01  0.13428888916E+03  0.14297476385E+03  0.00000000000E+00 0. -1.
         -4    1    5    5    0  503 -0.14621313045E+03 -0.10879990717E+03  0.24960987542E+03  0.30906437715E+03  0.00000000000E+00 0.  1.
         -3    1    6    6    0  502  0.64492303919E+02  0.60869318129E+03  0.82177916282E+01  0.61215535472E+03  0.00000000000E+00 0.  1.
<mgrwt>
<rscale>  0 0.18039692E+04</rscale>
<asrwt>0</asrwt>
<pdfrwt beam="1">  1        2 0.14124489E+00 0.18039692E+04</pdfrwt>
<pdfrwt beam="2">  1       -2 0.13633231E+00 0.18039692E+04</pdfrwt>
<totfact> 0.10350038E+01</totfact>
</mgrwt>
</event>
<event>
12    1  0.1442183E-007  0.2434862E+04  0.7818608E-02  0.8426566E-01
         -2   -1    0    0    0  501 -0.00000000000E+00  0.00000000000E+00  0.53337245197E+03  0.53337245197E+03  0.00000000000E+00 0.  1.
          2   -1    0    0  501    0  0.00000000000E+00 -0.00000000000E+00 -0.27788060398E+04  0.27788060398E+04  0.00000000000E+00 0. -1.
         23    2    1    2    0    0  0.70589500656E+03 -0.30316196583E+03 -0.36158408199E+02  0.77446245835E+03  0.91047960404E+02 0.  0.
        254    2    1    2    0    0 -0.70589500656E+03  0.30316196583E+03 -0.22092751797E+04  0.25377160335E+04  0.98433272280E+03 0.  0.
        -24    2    4    4    0    0 -0.79650573234E+02  0.46751504943E+03 -0.14949080985E+04  0.15702686944E+04  0.77968033637E+02 0.  0.
         24    2    4    4    0    0 -0.62624443333E+03 -0.16435308360E+03 -0.71436708115E+03  0.96744733909E+03  0.80249616263E+02 0.  0.
         13    1    3    3    0    0  0.54187823342E+03 -0.20408344044E+03 -0.56404972107E+02  0.58177623825E+03  0.00000000000E+00 0. -1.
        -13    1    3    3    0    0  0.16401677314E+03 -0.99078525388E+02  0.20246563909E+02  0.19268622010E+03  0.00000000000E+00 0.  1.
          2    1    6    6  502    0 -0.49503370556E+03 -0.95310495555E+02 -0.55464314732E+03  0.74951416336E+03  0.00000000000E+00 0. -1.
          1    1    5    5  503    0 -0.66027192509E+02  0.28016950623E+03 -0.10111295515E+04  0.10513027691E+04  0.00000000000E+00 0. -1.
         -2    1    5    5    0  503 -0.13623380725E+02  0.18734554320E+03 -0.48377854702E+03  0.51896592530E+03  0.00000000000E+00 0.  1.
         -1    1    6    6    0  502 -0.13121072776E+03 -0.69042588041E+02 -0.15972393384E+03  0.21793317573E+03  0.00000000000E+00 0.  1.
<mgrwt>
<rscale>  0 0.24348623E+04</rscale>
<asrwt>0</asrwt>
<pdfrwt beam="1">  1        2 0.42750861E+00 0.24348623E+04</pdfrwt>
<pdfrwt beam="2">  1       -2 0.82057302E-01 0.24348623E+04</pdfrwt>
<totfact> 0.27876443E+00</totfact>
</mgrwt>
</event>
<event>
12    1  0.1442183E-007  0.1980344E+04  0.7818608E-02  0.8615866E-01
         -2   -1    0    0    0  501 -0.00000000000E+00  0.00000000000E+00  0.62203509554E+03  0.62203509554E+03  0.00000000000E+00 0.  1.
          2   -1    0    0  501    0  0.00000000000E+00 -0.00000000000E+00 -0.15761819810E+04  0.15761819810E+04  0.00000000000E+00 0. -1.
         23    2    1    2    0    0 -0.25889377764E+03 -0.12149453538E+03  0.43109581872E+03  0.52495663874E+03  0.89156925758E+02 0.  0.
        254    2    1    2    0    0  0.25889377764E+03  0.12149453538E+03 -0.13852427041E+04  0.16732604378E+04  0.89393301369E+03 0.  0.
        -24    2    4    4    0    0  0.34339937365E+03  0.28577140151E+03 -0.13996324226E+04  0.14714462246E+04  0.81207448118E+02 0.  0.
         24    2    4    4    0    0 -0.84505596017E+02 -0.16427686613E+03  0.14389718470E+02  0.20181421319E+03  0.79961416593E+02 0.  0.
         13    1    3    3    0    0 -0.12764841208E+03 -0.53840549458E+02  0.13179013803E+03  0.19121077991E+03  0.00000000000E+00 0. -1.
        -13    1    3    3    0    0 -0.13124536556E+03 -0.67653985926E+02  0.29930568069E+03  0.33374585883E+03  0.00000000000E+00 0.  1.
          4    1    6    6  502    0 -0.83855326102E+02 -0.91890527552E+02 -0.11507534173E+02  0.12493201396E+03  0.00000000000E+00 0. -1.
          3    1    5    5  503    0  0.54850732466E+02  0.21453955860E+02 -0.12660116165E+03  0.13963068863E+03  0.00000000000E+00 0. -1.
         -4    1    5    5    0  503  0.28854864119E+03  0.26431744565E+03 -0.12730312610E+04  0.13318155359E+04  0.00000000000E+00 0.  1.
         -3    1    6    6    0  502 -0.65026991502E+00 -0.72386338578E+02  0.25897252644E+02  0.76882199228E+02  0.00000000000E+00 0.  1.
<mgrwt>
<rscale>  0 0.19803439E+04</rscale>
<asrwt>0</asrwt>
<pdfrwt beam="1">  1        2 0.24248953E+00 0.19803439E+04</pdfrwt>
<pdfrwt beam="2">  1       -2 0.95697709E-01 0.19803439E+04</pdfrwt>
<totfact> 0.98048084E+00</totfact>
</mgrwt>
</event>
<event>
12    1  0.1442183E-007  0.2676712E+04  0.7818608E-02  0.8342601E-01
          1   -1    0    0  501    0  0.00000000000E+00  0.00000000000E+00  0.88160098591E+03  0.88160098591E+03  0.00000000000E+00 0. -1.
         -1   -1    0    0    0  501 -0.00000000000E+00 -0.00000000000E+00 -0.20317541265E+04  0.20317541265E+04  0.00000000000E+00 0.  1.
         23    2    1    2    0    0  0.31302380587E+03  0.11411654553E+04 -0.36902639772E+03  0.12428839346E+04  0.91309873941E+02 0.  0.
        254    2    1    2    0    0 -0.31302380587E+03 -0.11411654553E+04 -0.78112674290E+03  0.16704711779E+04  0.88321711272E+03 0.  0.
        -24    2    4    4    0    0  0.12488893258E+03 -0.56893559637E+03  0.22044072136E+02  0.58858545727E+03  0.81620714907E+02 0.  0.
         24    2    4    4    0    0 -0.43791273844E+03 -0.57222985897E+03 -0.80317081504E+03  0.10818857206E+04  0.78605193009E+02 0.  0.
         13    1    3    3    0    0  0.59765727221E+02  0.12608748652E+03 -0.26375619839E+02  0.14200587920E+03  0.00000000000E+00 0.  1.
        -13    1    3    3    0    0  0.25325807865E+03  0.10150779688E+04 -0.34265077788E+03  0.11008780554E+04  0.00000000000E+00 0. -1.
          4    1    6    6  502    0 -0.30029118122E+03 -0.42424877786E+03 -0.62094977086E+03  0.80977801709E+03  0.00000000000E+00 0. -1.
          1    1    5    5  503    0  0.10651032194E+03 -0.55030521077E+03  0.12276938044E+02  0.56065229589E+03  0.00000000000E+00 0. -1.
         -2    1    5    5    0  503  0.18378610632E+02 -0.18630385594E+02  0.97671340913E+01  0.27933161376E+02  0.00000000000E+00 0.  1.
         -3    1    6    6    0  502 -0.13762155722E+03 -0.14798108111E+03 -0.18222104418E+03  0.27210770353E+03  0.00000000000E+00 0.  1.
<mgrwt>
<rscale>  0 0.26767117E+04</rscale>
<asrwt>0</asrwt>
<pdfrwt beam="1">  1        1 0.13563092E+00 0.26767117E+04</pdfrwt>
<pdfrwt beam="2">  1       -1 0.31257755E+00 0.26767117E+04</pdfrwt>
<totfact> 0.45106613E-01</totfact>
</mgrwt>
</event>
<event>
12    1  0.1442183E-007  0.4487786E+04  0.7818608E-02  0.7912779E-01
         -2   -1    0    0    0  501 -0.00000000000E+00  0.00000000000E+00  0.17632560679E+04  0.17632560679E+04  0.00000000000E+00 0.  1.
          2   -1    0    0  501    0  0.00000000000E+00 -0.00000000000E+00 -0.28555439808E+04  0.28555439808E+04  0.00000000000E+00 0. -1.
         23    2    1    2    0    0 -0.15208689386E+04 -0.11174129717E+04 -0.15789350096E+04  0.24622647111E+04  0.89764498486E+02 0.  0.
        254    2    1    2    0    0  0.15208689386E+04  0.11174129717E+04  0.48664709662E+03  0.21565353376E+04  0.92312793687E+03 0.  0.
        -24    2    4    4    0    0  0.11311799425E+04  0.70409382208E+03  0.74379016876E+03  0.15279034487E+04  0.77129506298E+02 0.  0.
         24    2    4    4    0    0  0.38968899615E+03  0.41331914965E+03 -0.25714307214E+03  0.62863188894E+03  0.79782573652E+02 0.  0.
         13    1    3    3    0    0 -0.37610597249E+03 -0.32069818447E+03 -0.43501294833E+03  0.65843700784E+03  0.00000000000E+00 0. -1.
        -13    1    3    3    0    0 -0.11447629661E+04 -0.79671478726E+03 -0.11439220612E+04  0.18038277033E+04  0.00000000000E+00 0.  1.
          4    1    6    6  502    0  0.27477147493E+03  0.32022935616E+03 -0.22127086603E+03  0.47645251614E+03  0.00000000000E+00 0. -1.
          3    1    5    5  503    0  0.88991655544E+03  0.58971988929E+03  0.58904866015E+03  0.12193028121E+04  0.00000000000E+00 0. -1.
         -2    1    5    5    0  503  0.24126338702E+03  0.11437393279E+03  0.15474150861E+03  0.30860063659E+03  0.00000000000E+00 0.  1.
         -3    1    6    6    0  502  0.11491752122E+03  0.93089793490E+02 -0.35872206107E+02  0.15217937280E+03  0.00000000000E+00 0.  1.
<mgrwt>
<rscale>  0 0.44877858E+04</rscale>
<asrwt>0</asrwt>
<pdfrwt beam="1">  1        2 0.43931445E+00 0.44877858E+04</pdfrwt>
<pdfrwt beam="2">  1       -2 0.27127017E+00 0.44877858E+04</pdfrwt>
<totfact> 0.77225663E-02</totfact>
</mgrwt>
</event>
<event>
12    1  0.1442183E-007  0.1084365E+04  0.7818608E-02  0.9220566E-01
         -2   -1    0    0    0  501 -0.00000000000E+00  0.00000000000E+00  0.29936784651E+03  0.29936784651E+03  0.00000000000E+00 0. -1.
          2   -1    0    0  501    0  0.00000000000E+00 -0.00000000000E+00 -0.98194184118E+03  0.98194184118E+03  0.00000000000E+00 0.  1.
         23    2    1    2    0    0  0.54171390427E+02 -0.96091428994E+02  0.17550891958E-01  0.13969350412E+03  0.85709815764E+02 0.  0.
        254    2    1    2    0    0 -0.54171390427E+02  0.96091428994E+02 -0.68259154556E+03  0.11416161836E+04  0.90839869565E+03 0.  0.
        -24    2    4    4    0    0 -0.39995973134E+03  0.27975826236E+03 -0.49232470877E+03  0.69882114278E+03  0.87948272765E+02 0.  0.
         24    2    4    4    0    0  0.34578834092E+03 -0.18366683336E+03 -0.19026683679E+03  0.44279504079E+03  0.81011706408E+02 0.  0.
         11    1    3    3    0    0  0.17573594899E+02 -0.98274338371E+02  0.13265095042E+02  0.10071067255E+03  0.00000000000E+00 0. -1.
        -11    1    3    3    0    0  0.36597795528E+02  0.21829093765E+01 -0.13247544150E+02  0.38982831566E+02  0.00000000000E+00 0.  1.
          4    1    6    6  502    0  0.25018843379E+02 -0.29354009135E+02  0.12445306032E+01  0.38589496404E+02  0.00000000000E+00 0. -1.
          1    1    5    5  503    0  0.35454744047E+01  0.95720216188E+01 -0.12571499358E+02  0.16193720472E+02  0.00000000000E+00 0. -1.
         -4    1    5    5    0  503 -0.40350520575E+03  0.27018624074E+03 -0.47975320941E+03  0.68262742231E+03  0.00000000000E+00 0.  1.
         -3    1    6    6    0  502  0.32076949754E+03 -0.15431282423E+03 -0.19151136739E+03  0.40420554438E+03  0.00000000000E+00 0.  1.
<mgrwt>
<rscale>  0 0.10843649E+04</rscale>
<asrwt>0</asrwt>
<pdfrwt beam="1">  1        2 0.15106797E+00 0.10843649E+04</pdfrwt>
<pdfrwt beam="2">  1       -2 0.46056592E-01 0.10843649E+04</pdfrwt>
<totfact> 0.11489412E+02</totfact>
</mgrwt>
</event>
<event>
12    1  0.1442183E-007  0.1620435E+04  0.7818608E-02  0.8808092E-01
          2   -1    0    0  501    0  0.00000000000E+00  0.00000000000E+00  0.35260510727E+04  0.35260510727E+04  0.00000000000E+00 0. -1.
         -2   -1    0    0    0  501 -0.00000000000E+00 -0.00000000000E+00 -0.18617200382E+03  0.18617200382E+03  0.00000000000E+00 0.  1.
         23    2    1    2    0    0 -0.33699664835E+03 -0.24495136203E+03  0.20058511250E+04  0.20506230962E+04  0.89713077913E+02 0.  0.
        254    2    1    2    0    0  0.33699664835E+03  0.24495136203E+03  0.13340279439E+04  0.16615999803E+04  0.89873023133E+03 0.  0.
        -24    2    4    4    0    0  0.36039863025E+03  0.43990231330E+03  0.39108065106E+03  0.69482047524E+03  0.80188523157E+02 0.  0.
         24    2    4    4    0    0 -0.23401981900E+02 -0.19495095127E+03  0.94294729282E+03  0.96677950505E+03  0.83423547069E+02 0.  0.
         13    1    3    3    0    0 -0.85547700337E+02 -0.71947117695E+02  0.36900505079E+03  0.38556390429E+03  0.00000000000E+00 0.  1.
        -13    1    3    3    0    0 -0.25144894802E+03 -0.17300424433E+03  0.16368460742E+04  0.16650591919E+04  0.00000000000E+00 0. -1.
          4    1    6    6  502    0  0.94050029997E+01 -0.42202371073E+02  0.38340924442E+03  0.38583953000E+03  0.00000000000E+00 0. -1.
          1    1    5    5  503    0  0.32760116327E+03  0.38640759497E+03  0.31640514145E+03  0.59728181385E+03  0.00000000000E+00 0. -1.
         -2    1    5    5    0  503  0.32797466985E+02  0.53494718328E+02  0.74675509605E+02  0.97538661383E+02  0.00000000000E+00 0.  1.
         -3    1    6    6    0  502 -0.32806984900E+02 -0.15274858020E+03  0.55953804839E+03  0.58093997505E+03  0.00000000000E+00 0.  1.
<mgrwt>
<rscale>  0 0.16204345E+04</rscale>
<asrwt>0</asrwt>
<pdfrwt beam="1">  1        2 0.54246935E+00 0.16204345E+04</pdfrwt>
<pdfrwt beam="2">  1       -2 0.28641849E-01 0.16204345E+04</pdfrwt>
<totfact> 0.84406621E+00</totfact>
</mgrwt>
</event>
<event>
12    1  0.1442183E-007  0.2557743E+04  0.7818608E-02  0.8382698E-01
          2   -1    0    0  501    0  0.00000000000E+00  0.00000000000E+00  0.39769930133E+04  0.39769930133E+04  0.00000000000E+00 0. -1.
         -2   -1    0    0    0  501 -0.00000000000E+00 -0.00000000000E+00 -0.41124330280E+03  0.41124330280E+03  0.00000000000E+00 0.  1.
         23    2    1    2    0    0 -0.96504642816E+03  0.28245021491E+03  0.71819118755E+03  0.12390727822E+04  0.91706299296E+02 0.  0.
        254    2    1    2    0    0  0.96504642816E+03 -0.28245021491E+03  0.28475585229E+04  0.31491635339E+04  0.89305581525E+03 0.  0.
        -24    2    4    4    0    0  0.29753682397E+03 -0.13664907488E+03  0.21252527799E+04  0.21517771022E+04  0.79020174151E+02 0.  0.
         24    2    4    4    0    0  0.66750960419E+03 -0.14580114003E+03  0.72230574304E+03  0.99738643165E+03  0.78911744973E+02 0.  0.
         13    1    3    3    0    0 -0.19842610157E+03  0.33279337541E+02  0.11023051969E+03  0.22941490702E+03  0.00000000000E+00 0. -1.
        -13    1    3    3    0    0 -0.76662032659E+03  0.24917087737E+03  0.60796066786E+03  0.10096578752E+04  0.00000000000E+00 0.  1.
          4    1    6    6  502    0  0.15968151975E+02 -0.20927986466E+01  0.31767329188E+01  0.16415033223E+02  0.00000000000E+00 0. -1.
          3    1    5    5  503    0  0.15808468463E+03 -0.86809293011E+02  0.92455202172E+03  0.94197827031E+03  0.00000000000E+00 0. -1.
         -4    1    5    5    0  503  0.13945213934E+03 -0.49839781872E+02  0.12007007582E+04  0.12097988319E+04  0.00000000000E+00 0.  1.
         -3    1    6    6    0  502  0.65154145221E+03 -0.14370834138E+03  0.71912901012E+03  0.98097139843E+03  0.00000000000E+00 0.  1.
<mgrwt>
<rscale>  0 0.25577426E+04</rscale>
<asrwt>0</asrwt>
<pdfrwt beam="1">  1        2 0.61184505E+00 0.25577426E+04</pdfrwt>
<pdfrwt beam="2">  1       -2 0.63268203E-01 0.25577426E+04</pdfrwt>
<totfact> 0.73525623E-01</totfact>
</mgrwt>
</event>
<event>
12    1  0.1442183E-007  0.1195856E+04  0.7818608E-02  0.9116491E-01
          2   -1    0    0  501    0  0.00000000000E+00  0.00000000000E+00  0.45228395902E+03  0.45228395902E+03  0.00000000000E+00 0. -1.
         -2   -1    0    0    0  501 -0.00000000000E+00 -0.00000000000E+00 -0.79047275095E+03  0.79047275095E+03  0.00000000000E+00 0.  1.
         23    2    1    2    0    0  0.89264837560E+02 -0.21817209260E+03 -0.18106380422E+03  0.31115223496E+03  0.92001841861E+02 0.  0.
        254    2    1    2    0    0 -0.89264837560E+02  0.21817209260E+03 -0.15712498771E+03  0.93160447501E+03  0.88748597897E+03 0.  0.
        -24    2    4    4    0    0 -0.44469314719E+03 -0.15078416461E+02 -0.20535189153E+03  0.49663449296E+03  0.80604382256E+02 0.  0.
         24    2    4    4    0    0  0.35542830963E+03  0.23325050906E+03  0.48226903828E+02  0.43496998205E+03  0.78345183399E+02 0.  0.
         13    1    3    3    0    0  0.35010290546E+02 -0.14909845661E+03 -0.66944628917E+02  0.16714560583E+03  0.00000000000E+00 0. -1.
        -13    1    3    3    0    0  0.54254547014E+02 -0.69073635993E+02 -0.11411917530E+03  0.14400662913E+03  0.00000000000E+00 0.  1.
          4    1    6    6  502    0  0.26712409198E+03  0.14307004079E+03  0.10380049122E+02  0.30320300544E+03  0.00000000000E+00 0. -1.
          3    1    5    5  503    0 -0.41032512686E+03 -0.74966352779E+01 -0.16302740465E+03  0.44158899889E+03  0.00000000000E+00 0. -1.
         -4    1    5    5    0  503 -0.34368020328E+02 -0.75817811830E+01 -0.42324486883E+02  0.55045494067E+02  0.00000000000E+00 0.  1.
         -1    1    6    6    0  502  0.88304217654E+02  0.90180468269E+02  0.37846854706E+02  0.13176697661E+03  0.00000000000E+00 0.  1.
<mgrwt>
<rscale>  0 0.11958564E+04</rscale>
<asrwt>0</asrwt>
<pdfrwt beam="1">  1        2 0.69582148E-01 0.11958564E+04</pdfrwt>
<pdfrwt beam="2">  1       -2 0.12161119E+00 0.11958564E+04</pdfrwt>
<totfact> 0.35041185E+01</totfact>
</mgrwt>
</event>
<event>
12    1  0.1442183E-007  0.1895595E+04  0.7818608E-02  0.8657052E-01
          1   -1    0    0  501    0  0.00000000000E+00  0.00000000000E+00  0.53005147899E+03  0.53005147899E+03  0.00000000000E+00 0. -1.
         -1   -1    0    0    0  501 -0.00000000000E+00 -0.00000000000E+00 -0.16947792722E+04  0.16947792722E+04  0.00000000000E+00 0.  1.
         23    2    1    2    0    0  0.53590892557E+03 -0.25275059697E+03 -0.95379145645E+03  0.11264871866E+04  0.90410167326E+02 0.  0.
        254    2    1    2    0    0 -0.53590892557E+03  0.25275059697E+03 -0.21093633679E+03  0.10983435647E+04  0.90043500990E+03 0.  0.
        -24    2    4    4    0    0 -0.77188395862E+03  0.95340424250E+02 -0.17465605567E+03  0.80088319221E+03  0.77553257314E+02 0.  0.
         24    2    4    4    0    0  0.23597503305E+03  0.15741017272E+03 -0.36280281122E+02  0.29746037244E+03  0.81879397125E+02 0.  0.
         11    1    3    3    0    0  0.19081589193E+03 -0.12570084403E+03 -0.31065784208E+03  0.38564193451E+03  0.00000000000E+00 0. -1.
        -11    1    3    3    0    0  0.34509303364E+03 -0.12704975294E+03 -0.64313361437E+03  0.74084525207E+03  0.00000000000E+00 0.  1.
          4    1    6    6  502    0  0.23804757656E+03  0.15298756636E+03 -0.23694339820E+02  0.28395997237E+03  0.00000000000E+00 0. -1.
          1    1    5    5  503    0 -0.44010695200E+03  0.15723286732E+02 -0.95375607443E+02  0.45059722307E+03  0.00000000000E+00 0. -1.
         -2    1    5    5    0  503 -0.33177700662E+03  0.79617137517E+02 -0.79280448225E+02  0.35028596914E+03  0.00000000000E+00 0.  1.
         -1    1    6    6    0  502 -0.20725435106E+01  0.44226063592E+01 -0.12585941301E+02  0.13500400070E+02  0.00000000000E+00 0.  1.
<mgrwt>
<rscale>  0 0.18955952E+04</rscale>
<asrwt>0</asrwt>
<pdfrwt beam="1">  1        1 0.81546381E-01 0.18955952E+04</pdfrwt>
<pdfrwt beam="2">  1       -1 0.26073527E+00 0.18955952E+04</pdfrwt>
<totfact> 0.22701120E+00</totfact>
</mgrwt>
</event>
<event>
12    1  0.1442183E-007  0.3266212E+04  0.7818608E-02  0.8171546E-01
          2   -1    0    0  501    0  0.00000000000E+00  0.00000000000E+00  0.26658786768E+04  0.26658786768E+04  0.00000000000E+00 0.  1.
         -2   -1    0    0    0  501 -0.00000000000E+00 -0.00000000000E+00 -0.10004338328E+04  0.10004338328E+04  0.00000000000E+00 0. -1.
         23    2    1    2    0    0  0.11928882253E+04 -0.49279220546E+03  0.16336108025E+04  0.20852038557E+04  0.11646626088E+03 0.  0.
        254    2    1    2    0    0 -0.11928882253E+04  0.49279220546E+03  0.31834041511E+02  0.15811086540E+04  0.91272377722E+03 0.  0.
        -24    2    4    4    0    0 -0.10439554627E+03  0.21738417774E+03  0.33008033034E+03  0.41659878857E+03  0.80294553661E+02 0.  0.
         24    2    4    4    0    0 -0.10884926791E+04  0.27540802772E+03 -0.29824628883E+03  0.11645098654E+04  0.80414449343E+02 0.  0.
         13    1    3    3    0    0  0.72286219106E+03 -0.25061784578E+03  0.90729531533E+03  0.11868124709E+04  0.00000000000E+00 0. -1.
        -13    1    3    3    0    0  0.47002603427E+03 -0.24217435968E+03  0.72631548714E+03  0.89839138478E+03  0.00000000000E+00 0.  1.
          4    1    6    6  502    0 -0.10256916738E+04  0.26981838386E+03 -0.26482531207E+03  0.10931504086E+04  0.00000000000E+00 0. -1.
          1    1    5    5  503    0 -0.85464360697E+02  0.21388408385E+03  0.27767214993E+03  0.36076638025E+03  0.00000000000E+00 0. -1.
         -2    1    5    5    0  503 -0.18931185572E+02  0.35000938882E+01  0.52408180413E+02  0.55832408318E+02  0.00000000000E+00 0.  1.
         -3    1    6    6    0  502 -0.62801005254E+02  0.55896438641E+01 -0.33420976759E+02  0.71359456746E+02  0.00000000000E+00 0.  1.
<mgrwt>
<rscale>  0 0.32662120E+04</rscale>
<asrwt>0</asrwt>
<pdfrwt beam="1">  1        2 0.41013518E+00 0.32662120E+04</pdfrwt>
<pdfrwt beam="2">  1       -2 0.15391290E+00 0.32662120E+04</pdfrwt>
<totfact> 0.65170593E-01</totfact>
</mgrwt>
</event>
<event>
12    1  0.1442183E-007  0.1138648E+04  0.7818608E-02  0.9168321E-01
          2   -1    0    0  501    0  0.00000000000E+00  0.00000000000E+00  0.25973553296E+04  0.25973553296E+04  0.00000000000E+00 0. -1.
         -2   -1    0    0    0  501 -0.00000000000E+00 -0.00000000000E+00 -0.12479216897E+03  0.12479216897E+03  0.00000000000E+00 0.  1.
         23    2    1    2    0    0  0.19886937130E+02 -0.97599239091E+02  0.80780135049E+02  0.15826114743E+03  0.92736502136E+02 0.  0.
        254    2    1    2    0    0 -0.19886937130E+02  0.97599239091E+02  0.23917830256E+04  0.25638863512E+04  0.91813184148E+03 0.  0.
        -24    2    4    4    0    0  0.32140250707E+02  0.50059176691E+03  0.13797599633E+04  0.14703607603E+04  0.81228665931E+02 0.  0.
         24    2    4    4    0    0 -0.52027187837E+02 -0.40299252782E+03  0.10120230623E+04  0.10935255909E+04  0.80608520375E+02 0.  0.
         13    1    3    3    0    0 -0.31590594598E+02 -0.63095432413E+02  0.24930310749E+02  0.74836619729E+02  0.00000000000E+00 0.  1.
        -13    1    3    3    0    0  0.51477531728E+02 -0.34503806677E+02  0.55849824301E+02  0.83424527703E+02  0.00000000000E+00 0. -1.
          2    1    6    6  502    0  0.63349529311E+01 -0.23768800617E+01  0.39934523954E+02  0.40503671326E+02  0.00000000000E+00 0. -1.
          3    1    5    5  503    0 -0.18089792144E+02  0.92534317859E+02  0.20249784996E+03  0.22337237922E+03  0.00000000000E+00 0. -1.
         -2    1    5    5    0  503  0.50230042851E+02  0.40805744905E+03  0.11772621133E+04  0.12469883810E+04  0.00000000000E+00 0.  1.
         -1    1    6    6    0  502 -0.58362140768E+02 -0.40061564776E+03  0.97208853834E+03  0.10530219196E+04  0.00000000000E+00 0.  1.
<mgrwt>
<rscale>  0 0.11386476E+04</rscale>
<asrwt>0</asrwt>
<pdfrwt beam="1">  1        2 0.39959309E+00 0.11386476E+04</pdfrwt>
<pdfrwt beam="2">  1       -2 0.19198797E-01 0.11386476E+04</pdfrwt>
<totfact> 0.70124910E+01</totfact>
</mgrwt>
</event>
<event>
12    1  0.1442183E-007  0.1643033E+04  0.7818608E-02  0.8794539E-01
         -2   -1    0    0    0  501 -0.00000000000E+00  0.00000000000E+00  0.31004153623E+03  0.31004153623E+03  0.00000000000E+00 0.  1.
          2   -1    0    0  501    0  0.00000000000E+00 -0.00000000000E+00 -0.21767718849E+04  0.21767718849E+04  0.00000000000E+00 0. -1.
         23    2    1    2    0    0  0.53958344314E+03  0.17205942065E+02 -0.91751338794E+03  0.10683143974E+04  0.89546067272E+02 0.  0.
        254    2    1    2    0    0 -0.53958344314E+03 -0.17205942065E+02 -0.94921696070E+03  0.14184990237E+04  0.90536197463E+03 0.  0.
        -24    2    4    4    0    0 -0.38638380470E+03  0.41170037435E+03 -0.37830311484E+03  0.68381045025E+03  0.75457553616E+02 0.  0.
         24    2    4    4    0    0 -0.15319963844E+03 -0.42890631641E+03 -0.57091384586E+03  0.73468857342E+03  0.79962009990E+02 0.  0.
         13    1    3    3    0    0  0.25637949665E+03  0.13908738602E+02 -0.52344753641E+03  0.58302763458E+03  0.00000000000E+00 0.  1.
        -13    1    3    3    0    0  0.28320394649E+03  0.32972034632E+01 -0.39406585153E+03  0.48528676285E+03  0.00000000000E+00 0. -1.
          4    1    6    6  502    0 -0.51587412645E+02 -0.25702580847E+03 -0.30559129153E+03  0.40262832094E+03  0.00000000000E+00 0. -1.
          1    1    5    5  503    0 -0.52833624451E+02  0.24560371678E+02 -0.46277664597E+02  0.74405819464E+02  0.00000000000E+00 0. -1.
         -2    1    5    5    0  503 -0.33355018025E+03  0.38714000267E+03 -0.33202545025E+03  0.60940463079E+03  0.00000000000E+00 0.  1.
         -3    1    6    6    0  502 -0.10161222579E+03 -0.17188050794E+03 -0.26532255432E+03  0.33206025247E+03  0.00000000000E+00 0.  1.
<mgrwt>
<rscale>  0 0.16430334E+04</rscale>
<asrwt>0</asrwt>
<pdfrwt beam="1">  1        2 0.33488799E+00 0.16430334E+04</pdfrwt>
<pdfrwt beam="2">  1       -2 0.47698697E-01 0.16430334E+04</pdfrwt>
<totfact> 0.21195676E+01</totfact>
</mgrwt>
</event>
<event>
12    1  0.1442183E-007  0.1391087E+04  0.7818608E-02  0.8960296E-01
          2   -1    0    0  501    0  0.00000000000E+00  0.00000000000E+00  0.13225614682E+04  0.13225614682E+04  0.00000000000E+00 0. -1.
         -2   -1    0    0    0  501 -0.00000000000E+00 -0.00000000000E+00 -0.36579068720E+03  0.36579068720E+03  0.00000000000E+00 0.  1.
         23    2    1    2    0    0 -0.22316153206E+03 -0.80082276671E+02  0.67032942020E+03  0.71690774896E+03  0.91656688264E+02 0.  0.
        254    2    1    2    0    0  0.22316153206E+03  0.80082276671E+02  0.28644136080E+03  0.97144440644E+03  0.89746383838E+03 0.  0.
        -24    2    4    4    0    0  0.32371045748E+02 -0.36569495626E+03 -0.45587137585E+02  0.37841658758E+03  0.79625630310E+02 0.  0.
         24    2    4    4    0    0  0.19079048631E+03  0.44577723293E+03  0.33202849838E+03  0.59302781887E+03  0.79502950555E+02 0.  0.
         13    1    3    3    0    0 -0.13115485570E+02  0.11886594776E+02  0.17134733672E+02  0.24635466205E+02  0.00000000000E+00 0.  1.
        -13    1    3    3    0    0 -0.21004604649E+03 -0.91968871447E+02  0.65319468653E+03  0.69227228276E+03  0.00000000000E+00 0. -1.
          2    1    6    6  502    0  0.16635324182E+03  0.31127442397E+03  0.26108634541E+03  0.43901167165E+03  0.00000000000E+00 0. -1.
          3    1    5    5  503    0  0.18943460947E+01 -0.16507997580E+03 -0.58349338607E+02  0.17509892139E+03  0.00000000000E+00 0. -1.
         -4    1    5    5    0  503  0.30476699653E+02 -0.20061498046E+03  0.12762201022E+02  0.20331766618E+03  0.00000000000E+00 0.  1.
         -1    1    6    6    0  502  0.24437244497E+02  0.13450280896E+03  0.70942152966E+02  0.15401614722E+03  0.00000000000E+00 0.  1.
<mgrwt>
<rscale>  0 0.13910869E+04</rscale>
<asrwt>0</asrwt>
<pdfrwt beam="1">  1        2 0.20347099E+00 0.13910869E+04</pdfrwt>
<pdfrwt beam="2">  1       -2 0.56275491E-01 0.13910869E+04</pdfrwt>
<totfact> 0.46289591E+01</totfact>
</mgrwt>
</event>
<event>
12    1  0.1442183E-007  0.1894175E+04  0.7818608E-02  0.8657761E-01
          2   -1    0    0  501    0  0.00000000000E+00  0.00000000000E+00  0.23270113364E+04  0.23270113364E+04  0.00000000000E+00 0. -1.
         -2   -1    0    0    0  501 -0.00000000000E+00 -0.00000000000E+00 -0.38546206319E+03  0.38546206319E+03  0.00000000000E+00 0.  1.
         23    2    1    2    0    0 -0.68746979140E+03 -0.18875970766E+03  0.47716945159E+03  0.86274564891E+03  0.91621110331E+02 0.  0.
        254    2    1    2    0    0  0.68746979140E+03  0.18875970766E+03  0.14643798217E+04  0.18497277507E+04  0.87683496073E+03 0.  0.
        -24    2    4    4    0    0  0.23238543210E+03  0.44093879214E+03  0.34149300265E+03  0.60963665141E+03  0.81298022247E+02 0.  0.
         24    2    4    4    0    0  0.45508435930E+03 -0.25217908448E+03  0.11228868190E+04  0.12400910993E+04  0.79088946984E+02 0.  0.
         11    1    3    3    0    0 -0.65719156520E+03 -0.16043883382E+03  0.43944887824E+03  0.80669491715E+03  0.00000000000E+00 0.  1.
        -11    1    3    3    0    0 -0.30278226195E+02 -0.28320873840E+02  0.37720573353E+02  0.56050731759E+02  0.00000000000E+00 0. -1.
          2    1    6    6  502    0  0.10180650786E+02 -0.14825504901E+02  0.75867468618E+02  0.77969956012E+02  0.00000000000E+00 0. -1.
          1    1    5    5  503    0  0.18358176507E+03  0.26867687704E+03  0.23398227375E+03  0.40079574992E+03  0.00000000000E+00 0. -1.
         -2    1    5    5    0  503  0.48803667038E+02  0.17226191510E+03  0.10751072890E+03  0.20884090150E+03  0.00000000000E+00 0.  1.
         -3    1    6    6    0  502  0.44490370851E+03 -0.23735357957E+03  0.10470193504E+04  0.11621211433E+04  0.00000000000E+00 0.  1.
<mgrwt>
<rscale>  0 0.18941749E+04</rscale>
<asrwt>0</asrwt>
<pdfrwt beam="1">  1        2 0.35800173E+00 0.18941749E+04</pdfrwt>
<pdfrwt beam="2">  1       -2 0.59301858E-01 0.18941749E+04</pdfrwt>
<totfact> 0.10890126E+01</totfact>
</mgrwt>
</event>
<event>
12    1  0.1442183E-007  0.1348373E+04  0.7818608E-02  0.8992060E-01
         -1   -1    0    0    0  501 -0.00000000000E+00  0.00000000000E+00  0.29582354754E+03  0.29582354754E+03  0.00000000000E+00 0.  1.
          1   -1    0    0  501    0  0.00000000000E+00 -0.00000000000E+00 -0.15364821844E+04  0.15364821844E+04  0.00000000000E+00 0. -1.
         23    2    1    2    0    0 -0.25168780389E+03 -0.26146510571E+03 -0.40335380364E+03  0.55042023326E+03  0.92506162730E+02 0.  0.
        254    2    1    2    0    0  0.25168780389E+03  0.26146510571E+03 -0.83730483320E+03  0.12818854987E+04  0.90024457558E+03 0.  0.
        -24    2    4    4    0    0  0.51990292541E+03  0.34478545234E+03 -0.74832743896E+03  0.97744288307E+03  0.78895967993E+02 0.  0.
         24    2    4    4    0    0 -0.26821512153E+03 -0.83320346629E+02 -0.88977394239E+02  0.30444261559E+03  0.76724819489E+02 0.  0.
         11    1    3    3    0    0 -0.12072311209E+03 -0.63030583917E+02 -0.13232371061E+03  0.18988546204E+03  0.00000000000E+00 0.  1.
        -11    1    3    3    0    0 -0.13096469179E+03 -0.19843452179E+03 -0.27103009303E+03  0.36053477122E+03  0.00000000000E+00 0. -1.
          2    1    6    6  502    0 -0.23183061756E+03 -0.50227238711E+02 -0.51825690214E+02  0.24280468058E+03  0.00000000000E+00 0. -1.
          1    1    5    5  503    0  0.38423369322E+03  0.29410696328E+03 -0.56821457385E+03  0.74632582616E+03  0.00000000000E+00 0. -1.
         -2    1    5    5    0  503  0.13566923219E+03  0.50678489055E+02 -0.18011286511E+03  0.23111705691E+03  0.00000000000E+00 0.  1.
         -1    1    6    6    0  502 -0.36384503971E+02 -0.33093107918E+02 -0.37151704025E+02  0.61637935015E+02  0.00000000000E+00 0.  1.
<mgrwt>
<rscale>  0 0.13483733E+04</rscale>
<asrwt>0</asrwt>
<pdfrwt beam="1">  1        1 0.23638188E+00 0.13483733E+04</pdfrwt>
<pdfrwt beam="2">  1       -1 0.45511315E-01 0.13483733E+04</pdfrwt>
<totfact> 0.28968723E+01</totfact>
</mgrwt>
</event>
<event>
12    1  0.1442183E-007  0.1076827E+04  0.7818608E-02  0.9228077E-01
         -1   -1    0    0    0  501 -0.00000000000E+00  0.00000000000E+00  0.13741957671E+03  0.13741957671E+03  0.00000000000E+00 0.  1.
          1   -1    0    0  501    0  0.00000000000E+00 -0.00000000000E+00 -0.21095184171E+04  0.21095184171E+04  0.00000000000E+00 0. -1.
         23    2    1    2    0    0 -0.13085208789E+03  0.20299505701E+02 -0.30624358377E+03  0.34597696013E+03  0.91545537869E+02 0.  0.
        254    2    1    2    0    0  0.13085208789E+03 -0.20299505701E+02 -0.16658552566E+04  0.19009610337E+04  0.90611521163E+03 0.  0.
        -24    2    4    4    0    0  0.31748710863E+03 -0.24117726288E+03 -0.30778370725E+03  0.51010369972E+03  0.80687283601E+02 0.  0.
         24    2    4    4    0    0 -0.18663502075E+03  0.22087775718E+03 -0.13580715494E+04  0.13908573340E+04  0.80660868261E+02 0.  0.
         13    1    3    3    0    0 -0.65052386153E+02 -0.19716865474E+02 -0.22043331321E+03  0.23067599203E+03  0.00000000000E+00 0. -1.
        -13    1    3    3    0    0 -0.65799701732E+02  0.40016371175E+02 -0.85810270566E+02  0.11530096810E+03  0.00000000000E+00 0.  1.
          4    1    6    6  502    0 -0.87940125410E+02  0.73943652232E+02 -0.70141776500E+03  0.71076579154E+03  0.00000000000E+00 0. -1.
          1    1    5    5  503    0  0.45982527630E+02 -0.21436645246E+02 -0.11359071905E+02  0.51989913648E+02  0.00000000000E+00 0. -1.
         -2    1    5    5    0  503  0.27150458100E+03 -0.21974061764E+03 -0.29642463535E+03  0.45811378607E+03  0.00000000000E+00 0.  1.
         -3    1    6    6    0  502 -0.98694895338E+02  0.14693410495E+03 -0.65665378435E+03  0.68009154242E+03  0.00000000000E+00 0.  1.
<mgrwt>
<rscale>  0 0.10768271E+04</rscale>
<asrwt>0</asrwt>
<pdfrwt beam="1">  1        1 0.32454130E+00 0.10768271E+04</pdfrwt>
<pdfrwt beam="2">  1       -1 0.21141473E-01 0.10768271E+04</pdfrwt>
<totfact> 0.46892173E+01</totfact>
</mgrwt>
</event>
<event>
12    1  0.1442183E-007  0.1256523E+04  0.7818608E-02  0.9064772E-01
         -1   -1    0    0    0  501 -0.00000000000E+00  0.00000000000E+00  0.12743979035E+04  0.12743979035E+04  0.00000000000E+00 0.  1.
          1   -1    0    0  501    0  0.00000000000E+00 -0.00000000000E+00 -0.30972452260E+03  0.30972452260E+03  0.00000000000E+00 0. -1.
         23    2    1    2    0    0 -0.25727821877E+02 -0.29010031317E+03  0.17886005473E+03  0.35370842865E+03  0.91096766122E+02 0.  0.
        254    2    1    2    0    0  0.25727821877E+02  0.29010031317E+03  0.78581332616E+03  0.12304139975E+04  0.90088617985E+03 0.  0.
        -24    2    4    4    0    0 -0.37212364594E+03  0.23885916882E+03  0.66781093346E+03  0.80483179411E+03  0.79076314852E+02 0.  0.
         24    2    4    4    0    0  0.39785146782E+03  0.51241144350E+02  0.11800239270E+03  0.42558220334E+03  0.79272957554E+02 0.  0.
         11    1    3    3    0    0 -0.26814552889E+01 -0.16772481225E+00 -0.77100367637E+01  0.81647413295E+01  0.00000000000E+00 0.  1.
        -11    1    3    3    0    0 -0.23046366588E+02 -0.28993258836E+03  0.18657009150E+03  0.34554368732E+03  0.00000000000E+00 0. -1.
          2    1    6    6  502    0  0.31440666979E+03  0.43449883962E+02  0.12579174608E+03  0.34141325371E+03  0.00000000000E+00 0. -1.
          1    1    5    5  503    0 -0.34363533411E+03  0.19117963311E+03  0.57316161712E+03  0.69508929952E+03  0.00000000000E+00 0. -1.
         -2    1    5    5    0  503 -0.28488311829E+02  0.47679535709E+02  0.94649316338E+02  0.10974249459E+03  0.00000000000E+00 0.  1.
         -1    1    6    6    0  502  0.83444798030E+02  0.77912603873E+01 -0.77893533830E+01  0.84168949635E+02  0.00000000000E+00 0.  1.
<mgrwt>
<rscale>  0 0.12565226E+04</rscale>
<asrwt>0</asrwt>
<pdfrwt beam="1">  1        1 0.47649927E-01 0.12565226E+04</pdfrwt>
<pdfrwt beam="2">  1       -1 0.19606121E+00 0.12565226E+04</pdfrwt>
<totfact> 0.13285415E+01</totfact>
</mgrwt>
</event>
<event>
12    1  0.1442183E-007  0.3048531E+04  0.7818608E-02  0.8230007E-01
         -2   -1    0    0    0  501 -0.00000000000E+00  0.00000000000E+00  0.13009991421E+04  0.13009991421E+04  0.00000000000E+00 0.  1.
          2   -1    0    0  501    0  0.00000000000E+00 -0.00000000000E+00 -0.17858467526E+04  0.17858467526E+04  0.00000000000E+00 0. -1.
         23    2    1    2    0    0  0.30120096641E+03 -0.34705650464E+03 -0.15470983164E+04  0.16164635775E+04  0.90945353031E+02 0.  0.
        254    2    1    2    0    0 -0.30120096641E+03  0.34705650464E+03  0.10622507058E+04  0.14703823173E+04  0.90690537395E+03 0.  0.
        -24    2    4    4    0    0 -0.10376037130E+03 -0.14492399219E+03  0.88402138897E+03  0.90533770629E+03  0.79833377199E+02 0.  0.
         24    2    4    4    0    0 -0.19744059511E+03  0.49198049683E+03  0.17822931686E+03  0.56504461097E+03  0.80511645960E+02 0.  0.
         11    1    3    3    0    0  0.15612905067E+03 -0.21314842287E+03 -0.74636123762E+03  0.79174719934E+03  0.00000000000E+00 0. -1.
        -11    1    3    3    0    0  0.14507191573E+03 -0.13390808177E+03 -0.80073707874E+03  0.82471637813E+03  0.00000000000E+00 0.  1.
          2    1    6    6  502    0 -0.12956576893E+03  0.34229032634E+03  0.83702400408E+02  0.37544113762E+03  0.00000000000E+00 0. -1.
          1    1    5    5  503    0 -0.11696862512E+03 -0.12517965160E+03  0.78977924309E+03  0.80814779419E+03  0.00000000000E+00 0. -1.
         -2    1    5    5    0  503  0.13208253826E+02 -0.19744340594E+02  0.94242145878E+02  0.97189912101E+02  0.00000000000E+00 0.  1.
         -1    1    6    6    0  502 -0.67874826182E+02  0.14969017049E+03  0.94526916454E+02  0.18960347334E+03  0.00000000000E+00 0.  1.
<mgrwt>
<rscale>  0 0.30485309E+04</rscale>
<asrwt>0</asrwt>
<pdfrwt beam="1">  1        2 0.27474565E+00 0.30485309E+04</pdfrwt>
<pdfrwt beam="2">  1       -2 0.20015372E+00 0.30485309E+04</pdfrwt>
<totfact> 0.99414679E-01</totfact>
</mgrwt>
</event>
<event>
12    1  0.1442183E-007  0.1558737E+04  0.7818608E-02  0.8846306E-01
         -2   -1    0    0    0  501 -0.00000000000E+00  0.00000000000E+00  0.38929771214E+03  0.38929771214E+03  0.00000000000E+00 0.  1.
          2   -1    0    0  501    0  0.00000000000E+00 -0.00000000000E+00 -0.15602852857E+04  0.15602852857E+04  0.00000000000E+00 0. -1.
         23    2    1    2    0    0  0.50356986887E+03  0.83676744216E+00 -0.41191002402E+03  0.65693920623E+03  0.91191774728E+02 0.  0.
        254    2    1    2    0    0 -0.50356986887E+03 -0.83676744216E+00 -0.75907754954E+03  0.12926437916E+04  0.91714008348E+03 0.  0.
        -24    2    4    4    0    0 -0.19078010003E+03 -0.38821225634E+03 -0.80711422433E+02  0.44746055745E+03  0.81245395092E+02 0.  0.
         24    2    4    4    0    0 -0.31278976885E+03  0.38737548890E+03 -0.67836612711E+03  0.84518323415E+03  0.79100492952E+02 0.  0.
         11    1    3    3    0    0  0.13368574422E+03 -0.22833885484E+02 -0.15504647772E+03  0.20599192894E+03  0.00000000000E+00 0.  1.
        -11    1    3    3    0    0  0.36988412465E+03  0.23670652926E+02 -0.25686354630E+03  0.45094727729E+03  0.00000000000E+00 0. -1.
          2    1    6    6  502    0 -0.28882726719E+02  0.41381692692E+02 -0.11565120871E+03  0.12618184683E+03  0.00000000000E+00 0. -1.
          3    1    5    5  503    0 -0.93737197435E+02 -0.13113679572E+03 -0.44282129482E+00  0.16119465706E+03  0.00000000000E+00 0. -1.
         -4    1    5    5    0  503 -0.97042902592E+02 -0.25707546062E+03 -0.80268601138E+02  0.28626590039E+03  0.00000000000E+00 0.  1.
         -1    1    6    6    0  502 -0.28390704213E+03  0.34599379621E+03 -0.56271491840E+03  0.71900138732E+03  0.00000000000E+00 0.  1.
<mgrwt>
<rscale>  0 0.15587373E+04</rscale>
<asrwt>0</asrwt>
<pdfrwt beam="1">  1        2 0.24004389E+00 0.15587373E+04</pdfrwt>
<pdfrwt beam="2">  1       -2 0.59891955E-01 0.15587373E+04</pdfrwt>
<totfact> 0.29353507E+01</totfact>
</mgrwt>
</event>
<event>
12    1  0.1571762E-007  0.2627734E+04  0.7818608E-02  0.8358841E-01
          1   -1    0    0  501    0  0.00000000000E+00  0.00000000000E+00  0.20831294626E+04  0.20831294626E+04  0.00000000000E+00 0. -1.
         -1   -1    0    0    0  501 -0.00000000000E+00 -0.00000000000E+00 -0.82867944556E+03  0.82867944556E+03  0.00000000000E+00 0.  1.
         23    2    1    2    0    0  0.43432987045E+02  0.17294188734E+03  0.18225149711E+04  0.18334457991E+04  0.90373435761E+02 0.  0.
        254    2    1    2    0    0 -0.43432987045E+02 -0.17294188734E+03 -0.56806495398E+03  0.10783631091E+04  0.89909614741E+03 0.  0.
        -24    2    4    4    0    0 -0.36034093374E+03 -0.28295452925E+03 -0.56714212185E+03  0.73346777072E+03  0.80099501602E+02 0.  0.
         24    2    4    4    0    0  0.31690794670E+03  0.11001264191E+03 -0.92283212871E+00  0.34489533834E+03  0.80115633493E+02 0.  0.
         13    1    3    3    0    0  0.48514794414E+02  0.16146925746E+03  0.17981752605E+04  0.18060620902E+04  0.00000000000E+00 0. -1.
        -13    1    3    3    0    0 -0.50818073697E+01  0.11472629877E+02  0.24339710596E+02  0.27383708922E+02  0.00000000000E+00 0.  1.
          2    1    6    6  502    0  0.15848779819E+03  0.14842848713E+02 -0.12871267225E+02  0.15970085114E+03  0.00000000000E+00 0. -1.
          3    1    5    5  503    0 -0.20918711146E+03 -0.13658376849E+03 -0.25461355200E+03  0.35671057495E+03  0.00000000000E+00 0. -1.
         -4    1    5    5    0  503 -0.15115382228E+03 -0.14637076076E+03 -0.31252856985E+03  0.37675719577E+03  0.00000000000E+00 0.  1.
         -1    1    6    6    0  502  0.15842014851E+03  0.95169793197E+02  0.11948435097E+02  0.18519448720E+03  0.00000000000E+00 0.  1.
<mgrwt>
<rscale>  0 0.26277341E+04</rscale>
<asrwt>0</asrwt>
<pdfrwt beam="1">  1        1 0.32048145E+00 0.26277341E+04</pdfrwt>
<pdfrwt beam="2">  1       -1 0.12748915E+00 0.26277341E+04</pdfrwt>
<totfact> 0.12244510E+00</totfact>
</mgrwt>
</event>
<event>
12    1  0.1442183E-007  0.2021867E+04  0.7818608E-02  0.8596465E-01
         -2   -1    0    0    0  501 -0.00000000000E+00  0.00000000000E+00  0.39355099909E+03  0.39355099909E+03  0.00000000000E+00 0.  1.
          2   -1    0    0  501    0  0.00000000000E+00 -0.00000000000E+00 -0.25968330952E+04  0.25968330952E+04  0.00000000000E+00 0. -1.
         23    2    1    2    0    0 -0.31053795214E+02  0.78118165801E+03 -0.11728476781E+04  0.14125275884E+04  0.91942323194E+02 0.  0.
        254    2    1    2    0    0  0.31053795214E+02 -0.78118165801E+03 -0.10304344180E+04  0.15778565059E+04  0.90367413514E+03 0.  0.
        -24    2    4    4    0    0 -0.24466551679E+03 -0.48383396215E+01 -0.58218965427E+03  0.63658439452E+03  0.80064181634E+02 0.  0.
         24    2    4    4    0    0  0.27571931200E+03 -0.77634331839E+03 -0.44824476373E+03  0.94127211141E+03  0.79622437105E+02 0.  0.
         13    1    3    3    0    0  0.57377499825E+01  0.66736316104E+03 -0.10052881371E+04  0.12066527044E+04  0.00000000000E+00 0. -1.
        -13    1    3    3    0    0 -0.36791545197E+02  0.11381849697E+03 -0.16755954105E+03  0.20587488397E+03  0.00000000000E+00 0.  1.
          4    1    6    6  502    0  0.19845132949E+03 -0.64946227826E+03 -0.37070656153E+03  0.77369731538E+03  0.00000000000E+00 0. -1.
          1    1    5    5  503    0 -0.92210313080E+02  0.33718920930E+02 -0.26376429228E+03  0.28144503788E+03  0.00000000000E+00 0. -1.
         -2    1    5    5    0  503 -0.15245520371E+03 -0.38557260552E+02 -0.31842536198E+03  0.35513935664E+03  0.00000000000E+00 0.  1.
         -3    1    6    6    0  502  0.77267982511E+02 -0.12688104013E+03 -0.77538202194E+02  0.16757479603E+03  0.00000000000E+00 0.  1.
<mgrwt>
<rscale>  0 0.20218667E+04</rscale>
<asrwt>0</asrwt>
<pdfrwt beam="1">  1        2 0.39951277E+00 0.20218667E+04</pdfrwt>
<pdfrwt beam="2">  1       -2 0.60546310E-01 0.20218667E+04</pdfrwt>
<totfact> 0.72067890E+00</totfact>
</mgrwt>
</event>
<event>
12    1  0.1442183E-007  0.1396459E+04  0.7818608E-02  0.8956386E-01
          2   -1    0    0  501    0  0.00000000000E+00  0.00000000000E+00  0.52577448247E+03  0.52577448247E+03  0.00000000000E+00 0. -1.
         -2   -1    0    0    0  501 -0.00000000000E+00 -0.00000000000E+00 -0.92724974007E+03  0.92724974007E+03  0.00000000000E+00 0.  1.
         23    2    1    2    0    0  0.35136221912E+03 -0.16239319765E+03 -0.22655490724E+03  0.45773060433E+03  0.91450645024E+02 0.  0.
        254    2    1    2    0    0 -0.35136221912E+03  0.16239319765E+03 -0.17492035037E+03  0.99529361822E+03  0.90010293735E+03 0.  0.
        -24    2    4    4    0    0  0.63677559880E+02 -0.24070162526E+03  0.17487119796E+03  0.31459128001E+03  0.79972704993E+02 0.  0.
         24    2    4    4    0    0 -0.41503977900E+03  0.40309482291E+03 -0.34979154833E+03  0.68070233821E+03  0.79108100444E+02 0.  0.
         11    1    3    3    0    0  0.19987413086E+03 -0.11635961089E+03 -0.88383887796E+02  0.24759026406E+03  0.00000000000E+00 0.  1.
        -11    1    3    3    0    0  0.15148808826E+03 -0.46033586753E+02 -0.13817101944E+03  0.21014034027E+03  0.00000000000E+00 0. -1.
          4    1    6    6  502    0 -0.33941529334E+03  0.31505152648E+03 -0.24298691694E+03  0.52297499701E+03  0.00000000000E+00 0. -1.
          1    1    5    5  503    0  0.68585296088E+02 -0.10476621594E+03  0.76725434169E+02  0.14685603525E+03  0.00000000000E+00 0. -1.
         -2    1    5    5    0  503 -0.49077362072E+01 -0.13593540932E+03  0.98145763795E+02  0.16773524475E+03  0.00000000000E+00 0.  1.
         -3    1    6    6    0  502 -0.75624485662E+02  0.88043296428E+02 -0.10680463139E+03  0.15772734121E+03  0.00000000000E+00 0.  1.
<mgrwt>
<rscale>  0 0.13964587E+04</rscale>
<asrwt>0</asrwt>
<pdfrwt beam="1">  1        2 0.80888382E-01 0.13964587E+04</pdfrwt>
<pdfrwt beam="2">  1       -2 0.14265381E+00 0.13964587E+04</pdfrwt>
<totfact> 0.19317141E+01</totfact>
</mgrwt>
</event>
<event>
12    1  0.1442183E-007  0.2828725E+04  0.7818608E-02  0.8294405E-01
          2   -1    0    0  501    0  0.00000000000E+00  0.00000000000E+00  0.22588570428E+04  0.22588570428E+04  0.00000000000E+00 0. -1.
         -2   -1    0    0    0  501 -0.00000000000E+00 -0.00000000000E+00 -0.88559002398E+03  0.88559002398E+03  0.00000000000E+00 0.  1.
         23    2    1    2    0    0  0.10074906921E+04  0.59852671903E+03  0.73416003066E+02  0.11778753157E+04  0.93427093521E+02 0.  0.
        254    2    1    2    0    0 -0.10074906921E+04 -0.59852671903E+03  0.12998510157E+04  0.19665717511E+04  0.89695042280E+03 0.  0.
        -24    2    4    4    0    0 -0.34695879158E+03 -0.34760896074E+03  0.14728907288E+02  0.49776766444E+03  0.79644927087E+02 0.  0.
         24    2    4    4    0    0 -0.66053190049E+03 -0.25091775830E+03  0.12851221084E+04  0.14688040866E+04  0.81144921459E+02 0.  0.
         11    1    3    3    0    0  0.19066229890E+03  0.15741991350E+03  0.13383242495E+02  0.24761311065E+03  0.00000000000E+00 0. -1.
        -11    1    3    3    0    0  0.81682839318E+03  0.44110680553E+03  0.60032760571E+02  0.93026220504E+03  0.00000000000E+00 0.  1.
          2    1    6    6  502    0 -0.47348094704E+03 -0.16958373823E+03  0.98440289417E+03  0.11054374290E+04  0.00000000000E+00 0. -1.
          1    1    5    5  503    0 -0.14094791680E+03 -0.19246333759E+03  0.23593334458E+02  0.23971878733E+03  0.00000000000E+00 0. -1.
         -2    1    5    5    0  503 -0.20601087478E+03 -0.15514562315E+03 -0.88644271704E+01  0.25804887711E+03  0.00000000000E+00 0.  1.
         -3    1    6    6    0  502 -0.18705095345E+03 -0.81334020065E+02  0.30071921426E+03  0.36336665757E+03  0.00000000000E+00 0.  1.
<mgrwt>
<rscale>  0 0.28287250E+04</rscale>
<asrwt>0</asrwt>
<pdfrwt beam="1">  1        2 0.34751647E+00 0.28287250E+04</pdfrwt>
<pdfrwt beam="2">  1       -2 0.13624462E+00 0.28287250E+04</pdfrwt>
<totfact> 0.16001411E+00</totfact>
</mgrwt>
</event>
<event>
12    1  0.1442183E-007  0.1744646E+04  0.7818608E-02  0.8736303E-01
          2   -1    0    0  501    0  0.00000000000E+00  0.00000000000E+00  0.26462645151E+04  0.26462645151E+04  0.00000000000E+00 0. -1.
         -2   -1    0    0    0  501 -0.00000000000E+00 -0.00000000000E+00 -0.28755524079E+03  0.28755524079E+03  0.00000000000E+00 0.  1.
         23    2    1    2    0    0  0.72318725816E+02  0.29021568630E+03  0.18076957859E+04  0.18344778802E+04  0.89943847464E+02 0.  0.
        254    2    1    2    0    0 -0.72318725816E+02 -0.29021568630E+03  0.55101348840E+03  0.10993418757E+04  0.90304017224E+03 0.  0.
        -24    2    4    4    0    0  0.13075727747E+03 -0.33308597719E+03 -0.12532318758E+03  0.38742585733E+03  0.79681615004E+02 0.  0.
         24    2    4    4    0    0 -0.20307600329E+03  0.42870290895E+02  0.67633667599E+03  0.71191601841E+03  0.79469447135E+02 0.  0.
         13    1    3    3    0    0 -0.90099758128E+01  0.11363617746E+03  0.81404459177E+03  0.82198720056E+03  0.00000000000E+00 0.  1.
        -13    1    3    3    0    0  0.81328701629E+02  0.17657950884E+03  0.99365119414E+03  0.10124906796E+04  0.00000000000E+00 0. -1.
          2    1    6    6  502    0 -0.19779211525E+03  0.20048774907E+02  0.60248715287E+03  0.63444026007E+03  0.00000000000E+00 0. -1.
          1    1    5    5  503    0  0.86997430695E+02 -0.26337846129E+03 -0.12708521470E+03  0.30510230843E+03  0.00000000000E+00 0. -1.
         -2    1    5    5    0  503  0.43759846775E+02 -0.69707515905E+02  0.17620271139E+01  0.82323548897E+02  0.00000000000E+00 0.  1.
         -1    1    6    6    0  502 -0.52838880400E+01  0.22821515988E+02  0.73849523120E+02  0.77475758336E+02  0.00000000000E+00 0.  1.
<mgrwt>
<rscale>  0 0.17446458E+04</rscale>
<asrwt>0</asrwt>
<pdfrwt beam="1">  1        2 0.40711760E+00 0.17446458E+04</pdfrwt>
<pdfrwt beam="2">  1       -2 0.44239270E-01 0.17446458E+04</pdfrwt>
<totfact> 0.13159433E+01</totfact>
</mgrwt>
</event>
<event>
12    1  0.1442183E-007  0.1921617E+04  0.7818608E-02  0.8644170E-01
         -2   -1    0    0    0  501 -0.00000000000E+00  0.00000000000E+00  0.83590578079E+03  0.83590578079E+03  0.00000000000E+00 0.  1.
          2   -1    0    0  501    0  0.00000000000E+00 -0.00000000000E+00 -0.11043743144E+04  0.11043743144E+04  0.00000000000E+00 0. -1.
         23    2    1    2    0    0  0.10642669649E+03  0.41933686366E+03  0.50826504538E+03  0.67498934986E+03  0.10053466628E+03 0.  0.
        254    2    1    2    0    0 -0.10642669649E+03 -0.41933686366E+03 -0.77673357903E+03  0.12652907454E+04  0.90026416711E+03 0.  0.
        -24    2    4    4    0    0  0.19279190316E+03 -0.54926847948E+03 -0.71248048833E+03  0.92339668632E+03  0.78539248627E+02 0.  0.
         24    2    4    4    0    0 -0.29921859965E+03  0.12993161582E+03 -0.64253090697E+02  0.34189405906E+03  0.79681194693E+02 0.  0.
         11    1    3    3    0    0  0.10605835221E+03  0.31940548264E+03  0.33431860520E+03  0.47438082402E+03  0.00000000000E+00 0. -1.
        -11    1    3    3    0    0  0.36834427687E+00  0.99931381025E+02  0.17394644018E+03  0.20060852584E+03  0.00000000000E+00 0.  1.
          2    1    6    6  502    0 -0.15504887002E+03  0.89546884470E+02 -0.69544666592E+02  0.19208138188E+03  0.00000000000E+00 0. -1.
          3    1    5    5  503    0  0.48076614813E+02 -0.17877357544E+03 -0.17501725282E+03  0.25475947667E+03  0.00000000000E+00 0. -1.
         -4    1    5    5    0  503  0.14471528835E+03 -0.37049490404E+03 -0.53746323551E+03  0.66863720965E+03  0.00000000000E+00 0.  1.
         -1    1    6    6    0  502 -0.14416972963E+03  0.40384731348E+02  0.52915758955E+01  0.14981267718E+03  0.00000000000E+00 0.  1.
<mgrwt>
<rscale>  0 0.19216169E+04</rscale>
<asrwt>0</asrwt>
<pdfrwt beam="1">  1        2 0.16990374E+00 0.19216169E+04</pdfrwt>
<pdfrwt beam="2">  1       -2 0.12860089E+00 0.19216169E+04</pdfrwt>
<totfact> 0.90363356E+00</totfact>
</mgrwt>
</event>
<event>
12    1  0.1442183E-007  0.1557689E+04  0.7818608E-02  0.8846971E-01
          1   -1    0    0  501    0  0.00000000000E+00  0.00000000000E+00  0.12611634794E+04  0.12611634794E+04  0.00000000000E+00 0. -1.
         -1   -1    0    0    0  501 -0.00000000000E+00 -0.00000000000E+00 -0.48098338514E+03  0.48098338514E+03  0.00000000000E+00 0.  1.
         23    2    1    2    0    0  0.41442246901E+03  0.25771868294E+03  0.42527623439E+03  0.65395510285E+03  0.92911240672E+02 0.  0.
        254    2    1    2    0    0 -0.41442246901E+03 -0.25771868294E+03  0.35490385986E+03  0.10881917617E+04  0.90556041107E+03 0.  0.
        -24    2    4    4    0    0  0.21033410627E+03  0.15255825097E+03  0.14195602835E+03  0.30682950913E+03  0.80488368644E+02 0.  0.
         24    2    4    4    0    0 -0.62475657528E+03 -0.41027693392E+03  0.21294783151E+03  0.78136225255E+03  0.80822335498E+02 0.  0.
         11    1    3    3    0    0  0.26571571526E+03  0.13744196708E+03  0.20728008589E+03  0.36395077917E+03  0.00000000000E+00 0.  1.
        -11    1    3    3    0    0  0.14870675374E+03  0.12027671586E+03  0.21799614851E+03  0.29000432367E+03  0.00000000000E+00 0. -1.
          2    1    6    6  502    0 -0.42013233569E+03 -0.30735127074E+03  0.17503898773E+03  0.54919452869E+03  0.00000000000E+00 0. -1.
          1    1    5    5  503    0  0.16176299668E+03  0.98968068437E+02  0.13774016968E+03  0.23438067329E+03  0.00000000000E+00 0. -1.
         -2    1    5    5    0  503  0.48571109588E+02  0.53590182537E+02  0.42158586704E+01  0.72448835845E+02  0.00000000000E+00 0.  1.
         -1    1    6    6    0  502 -0.20462423959E+03 -0.10292566317E+03  0.37908843779E+02  0.23216772386E+03  0.00000000000E+00 0.  1.
<mgrwt>
<rscale>  0 0.15576889E+04</rscale>
<asrwt>0</asrwt>
<pdfrwt beam="1">  1        1 0.19402515E+00 0.15576889E+04</pdfrwt>
<pdfrwt beam="2">  1       -1 0.73997444E-01 0.15576889E+04</pdfrwt>
<totfact> 0.17080004E+01</totfact>
</mgrwt>
</event>
<event>
12    1  0.1442183E-007  0.1745063E+04  0.7818608E-02  0.8736073E-01
          1   -1    0    0  501    0  0.00000000000E+00  0.00000000000E+00  0.20192628459E+04  0.20192628459E+04  0.00000000000E+00 0. -1.
         -1   -1    0    0    0  501 -0.00000000000E+00 -0.00000000000E+00 -0.37702422057E+03  0.37702422057E+03  0.00000000000E+00 0.  1.
         23    2    1    2    0    0  0.26973690035E+03 -0.31507954957E+03  0.12899180044E+04  0.13581197424E+04  0.92561647605E+02 0.  0.
        254    2    1    2    0    0 -0.26973690035E+03  0.31507954957E+03  0.35232062091E+03  0.10381673241E+04  0.88409753696E+03 0.  0.
        -24    2    4    4    0    0  0.50042931268E+02  0.42721223814E+03  0.49619116888E+03  0.66159096110E+03  0.80512932822E+02 0.  0.
         24    2    4    4    0    0 -0.31977983162E+03 -0.11213268857E+03 -0.14387054797E+03  0.37657636296E+03  0.79234727315E+02 0.  0.
         13    1    3    3    0    0  0.17207329870E+03 -0.21441840563E+03  0.98210132854E+03  0.10198566038E+04  0.00000000000E+00 0. -1.
        -13    1    3    3    0    0  0.97663601644E+02 -0.10066114394E+03  0.30781667589E+03  0.33826313861E+03  0.00000000000E+00 0.  1.
          2    1    6    6  502    0 -0.24217139992E+03 -0.11949113639E+03 -0.11063878814E+03  0.29183224643E+03  0.00000000000E+00 0. -1.
          1    1    5    5  503    0 -0.10945177292E+02  0.16920457752E+03  0.15700388910E+03  0.23108484838E+03  0.00000000000E+00 0. -1.
         -2    1    5    5    0  503  0.60988108560E+02  0.25800766062E+03  0.33918727978E+03  0.43050611272E+03  0.00000000000E+00 0.  1.
         -1    1    6    6    0  502 -0.77608431698E+02  0.73584478258E+01 -0.33231759827E+02  0.84744116529E+02  0.00000000000E+00 0.  1.
<mgrwt>
<rscale>  0 0.17450628E+04</rscale>
<asrwt>0</asrwt>
<pdfrwt beam="1">  1        1 0.31065582E+00 0.17450628E+04</pdfrwt>
<pdfrwt beam="2">  1       -1 0.58003728E-01 0.17450628E+04</pdfrwt>
<totfact> 0.82563389E+00</totfact>
</mgrwt>
</event>
<event>
12    1  0.1442183E-007  0.1424282E+04  0.7818608E-02  0.8936427E-01
         -1   -1    0    0    0  501 -0.00000000000E+00  0.00000000000E+00  0.98094309763E+03  0.98094309763E+03  0.00000000000E+00 0.  1.
          1   -1    0    0  501    0  0.00000000000E+00 -0.00000000000E+00 -0.51699751074E+03  0.51699751074E+03  0.00000000000E+00 0. -1.
         23    2    1    2    0    0 -0.49078409436E+02 -0.14548665898E+03  0.53827183570E+03  0.56715281450E+03  0.91382097132E+02 0.  0.
        254    2    1    2    0    0  0.49078409436E+02  0.14548665898E+03 -0.74326248811E+02  0.93078779386E+03  0.91502265968E+03 0.  0.
        -24    2    4    4    0    0  0.63183651931E+02  0.48367304457E+03  0.15056122304E+03  0.51652827959E+03  0.78746389237E+02 0.  0.
         24    2    4    4    0    0 -0.14105242495E+02 -0.33818638559E+03 -0.22488747185E+03  0.41425951427E+03  0.80421271479E+02 0.  0.
         11    1    3    3    0    0  0.73231941569E+01 -0.11012223251E+03  0.37274031618E+03  0.38873625837E+03  0.00000000000E+00 0.  1.
        -11    1    3    3    0    0 -0.56401603593E+02 -0.35364426467E+02  0.16553151952E+03  0.17841655613E+03  0.00000000000E+00 0. -1.
          4    1    6    6  502    0  0.97654285794E+01 -0.31191411861E+03 -0.19619850705E+03  0.36861854965E+03  0.00000000000E+00 0. -1.
          3    1    5    5  503    0  0.30843593564E+02  0.34051239364E+03  0.69626948491E+02  0.34892395940E+03  0.00000000000E+00 0. -1.
         -4    1    5    5    0  503  0.32340058367E+02  0.14316065092E+03  0.80934274547E+02  0.16760432018E+03  0.00000000000E+00 0.  1.
         -3    1    6    6    0  502 -0.23870671074E+02 -0.26272266986E+02 -0.28688964800E+02  0.45640964620E+02  0.00000000000E+00 0.  1.
<mgrwt>
<rscale>  0 0.14242825E+04</rscale>
<asrwt>0</asrwt>
<pdfrwt beam="1">  1        1 0.79538079E-01 0.14242825E+04</pdfrwt>
<pdfrwt beam="2">  1       -1 0.15091432E+00 0.14242825E+04</pdfrwt>
<totfact> 0.14133891E+01</totfact>
</mgrwt>
</event>
<event>
12    1  0.1442183E-007  0.1433381E+04  0.7818608E-02  0.8930004E-01
          2   -1    0    0  501    0  0.00000000000E+00  0.00000000000E+00  0.11783137637E+04  0.11783137637E+04  0.00000000000E+00 0. -1.
         -2   -1    0    0    0  501 -0.00000000000E+00 -0.00000000000E+00 -0.43591548242E+03  0.43591548242E+03  0.00000000000E+00 0.  1.
         23    2    1    2    0    0  0.30079637499E+03 -0.14622565486E+03 -0.60440025476E+02  0.35163166139E+03  0.90174426911E+02 0.  0.
        254    2    1    2    0    0 -0.30079637499E+03  0.14622565486E+03  0.80283830680E+03  0.12625975848E+04  0.91528296875E+03 0.  0.
        -24    2    4    4    0    0 -0.50037263397E+03 -0.70214587442E+02  0.13619270577E+03  0.52938258758E+03  0.79966304194E+02 0.  0.
         24    2    4    4    0    0  0.19957625898E+03  0.21644024230E+03  0.66664560103E+03  0.73321499720E+03  0.80689609721E+02 0.  0.
         13    1    3    3    0    0  0.13647839223E+03 -0.93788380365E+02 -0.67925125219E+02  0.17898724668E+03  0.00000000000E+00 0.  1.
        -13    1    3    3    0    0  0.16431798276E+03 -0.52437274493E+02  0.74850997427E+01  0.17264441471E+03  0.00000000000E+00 0. -1.
          2    1    6    6  502    0  0.86776030066E+02  0.10965481735E+03  0.41037556294E+03  0.43354626169E+03  0.00000000000E+00 0. -1.
          3    1    5    5  503    0 -0.44150950269E+03 -0.34998974311E+02  0.12102692286E+03  0.45913297118E+03  0.00000000000E+00 0. -1.
         -4    1    5    5    0  503 -0.58863131282E+02 -0.35215613131E+02  0.15165782919E+02  0.70249616398E+02  0.00000000000E+00 0.  1.
         -1    1    6    6    0  502  0.11280022892E+03  0.10678542495E+03  0.25627003808E+03  0.29966873551E+03  0.00000000000E+00 0.  1.
<mgrwt>
<rscale>  0 0.14333809E+04</rscale>
<asrwt>0</asrwt>
<pdfrwt beam="1">  1        2 0.18127904E+00 0.14333809E+04</pdfrwt>
<pdfrwt beam="2">  1       -2 0.67063921E-01 0.14333809E+04</pdfrwt>
<totfact> 0.38674167E+01</totfact>
</mgrwt>
</event>
<event>
12    1  0.1442183E-007  0.1241633E+04  0.7818608E-02  0.9077176E-01
          2   -1    0    0  501    0  0.00000000000E+00  0.00000000000E+00  0.88690130271E+03  0.88690130271E+03  0.00000000000E+00 0. -1.
         -2   -1    0    0    0  501 -0.00000000000E+00 -0.00000000000E+00 -0.43456124103E+03  0.43456124103E+03  0.00000000000E+00 0.  1.
         23    2    1    2    0    0 -0.73536002698E+02  0.72087832439E+01 -0.18290565279E+03  0.21985522812E+03  0.97068703814E+02 0.  0.
        254    2    1    2    0    0  0.73536002698E+02 -0.72087832439E+01  0.63524571447E+03  0.11016073156E+04  0.89696268028E+03 0.  0.
        -24    2    4    4    0    0 -0.21150499762E+03 -0.36296678902E+03  0.22526228921E+03  0.48330085612E+03  0.79733083701E+02 0.  0.
         24    2    4    4    0    0  0.28504100032E+03  0.35575800578E+03  0.40998342526E+03  0.61830645950E+03  0.80027109965E+02 0.  0.
         11    1    3    3    0    0 -0.31173432972E+02 -0.44997706221E+02 -0.83991668881E+02  0.10025555810E+03  0.00000000000E+00 0. -1.
        -11    1    3    3    0    0 -0.42362569726E+02  0.52206489465E+02 -0.98913983914E+02  0.11959967002E+03  0.00000000000E+00 0.  1.
          2    1    6    6  502    0  0.11109052171E+03  0.19982853615E+03  0.18711798300E+03  0.29544151272E+03  0.00000000000E+00 0. -1.
          1    1    5    5  503    0 -0.97824348497E+02 -0.96924140324E+02  0.61071916311E+02  0.15064418707E+03  0.00000000000E+00 0. -1.
         -2    1    5    5    0  503 -0.11368064913E+03 -0.26604264870E+03  0.16419037290E+03  0.33265666905E+03  0.00000000000E+00 0.  1.
         -1    1    6    6    0  502  0.17395047861E+03  0.15592946963E+03  0.22286544226E+03  0.32286494678E+03  0.00000000000E+00 0.  1.
<mgrwt>
<rscale>  0 0.12416327E+04</rscale>
<asrwt>0</asrwt>
<pdfrwt beam="1">  1        2 0.13644635E+00 0.12416327E+04</pdfrwt>
<pdfrwt beam="2">  1       -2 0.66855575E-01 0.12416327E+04</pdfrwt>
<totfact> 0.60527214E+01</totfact>
</mgrwt>
</event>
<event>
12    1  0.1442183E-007  0.1392463E+04  0.7818608E-02  0.8959292E-01
         -2   -1    0    0    0  501 -0.00000000000E+00  0.00000000000E+00  0.22348877485E+03  0.22348877485E+03  0.00000000000E+00 0.  1.
          2   -1    0    0  501    0  0.00000000000E+00 -0.00000000000E+00 -0.21689600632E+04  0.21689600632E+04  0.00000000000E+00 0. -1.
         23    2    1    2    0    0  0.55584792474E+02 -0.38010993180E+03 -0.78878683812E+03  0.88213218276E+03  0.91647599334E+02 0.  0.
        254    2    1    2    0    0 -0.55584792474E+02  0.38010993180E+03 -0.11566844503E+04  0.15103166553E+04  0.89194408597E+03 0.  0.
        -24    2    4    4    0    0  0.35279853642E+03  0.35603204391E+03 -0.86051251694E+03  0.99898720831E+03  0.79170871954E+02 0.  0.
         24    2    4    4    0    0 -0.40838332889E+03  0.24077887887E+02 -0.29617193333E+03  0.51132944703E+03  0.79895564969E+02 0.  0.
         11    1    3    3    0    0  0.42537251166E+02 -0.15137223465E+03 -0.23422238093E+03  0.28210475871E+03  0.00000000000E+00 0.  1.
        -11    1    3    3    0    0  0.13047541308E+02 -0.22873769715E+03 -0.55456445719E+03  0.60002742405E+03  0.00000000000E+00 0. -1.
          2    1    6    6  502    0 -0.10635727562E+03  0.13036760743E+02 -0.37519514040E+02  0.11353211502E+03  0.00000000000E+00 0. -1.
          3    1    5    5  503    0  0.98668654026E+02  0.54211900308E+02 -0.20553177670E+03  0.23434535339E+03  0.00000000000E+00 0. -1.
         -4    1    5    5    0  503  0.25412988240E+03  0.30182014360E+03 -0.65498074024E+03  0.76464185492E+03  0.00000000000E+00 0.  1.
         -1    1    6    6    0  502 -0.30202605328E+03  0.11041127144E+02 -0.25865241929E+03  0.39779733201E+03  0.00000000000E+00 0.  1.
<mgrwt>
<rscale>  0 0.13924629E+04</rscale>
<asrwt>0</asrwt>
<pdfrwt beam="1">  1        2 0.33368615E+00 0.13924629E+04</pdfrwt>
<pdfrwt beam="2">  1       -2 0.34382890E-01 0.13924629E+04</pdfrwt>
<totfact> 0.41550395E+01</totfact>
</mgrwt>
</event>
<event>
12    1  0.2494449E-007  0.2539916E+04  0.7818608E-02  0.8388902E-01
          2   -1    0    0  501    0  0.00000000000E+00  0.00000000000E+00  0.11642630188E+04  0.11642630188E+04  0.00000000000E+00 0.  1.
         -2   -1    0    0    0  501 -0.00000000000E+00 -0.00000000000E+00 -0.13852479764E+04  0.13852479764E+04  0.00000000000E+00 0. -1.
         23    2    1    2    0    0  0.44783452947E+03  0.14739138844E+02  0.92313055820E+03  0.10301488089E+04  0.90903976483E+02 0.  0.
        254    2    1    2    0    0 -0.44783452947E+03 -0.14739138844E+02 -0.11441155158E+04  0.15193621863E+04  0.89369353337E+03 0.  0.
        -24    2    4    4    0    0  0.12140225750E+03  0.33198422932E+02  0.78216596644E+02  0.16775540258E+03  0.78634570588E+02 0.  0.
         24    2    4    4    0    0 -0.56923678697E+03 -0.47937561776E+02 -0.12223321125E+04  0.13516067837E+04  0.80103527640E+02 0.  0.
         13    1    3    3    0    0  0.37064049255E+03  0.64063314063E+01  0.67419143080E+03  0.76938254539E+03  0.00000000000E+00 0.  1.
        -13    1    3    3    0    0  0.77194036922E+02  0.83328074378E+01  0.24893912740E+03  0.26076626348E+03  0.00000000000E+00 0. -1.
          2    1    6    6  502    0 -0.53477849924E+03 -0.29270754629E+02 -0.11060517154E+04  0.12289000031E+04  0.00000000000E+00 0. -1.
          1    1    5    5  503    0  0.13001831049E+03  0.21551429289E+02  0.60914626111E+02  0.14518890054E+03  0.00000000000E+00 0. -1.
         -2    1    5    5    0  503 -0.86160529822E+01  0.11646993643E+02  0.17301970532E+02  0.22566502038E+02  0.00000000000E+00 0.  1.
         -1    1    6    6    0  502 -0.34458287737E+02 -0.18666807146E+02 -0.11628039703E+03  0.12270678064E+03  0.00000000000E+00 0.  1.
<mgrwt>
<rscale>  0 0.25399157E+04</rscale>
<asrwt>0</asrwt>
<pdfrwt beam="1">  1        2 0.17911739E+00 0.25399157E+04</pdfrwt>
<pdfrwt beam="2">  1       -2 0.21311507E+00 0.25399157E+04</pdfrwt>
<totfact> 0.19344785E+00</totfact>
</mgrwt>
</event>
<event>
12    1  0.1442183E-007  0.1492277E+04  0.7818608E-02  0.8889605E-01
         -2   -1    0    0    0  501 -0.00000000000E+00  0.00000000000E+00  0.46609641985E+03  0.46609641985E+03  0.00000000000E+00 0. -1.
          2   -1    0    0  501    0  0.00000000000E+00 -0.00000000000E+00 -0.11944366234E+04  0.11944366234E+04  0.00000000000E+00 0.  1.
         23    2    1    2    0    0  0.23091106137E+03  0.32257330695E+03  0.45164258894E+02  0.40954883178E+03  0.91197470988E+02 0.  0.
        254    2    1    2    0    0 -0.23091106137E+03 -0.32257330695E+03 -0.77350446241E+03  0.12509842114E+04  0.89959929262E+03 0.  0.
        -24    2    4    4    0    0 -0.15604557146E+03 -0.51254987420E+03 -0.11148100019E+03  0.55312907230E+03  0.80412457422E+02 0.  0.
         24    2    4    4    0    0 -0.74865489906E+02  0.18997656725E+03 -0.66202346223E+03  0.69785513914E+03  0.83849824101E+02 0.  0.
         13    1    3    3    0    0  0.78100546424E+02  0.84831182053E+02  0.52814696741E+02  0.12682829728E+03  0.00000000000E+00 0. -1.
        -13    1    3    3    0    0  0.15281051494E+03  0.23774212489E+03 -0.76504378464E+01  0.28272053449E+03  0.00000000000E+00 0.  1.
          2    1    6    6  502    0 -0.42727462901E+02  0.53965409679E+02 -0.12238993373E+03  0.14041793834E+03  0.00000000000E+00 0. -1.
          3    1    5    5  503    0 -0.11226328132E+03 -0.32051674812E+03 -0.10718358788E+03  0.35612125978E+03  0.00000000000E+00 0. -1.
         -4    1    5    5    0  503 -0.43782290141E+02 -0.19203312607E+03 -0.42974123112E+01  0.19700781252E+03  0.00000000000E+00 0.  1.
         -1    1    6    6    0  502 -0.32138027005E+02  0.13601115757E+03 -0.53963352849E+03  0.55743720080E+03  0.00000000000E+00 0.  1.
<mgrwt>
<rscale>  0 0.14922770E+04</rscale>
<asrwt>0</asrwt>
<pdfrwt beam="1">  1        2 0.18375948E+00 0.14922770E+04</pdfrwt>
<pdfrwt beam="2">  1       -2 0.71707143E-01 0.14922770E+04</pdfrwt>
<totfact> 0.32539397E+01</totfact>
</mgrwt>
</event>
<event>
12    1  0.1442183E-007  0.1674431E+04  0.7818608E-02  0.8776083E-01
         -1   -1    0    0    0  501 -0.00000000000E+00  0.00000000000E+00  0.61431083184E+03  0.61431083184E+03  0.00000000000E+00 0.  1.
          1   -1    0    0  501    0  0.00000000000E+00 -0.00000000000E+00 -0.11410018364E+04  0.11410018364E+04  0.00000000000E+00 0. -1.
         23    2    1    2    0    0 -0.12163802128E+03 -0.92865129870E+01  0.40596899974E+03  0.43312541858E+03  0.88908671789E+02 0.  0.
        254    2    1    2    0    0  0.12163802128E+03  0.92865129870E+01 -0.93266000429E+03  0.13221872496E+04  0.92921600932E+03 0.  0.
        -24    2    4    4    0    0  0.12718324674E+02 -0.37040343539E+03 -0.82004960078E+03  0.90344277491E+03  0.79793728219E+02 0.  0.
         24    2    4    4    0    0  0.10891969661E+03  0.37968994838E+03 -0.11261040351E+03  0.41874447474E+03  0.81473154671E+02 0.  0.
         11    1    3    3    0    0 -0.10225571868E+03 -0.39897424189E+02  0.34669031796E+03  0.36365122443E+03  0.00000000000E+00 0.  1.
        -11    1    3    3    0    0 -0.19382302610E+02  0.30610911202E+02  0.59278681782E+02  0.69474194150E+02  0.00000000000E+00 0. -1.
          2    1    6    6  502    0 -0.20848228316E+01 -0.35608523360E+01 -0.25106692223E+01  0.48300740721E+01  0.00000000000E+00 0. -1.
          3    1    5    5  503    0  0.32526575537E+02 -0.81958529668E+02 -0.23114772058E+03  0.24739532621E+03  0.00000000000E+00 0. -1.
         -4    1    5    5    0  503 -0.19808250862E+02 -0.28844490573E+03 -0.58890188019E+03  0.65604744869E+03  0.00000000000E+00 0.  1.
         -1    1    6    6    0  502  0.11100451944E+03  0.38325080072E+03 -0.11009973429E+03  0.41391440066E+03  0.00000000000E+00 0.  1.
<mgrwt>
<rscale>  0 0.16744310E+04</rscale>
<asrwt>0</asrwt>
<pdfrwt beam="1">  1        1 0.17553874E+00 0.16744310E+04</pdfrwt>
<pdfrwt beam="2">  1       -1 0.94509360E-01 0.16744310E+04</pdfrwt>
<totfact> 0.12205414E+01</totfact>
</mgrwt>
</event>
<event>
12    1  0.1442183E-007  0.3486717E+04  0.7818608E-02  0.8116945E-01
         -2   -1    0    0    0  501 -0.00000000000E+00  0.00000000000E+00  0.27463137697E+04  0.27463137697E+04  0.00000000000E+00 0.  1.
          2   -1    0    0  501    0  0.00000000000E+00 -0.00000000000E+00 -0.11066831817E+04  0.11066831817E+04  0.00000000000E+00 0. -1.
         23    2    1    2    0    0  0.11656743912E+04  0.29018277535E+03 -0.44507818672E+03  0.12842770521E+04  0.90940226448E+02 0.  0.
        254    2    1    2    0    0 -0.11656743912E+04 -0.29018277535E+03  0.20847087747E+04  0.25687198992E+04  0.89961570441E+03 0.  0.
        -24    2    4    4    0    0 -0.62620762022E+03  0.21906083880E+03  0.14198759087E+04  0.15692529853E+04  0.79898068151E+02 0.  0.
         24    2    4    4    0    0 -0.53946677103E+03 -0.50924361415E+03  0.66483286609E+03  0.99946691388E+03  0.81104355667E+02 0.  0.
         11    1    3    3    0    0  0.11458740681E+04  0.29149729369E+03 -0.42606119566E+03  0.12567920252E+04  0.00000000000E+00 0. -1.
        -11    1    3    3    0    0  0.19800323113E+02 -0.13145183378E+01 -0.19016991057E+02  0.27485026882E+02  0.00000000000E+00 0.  1.
          4    1    6    6  502    0 -0.52595671578E+03 -0.50920724316E+03  0.65803157467E+03  0.98434142280E+03  0.00000000000E+00 0. -1.
          1    1    5    5  503    0 -0.58911986816E+03  0.18732011866E+03  0.13384926948E+04  0.14743519728E+04  0.00000000000E+00 0. -1.
         -2    1    5    5    0  503 -0.37087752060E+02  0.31740720135E+02  0.81383213904E+02  0.94901012497E+02  0.00000000000E+00 0.  1.
         -3    1    6    6    0  502 -0.13510055244E+02 -0.36370990132E-01  0.68012914165E+01  0.15125491083E+02  0.00000000000E+00 0.  1.
<mgrwt>
<rscale>  0 0.34867172E+04</rscale>
<asrwt>0</asrwt>
<pdfrwt beam="1">  1        2 0.17025895E+00 0.34867172E+04</pdfrwt>
<pdfrwt beam="2">  1       -2 0.42250981E+00 0.34867172E+04</pdfrwt>
<totfact> 0.93591697E-02</totfact>
</mgrwt>
</event>
<event>
12    1  0.1442183E-007  0.1611279E+04  0.7818608E-02  0.8813649E-01
          1   -1    0    0  501    0  0.00000000000E+00  0.00000000000E+00  0.33359726938E+04  0.33359726938E+04  0.00000000000E+00 0. -1.
         -1   -1    0    0    0  501 -0.00000000000E+00 -0.00000000000E+00 -0.19456247563E+03  0.19456247563E+03  0.00000000000E+00 0.  1.
         23    2    1    2    0    0 -0.36500847568E+03  0.38067554566E+03  0.80893766514E+03  0.97006470694E+03  0.92197240721E+02 0.  0.
        254    2    1    2    0    0  0.36500847568E+03 -0.38067554566E+03  0.23324725530E+04  0.25604704625E+04  0.91511514040E+03 0.  0.
        -24    2    4    4    0    0  0.60820032135E+03 -0.21327136085E+02  0.12916396608E+04  0.14300274246E+04  0.79265023618E+02 0.  0.
         24    2    4    4    0    0 -0.24319184567E+03 -0.35934840957E+03  0.10408328922E+04  0.11304430379E+04  0.79339770571E+02 0.  0.
         11    1    3    3    0    0 -0.28022325079E+03  0.24271988157E+03  0.60652588480E+03  0.71085276965E+03  0.00000000000E+00 0. -1.
        -11    1    3    3    0    0 -0.84785224895E+02  0.13795566409E+03  0.20241178034E+03  0.25921193729E+03  0.00000000000E+00 0.  1.
          4    1    6    6  502    0 -0.21345758072E+03 -0.25987744975E+03  0.82601762691E+03  0.89185511583E+03  0.00000000000E+00 0. -1.
          3    1    5    5  503    0  0.59481569866E+03 -0.30505186011E+02  0.12351366934E+04  0.13712399254E+04  0.00000000000E+00 0. -1.
         -4    1    5    5    0  503  0.13384622696E+02  0.91780499259E+01  0.56502967478E+02  0.58787499172E+02  0.00000000000E+00 0.  1.
         -3    1    6    6    0  502 -0.29734264948E+02 -0.99470959818E+02  0.21481526527E+03  0.23858792206E+03  0.00000000000E+00 0.  1.
<mgrwt>
<rscale>  0 0.16112791E+04</rscale>
<asrwt>0</asrwt>
<pdfrwt beam="1">  1        1 0.51322653E+00 0.16112791E+04</pdfrwt>
<pdfrwt beam="2">  1       -1 0.29932691E-01 0.16112791E+04</pdfrwt>
<totfact> 0.33175921E+00</totfact>
</mgrwt>
</event>
<event>
12    1  0.1442183E-007  0.2259611E+04  0.7818608E-02  0.8494018E-01
         -2   -1    0    0    0  501 -0.00000000000E+00  0.00000000000E+00  0.43458273570E+03  0.43458273570E+03  0.00000000000E+00 0.  1.
          2   -1    0    0  501    0  0.00000000000E+00 -0.00000000000E+00 -0.29372092952E+04  0.29372092952E+04  0.00000000000E+00 0. -1.
         23    2    1    2    0    0  0.13331577108E+02  0.11697697716E+03 -0.24622478290E+04  0.24674533584E+04  0.10862946252E+03 0.  0.
        254    2    1    2    0    0 -0.13331577108E+02 -0.11697697716E+03 -0.40378730433E+02  0.90433867247E+03  0.89573246482E+03 0.  0.
        -24    2    4    4    0    0 -0.11917480945E+03 -0.28873179576E+03  0.33856895268E+03  0.46760762946E+03  0.80369610662E+02 0.  0.
         24    2    4    4    0    0  0.10584323234E+03  0.17175481859E+03 -0.37894768312E+03  0.43673104302E+03  0.80188215172E+02 0.  0.
         13    1    3    3    0    0  0.34361160438E+02 -0.26343009406E+01 -0.34249837645E+03  0.34422778325E+03  0.00000000000E+00 0.  1.
        -13    1    3    3    0    0 -0.21029583330E+02  0.11961127810E+03 -0.21197494526E+04  0.21232255751E+04  0.00000000000E+00 0. -1.
          2    1    6    6  502    0  0.11456399428E+03  0.17167794665E+03 -0.37259870730E+03  0.42594368505E+03  0.00000000000E+00 0. -1.
          3    1    5    5  503    0 -0.90342591993E+02 -0.26333390251E+03  0.26374317112E+03  0.38349314004E+03  0.00000000000E+00 0. -1.
         -4    1    5    5    0  503 -0.28832217456E+02 -0.25397893244E+02  0.74825781558E+02  0.84114489420E+02  0.00000000000E+00 0.  1.
         -1    1    6    6    0  502 -0.87207619342E+01  0.76871944699E-01 -0.63489758109E+01  0.10787357965E+02  0.00000000000E+00 0.  1.
<mgrwt>
<rscale>  0 0.22596110E+04</rscale>
<asrwt>0</asrwt>
<pdfrwt beam="1">  1        2 0.45187834E+00 0.22596110E+04</pdfrwt>
<pdfrwt beam="2">  1       -2 0.66858884E-01 0.22596110E+04</pdfrwt>
<totfact> 0.35631940E+00</totfact>
</mgrwt>
</event>
<event>
12    1  0.1442183E-007  0.1446555E+04  0.7818608E-02  0.8920792E-01
          1   -1    0    0  501    0  0.00000000000E+00  0.00000000000E+00  0.69608609460E+03  0.69608609460E+03  0.00000000000E+00 0. -1.
         -1   -1    0    0    0  501 -0.00000000000E+00 -0.00000000000E+00 -0.75153092317E+03  0.75153092317E+03  0.00000000000E+00 0.  1.
         23    2    1    2    0    0  0.31450181358E+03  0.25229483394E+03  0.99587135246E+02  0.42570331589E+03  0.93496746837E+02 0.  0.
        254    2    1    2    0    0 -0.31450181358E+03 -0.25229483394E+03 -0.15503196382E+03  0.10219137019E+04  0.92612560181E+03 0.  0.
        -24    2    4    4    0    0 -0.45413128242E+03  0.22090586906E+03 -0.78731840483E+02  0.51684048418E+03  0.76751278316E+02 0.  0.
         24    2    4    4    0    0  0.13962946883E+03 -0.47320070300E+03 -0.76300123336E+02  0.50507321771E+03  0.76563389043E+02 0.  0.
         11    1    3    3    0    0  0.12053032792E+03  0.10918190006E+03  0.86724852913E+02  0.18430802305E+03  0.00000000000E+00 0. -1.
        -11    1    3    3    0    0  0.19397148567E+03  0.14311293388E+03  0.12862282333E+02  0.24139529283E+03  0.00000000000E+00 0.  1.
          4    1    6    6  502    0  0.25605842123E+02 -0.13906090712E+03  0.95677290405E+01  0.14172203950E+03  0.00000000000E+00 0. -1.
          1    1    5    5  503    0 -0.69622820920E+02  0.59784460483E+02 -0.32631759135E+02  0.97397898398E+02  0.00000000000E+00 0. -1.
         -2    1    5    5    0  503 -0.38450846150E+03  0.16112140858E+03 -0.46100081348E+02  0.41944258578E+03  0.00000000000E+00 0.  1.
         -1    1    6    6    0  502  0.11402362671E+03 -0.33413979588E+03 -0.85867852376E+02  0.36335117822E+03  0.00000000000E+00 0.  1.
<mgrwt>
<rscale>  0 0.14465548E+04</rscale>
<asrwt>0</asrwt>
<pdfrwt beam="1">  1        1 0.10709017E+00 0.14465548E+04</pdfrwt>
<pdfrwt beam="2">  1       -1 0.11562014E+00 0.14465548E+04</pdfrwt>
<totfact> 0.18094270E+01</totfact>
</mgrwt>
</event>
<event>
12    1  0.1442183E-007  0.2031202E+04  0.7818608E-02  0.8592170E-01
         -2   -1    0    0    0  501 -0.00000000000E+00  0.00000000000E+00  0.92983148506E+03  0.92983148506E+03  0.00000000000E+00 0. -1.
          2   -1    0    0  501    0  0.00000000000E+00 -0.00000000000E+00 -0.11092817926E+04  0.11092817926E+04  0.00000000000E+00 0.  1.
         23    2    1    2    0    0 -0.21044525226E+03 -0.68290176761E+03 -0.46443471014E+03  0.85709447786E+03  0.90935777227E+02 0.  0.
        254    2    1    2    0    0  0.21044525226E+03  0.68290176761E+03  0.28498440256E+03  0.11820187999E+04  0.89739083186E+03 0.  0.
        -24    2    4    4    0    0 -0.16826750227E+03  0.42588094636E+03 -0.20385100449E+03  0.50767329812E+03  0.80550684650E+02 0.  0.
         24    2    4    4    0    0  0.37871275453E+03  0.25702082125E+03  0.48883540705E+03  0.67434550174E+03  0.79364649127E+02 0.  0.
         13    1    3    3    0    0 -0.81318009565E+02 -0.27749025281E+03 -0.13571499612E+03  0.31942451261E+03  0.00000000000E+00 0. -1.
        -13    1    3    3    0    0 -0.12912724269E+03 -0.40541151480E+03 -0.32871971402E+03  0.53766996524E+03  0.00000000000E+00 0.  1.
          2    1    6    6  502    0  0.34900407837E+03  0.23688913455E+03  0.47655404511E+03  0.63641501137E+03  0.00000000000E+00 0. -1.
          1    1    5    5  503    0 -0.66384209719E+02  0.14446319964E+03 -0.30764958491E+02  0.16193505495E+03  0.00000000000E+00 0. -1.
         -2    1    5    5    0  503 -0.10188329255E+03  0.28141774672E+03 -0.17308604600E+03  0.34573824317E+03  0.00000000000E+00 0.  1.
         -1    1    6    6    0  502  0.29708676152E+02  0.20131686708E+02  0.12281361938E+02  0.37930490367E+02  0.00000000000E+00 0.  1.
<mgrwt>
<rscale>  0 0.20312017E+04</rscale>
<asrwt>0</asrwt>
<pdfrwt beam="1">  1        2 0.17065874E+00 0.20312017E+04</pdfrwt>
<pdfrwt beam="2">  1       -2 0.14305100E+00 0.20312017E+04</pdfrwt>
<totfact> 0.67651229E+00</totfact>
</mgrwt>
</event>
<event>
12    1  0.1442183E-007  0.2009051E+04  0.7818608E-02  0.8602401E-01
          1   -1    0    0  501    0  0.00000000000E+00  0.00000000000E+00  0.82829567300E+03  0.82829567300E+03  0.00000000000E+00 0. -1.
         -1   -1    0    0    0  501 -0.00000000000E+00 -0.00000000000E+00 -0.12182502546E+04  0.12182502546E+04  0.00000000000E+00 0.  1.
         23    2    1    2    0    0  0.70383338275E+03  0.32020952377E+03 -0.37407434589E+03  0.86380800502E+03  0.91198045385E+02 0.  0.
        254    2    1    2    0    0 -0.70383338275E+03 -0.32020952377E+03 -0.15880235691E+02  0.11827379226E+04  0.89481911121E+03 0.  0.
        -24    2    4    4    0    0 -0.80227232516E+03 -0.48556191012E+03 -0.12394902912E+03  0.94928494994E+03  0.79795376430E+02 0.  0.
         24    2    4    4    0    0  0.98438942407E+02  0.16535238634E+03  0.10806879342E+03  0.23345297262E+03  0.76090664741E+02 0.  0.
         13    1    3    3    0    0  0.27301885376E+03  0.10364714887E+03 -0.97175806805E+02  0.30777453340E+03  0.00000000000E+00 0. -1.
        -13    1    3    3    0    0  0.43081452899E+03  0.21656237491E+03 -0.27689853909E+03  0.55603347162E+03  0.00000000000E+00 0.  1.
          2    1    6    6  502    0  0.56086502407E+02  0.47306406980E+02  0.72368120081E+02  0.10305695851E+03  0.00000000000E+00 0. -1.
          3    1    5    5  503    0 -0.79783238975E+03 -0.47380211797E+03 -0.12638275267E+03  0.93648148369E+03  0.00000000000E+00 0. -1.
         -4    1    5    5    0  503 -0.44399354127E+01 -0.11759792144E+02  0.24337235563E+01  0.12803466253E+02  0.00000000000E+00 0.  1.
         -1    1    6    6    0  502  0.42352440000E+02  0.11804597936E+03  0.35700673343E+02  0.13039601411E+03  0.00000000000E+00 0.  1.
<mgrwt>
<rscale>  0 0.20090509E+04</rscale>
<asrwt>0</asrwt>
<pdfrwt beam="1">  1        1 0.12743010E+00 0.20090509E+04</pdfrwt>
<pdfrwt beam="2">  1       -1 0.18742311E+00 0.20090509E+04</pdfrwt>
<totfact> 0.35686816E+00</totfact>
</mgrwt>
</event>
<event>
12    1  0.1442183E-007  0.3115703E+04  0.7818608E-02  0.8211442E-01
         -2   -1    0    0    0  501 -0.00000000000E+00  0.00000000000E+00  0.67747451275E+03  0.67747451275E+03  0.00000000000E+00 0.  1.
          2   -1    0    0  501    0  0.00000000000E+00 -0.00000000000E+00 -0.35822757730E+04  0.35822757730E+04  0.00000000000E+00 0. -1.
         23    2    1    2    0    0  0.70223859619E+03  0.29570642380E+03  0.31503086388E+03  0.82952779319E+03  0.91052618979E+02 0.  0.
        254    2    1    2    0    0 -0.70223859619E+03 -0.29570642380E+03 -0.32198321241E+04  0.34302224926E+04  0.90472432587E+03 0.  0.
        -24    2    4    4    0    0  0.18462043029E+03  0.23697282324E+02 -0.31046141704E+03  0.37105631042E+03  0.81548939677E+02 0.  0.
         24    2    4    4    0    0 -0.88685902648E+03 -0.31940370613E+03 -0.29093707071E+04  0.30591661821E+04  0.74311226228E+02 0.  0.
         11    1    3    3    0    0  0.35313444479E+03  0.13011490912E+03  0.20105852488E+03  0.42668296908E+03  0.00000000000E+00 0.  1.
        -11    1    3    3    0    0  0.34910415140E+03  0.16559151468E+03  0.11397233900E+03  0.40284482412E+03  0.00000000000E+00 0. -1.
          4    1    6    6  502    0 -0.79859530984E+03 -0.26294114716E+03 -0.25870677387E+04  0.27202595465E+04  0.00000000000E+00 0. -1.
          3    1    5    5  503    0  0.18409801387E+03  0.95643067824E+01 -0.30395529043E+03  0.35548892142E+03  0.00000000000E+00 0. -1.
         -4    1    5    5    0  503  0.52241641689E+00  0.14132975542E+02 -0.65061266052E+01  0.15567388991E+02  0.00000000000E+00 0.  1.
         -3    1    6    6    0  502 -0.88263716635E+02 -0.56462558962E+02 -0.32230296841E+03  0.33890663564E+03  0.00000000000E+00 0.  1.
<mgrwt>
<rscale>  0 0.31157025E+04</rscale>
<asrwt>0</asrwt>
<pdfrwt beam="1">  1        2 0.55111935E+00 0.31157025E+04</pdfrwt>
<pdfrwt beam="2">  1       -2 0.10422685E+00 0.31157025E+04</pdfrwt>
<totfact> 0.45052461E-01</totfact>
</mgrwt>
</event>
<event>
12    1  0.1442183E-007  0.1357136E+04  0.7818608E-02  0.8985444E-01
         -2   -1    0    0    0  501 -0.00000000000E+00  0.00000000000E+00  0.41194978281E+03  0.41194978281E+03  0.00000000000E+00 0.  1.
          2   -1    0    0  501    0  0.00000000000E+00 -0.00000000000E+00 -0.11177447920E+04  0.11177447920E+04  0.00000000000E+00 0. -1.
         23    2    1    2    0    0 -0.18928357456E+03  0.32202570943E+03 -0.38079390814E+03  0.54080112143E+03  0.89067521203E+02 0.  0.
        254    2    1    2    0    0  0.18928357456E+03 -0.32202570943E+03 -0.32500110104E+03  0.98889345337E+03  0.85601151704E+03 0.  0.
        -24    2    4    4    0    0  0.39724401177E+03 -0.65498802537E+02  0.12169458070E+03  0.42811630566E+03  0.79881801296E+02 0.  0.
         24    2    4    4    0    0 -0.20796043721E+03 -0.25652690689E+03 -0.44669568174E+03  0.56077714771E+03  0.76683635206E+02 0.  0.
         13    1    3    3    0    0 -0.14847347495E+03  0.21155719391E+03 -0.30914014084E+03  0.40294968140E+03  0.00000000000E+00 0.  1.
        -13    1    3    3    0    0 -0.40810099609E+02  0.11046851552E+03 -0.71653767298E+02  0.13785144003E+03  0.00000000000E+00 0. -1.
          4    1    6    6  502    0 -0.20338368252E+03 -0.21969676357E+03 -0.41647359529E+03  0.51291504736E+03  0.00000000000E+00 0. -1.
          3    1    5    5  503    0  0.37375624081E+03 -0.74700246892E+02  0.98086973589E+02  0.39356690514E+03  0.00000000000E+00 0. -1.
         -4    1    5    5    0  503  0.23487770953E+02  0.92014443544E+01  0.23607607111E+02  0.34549400517E+02  0.00000000000E+00 0.  1.
         -3    1    6    6    0  502 -0.45767546905E+01 -0.36830143319E+02 -0.30222086450E+02  0.47862100349E+02  0.00000000000E+00 0.  1.
<mgrwt>
<rscale>  0 0.13571363E+04</rscale>
<asrwt>0</asrwt>
<pdfrwt beam="1">  1        2 0.17196074E+00 0.13571363E+04</pdfrwt>
<pdfrwt beam="2">  1       -2 0.63376890E-01 0.13571363E+04</pdfrwt>
<totfact> 0.47810502E+01</totfact>
</mgrwt>
</event>
<event>
12    1  0.1442183E-007  0.2492702E+04  0.7818608E-02  0.8405590E-01
         -1   -1    0    0    0  501 -0.00000000000E+00  0.00000000000E+00  0.18109834010E+04  0.18109834010E+04  0.00000000000E+00 0.  1.
          1   -1    0    0  501    0  0.00000000000E+00 -0.00000000000E+00 -0.85776070770E+03  0.85776070770E+03  0.00000000000E+00 0. -1.
         23    2    1    2    0    0 -0.27199250581E+03 -0.59793068442E+03 -0.48369410759E+03  0.82093776367E+03  0.92074945098E+02 0.  0.
        254    2    1    2    0    0  0.27199250581E+03  0.59793068442E+03  0.14369168009E+04  0.18478063451E+04  0.95820528567E+03 0.  0.
        -24    2    4    4    0    0  0.25165954237E+03  0.28180504721E+03  0.12307622368E+02  0.38611803343E+03  0.78670504492E+02 0.  0.
         24    2    4    4    0    0  0.20332963444E+02  0.31612563721E+03  0.14246091786E+04  0.14616883116E+04  0.81685744211E+02 0.  0.
         13    1    3    3    0    0 -0.93079219660E+01 -0.10958612354E+02 -0.32005122912E+02  0.35086414589E+02  0.00000000000E+00 0.  1.
        -13    1    3    3    0    0 -0.26268458385E+03 -0.58697207207E+03 -0.45168898468E+03  0.78585134908E+03  0.00000000000E+00 0. -1.
          2    1    6    6  502    0 -0.27591688581E+02  0.55008539400E+02  0.25281447379E+03  0.26019684633E+03  0.00000000000E+00 0. -1.
          3    1    5    5  503    0  0.65855211987E+02  0.87199693407E+02  0.38328318918E+02  0.11580049873E+03  0.00000000000E+00 0. -1.
         -4    1    5    5    0  503  0.18580433038E+03  0.19460535380E+03 -0.26020696550E+02  0.27031753470E+03  0.00000000000E+00 0.  1.
         -1    1    6    6    0  502  0.47924652025E+02  0.26111709781E+03  0.11717947048E+04  0.12014914653E+04  0.00000000000E+00 0.  1.
<mgrwt>
<rscale>  0 0.24927017E+04</rscale>
<asrwt>0</asrwt>
<pdfrwt beam="1">  1        1 0.13196319E+00 0.24927017E+04</pdfrwt>
<pdfrwt beam="2">  1       -1 0.27861283E+00 0.24927017E+04</pdfrwt>
<totfact> 0.79687283E-01</totfact>
</mgrwt>
</event>
<event>
12    1  0.1442183E-007  0.2724113E+04  0.7818608E-02  0.8327223E-01
          2   -1    0    0  501    0  0.00000000000E+00  0.00000000000E+00  0.27836842645E+04  0.27836842645E+04  0.00000000000E+00 0.  1.
         -2   -1    0    0    0  501 -0.00000000000E+00 -0.00000000000E+00 -0.66645406251E+03  0.66645406251E+03  0.00000000000E+00 0. -1.
         23    2    1    2    0    0 -0.55619860465E+03  0.86555907580E+03  0.17782116388E+04  0.20566192336E+04  0.95376296471E+02 0.  0.
        254    2    1    2    0    0  0.55619860465E+03 -0.86555907580E+03  0.33901856310E+03  0.13935190934E+04  0.87659139623E+03 0.  0.
        -24    2    4    4    0    0 -0.18909450597E+03  0.19567433339E+01  0.47198953031E+02  0.21051501492E+03  0.79550419908E+02 0.  0.
         24    2    4    4    0    0  0.74529311062E+03 -0.86751581914E+03  0.29181961007E+03  0.11830040785E+04  0.79337554935E+02 0.  0.
         11    1    3    3    0    0 -0.49260722085E+03  0.78204264158E+03  0.15359652804E+04  0.17926075727E+04  0.00000000000E+00 0. -1.
        -11    1    3    3    0    0 -0.63591383798E+02  0.83516434229E+02  0.24224635849E+03  0.26401166088E+03  0.00000000000E+00 0.  1.
          4    1    6    6  502    0  0.73759012449E+03 -0.86338088421E+03  0.28236406400E+03  0.11701261503E+04  0.00000000000E+00 0. -1.
          3    1    5    5  503    0 -0.18623928372E+03 -0.37361883999E+01  0.25637644264E+02  0.18803275966E+03  0.00000000000E+00 0. -1.
         -4    1    5    5    0  503 -0.28552222551E+01  0.56929317338E+01  0.21561308766E+02  0.22482255260E+02  0.00000000000E+00 0.  1.
         -3    1    6    6    0  502  0.77029861249E+01 -0.41349349272E+01  0.94555460690E+01  0.12877928155E+02  0.00000000000E+00 0.  1.
<mgrwt>
<rscale>  0 0.27241128E+04</rscale>
<asrwt>0</asrwt>
<pdfrwt beam="1">  1        2 0.42825911E+00 0.27241128E+04</pdfrwt>
<pdfrwt beam="2">  1       -2 0.10253140E+00 0.27241128E+04</pdfrwt>
<totfact> 0.16113275E+00</totfact>
</mgrwt>
</event>
<event>
12    1  0.1442183E-007  0.1669364E+04  0.7818608E-02  0.8779033E-01
         -2   -1    0    0    0  501 -0.00000000000E+00  0.00000000000E+00  0.41708822851E+03  0.41708822851E+03  0.00000000000E+00 0.  1.
          2   -1    0    0  501    0  0.00000000000E+00 -0.00000000000E+00 -0.16703751101E+04  0.16703751101E+04  0.00000000000E+00 0. -1.
         23    2    1    2    0    0  0.24595162449E+03  0.52195446151E+03 -0.45729173874E+03  0.74205258414E+03  0.92723469642E+02 0.  0.
        254    2    1    2    0    0 -0.24595162449E+03 -0.52195446151E+03 -0.79599514288E+03  0.13454107545E+04  0.91847328177E+03 0.  0.
        -24    2    4    4    0    0 -0.15432878733E+03  0.20726747954E+03 -0.45888022532E+03  0.53278769605E+03  0.80712360905E+02 0.  0.
         24    2    4    4    0    0 -0.91622837163E+02 -0.72922194105E+03 -0.33711491756E+03  0.81262305843E+03  0.80934441734E+02 0.  0.
         11    1    3    3    0    0  0.12923956025E+03  0.24375730079E+03 -0.16222949655E+03  0.32006076794E+03  0.00000000000E+00 0. -1.
        -11    1    3    3    0    0  0.11671206425E+03  0.27819716072E+03 -0.29506224219E+03  0.42199181620E+03  0.00000000000E+00 0.  1.
          2    1    6    6  502    0 -0.54861389671E+01 -0.34996447063E+03 -0.17422937258E+03  0.39097455505E+03  0.00000000000E+00 0. -1.
          3    1    5    5  503    0 -0.24344060966E+02  0.14925949088E+02 -0.11062419912E+03  0.11425029843E+03  0.00000000000E+00 0. -1.
         -4    1    5    5    0  503 -0.12998472636E+03  0.19234153045E+03 -0.34825602620E+03  0.41853739762E+03  0.00000000000E+00 0.  1.
         -1    1    6    6    0  502 -0.86136698196E+02 -0.37925747042E+03 -0.16288554497E+03  0.42164850339E+03  0.00000000000E+00 0.  1.
<mgrwt>
<rscale>  0 0.16693637E+04</rscale>
<asrwt>0</asrwt>
<pdfrwt beam="1">  1        2 0.25698078E+00 0.16693637E+04</pdfrwt>
<pdfrwt beam="2">  1       -2 0.64167420E-01 0.16693637E+04</pdfrwt>
<totfact> 0.21805859E+01</totfact>
</mgrwt>
</event>
<event>
12    1  0.1442183E-007  0.1056779E+04  0.7818608E-02  0.9248373E-01
          2   -1    0    0  501    0  0.00000000000E+00  0.00000000000E+00  0.73915345678E+03  0.73915345678E+03  0.00000000000E+00 0. -1.
         -2   -1    0    0    0  501 -0.00000000000E+00 -0.00000000000E+00 -0.37772353066E+03  0.37772353066E+03  0.00000000000E+00 0.  1.
         23    2    1    2    0    0  0.80724579472E+02  0.59351889512E+02 -0.14627494414E+00  0.13572198286E+03  0.91549607950E+02 0.  0.
        254    2    1    2    0    0 -0.80724579472E+02 -0.59351889512E+02  0.36157620106E+03  0.98115500458E+03  0.90658076823E+03 0.  0.
        -24    2    4    4    0    0  0.22203981715E+02  0.39860341813E+03  0.44343819829E+02  0.40907487584E+03  0.77447904659E+02 0.  0.
         24    2    4    4    0    0 -0.10292856119E+03 -0.45795530765E+03  0.31723238123E+03  0.57208012874E+03  0.79510612413E+02 0.  0.
         11    1    3    3    0    0 -0.12889758980E+02 -0.11894272145E+02 -0.41059290001E+01  0.18013279806E+02  0.00000000000E+00 0.  1.
        -11    1    3    3    0    0  0.93614338452E+02  0.71246161657E+02  0.39596540559E+01  0.11770870306E+03  0.00000000000E+00 0. -1.
          2    1    6    6  502    0 -0.51286969587E+02 -0.82973951765E+02  0.64570428131E+02  0.11698021247E+03  0.00000000000E+00 0. -1.
          1    1    5    5  503    0  0.87445093080E+01  0.26542084837E+02  0.22940538312E+02  0.36155456138E+02  0.00000000000E+00 0. -1.
         -2    1    5    5    0  503  0.13459472407E+02  0.37206133330E+03  0.21403281517E+02  0.37291941970E+03  0.00000000000E+00 0.  1.
         -1    1    6    6    0  502 -0.51641591600E+02 -0.37498135588E+03  0.25266195310E+03  0.45509991627E+03  0.00000000000E+00 0.  1.
<mgrwt>
<rscale>  0 0.10567794E+04</rscale>
<asrwt>0</asrwt>
<pdfrwt beam="1">  1        2 0.11371592E+00 0.10567794E+04</pdfrwt>
<pdfrwt beam="2">  1       -2 0.58111313E-01 0.10567794E+04</pdfrwt>
<totfact> 0.10543190E+02</totfact>
</mgrwt>
</event>
<event>
12    1  0.1442183E-007  0.2016607E+04  0.7818608E-02  0.8598896E-01
          2   -1    0    0  501    0  0.00000000000E+00  0.00000000000E+00  0.18001068269E+04  0.18001068269E+04  0.00000000000E+00 0. -1.
         -2   -1    0    0    0  501 -0.00000000000E+00 -0.00000000000E+00 -0.56478634859E+03  0.56478634859E+03  0.00000000000E+00 0.  1.
         23    2    1    2    0    0 -0.22970280873E+03  0.75105829744E+03  0.69352032799E+03  0.10518736008E+04  0.92820688226E+02 0.  0.
        254    2    1    2    0    0  0.22970280873E+03 -0.75105829744E+03  0.54180015035E+03  0.13130195747E+04  0.90200945352E+03 0.  0.
        -24    2    4    4    0    0  0.33154098091E+03  0.74542224299E+02  0.80132214763E+02  0.35810874633E+03  0.79653858206E+02 0.  0.
         24    2    4    4    0    0 -0.10183817217E+03 -0.82560052174E+03  0.46166793559E+03  0.95491082842E+03  0.82037629547E+02 0.  0.
         13    1    3    3    0    0 -0.14943151605E+03  0.37094715158E+03  0.39316553462E+03  0.56081253986E+03  0.00000000000E+00 0.  1.
        -13    1    3    3    0    0 -0.80271292687E+02  0.38011114587E+03  0.30035479337E+03  0.49106106091E+03  0.00000000000E+00 0. -1.
          2    1    6    6  502    0  0.44097556867E+01 -0.18085964419E+03  0.12450711654E+03  0.21961711890E+03  0.00000000000E+00 0. -1.
          1    1    5    5  503    0  0.12668090221E+02 -0.13197954878E+02  0.48211802772E+01  0.18918517439E+02  0.00000000000E+00 0. -1.
         -2    1    5    5    0  503  0.31887289069E+03  0.87740179177E+02  0.75311034485E+02  0.33919022889E+03  0.00000000000E+00 0.  1.
         -1    1    6    6    0  502 -0.10624792786E+03 -0.64474087755E+03  0.33716081904E+03  0.73529370952E+03  0.00000000000E+00 0.  1.
<mgrwt>
<rscale>  0 0.20166068E+04</rscale>
<asrwt>0</asrwt>
<pdfrwt beam="1">  1        2 0.27693951E+00 0.20166068E+04</pdfrwt>
<pdfrwt beam="2">  1       -2 0.86890208E-01 0.20166068E+04</pdfrwt>
<totfact> 0.91718357E+00</totfact>
</mgrwt>
</event>
<event>
12    1  0.1442183E-007  0.1928241E+04  0.7818608E-02  0.8640926E-01
          2   -1    0    0  501    0  0.00000000000E+00  0.00000000000E+00  0.17941563057E+04  0.17941563057E+04  0.00000000000E+00 0. -1.
         -2   -1    0    0    0  501 -0.00000000000E+00 -0.00000000000E+00 -0.51808639289E+03  0.51808639289E+03  0.00000000000E+00 0.  1.
         23    2    1    2    0    0 -0.51263332999E+03 -0.21694815588E+03  0.11282611557E+04  0.12616835329E+04  0.94935074274E+02 0.  0.
        254    2    1    2    0    0  0.51263332999E+03  0.21694815588E+03  0.14780875712E+03  0.10505591657E+04  0.87861692371E+03 0.  0.
        -24    2    4    4    0    0  0.38213782092E+03 -0.95664761515E+02 -0.28665426937E+03  0.49392867428E+03  0.81325299586E+02 0.  0.
         24    2    4    4    0    0  0.13049550907E+03  0.31261291739E+03  0.43446302649E+03  0.55663049144E+03  0.79520240207E+02 0.  0.
         13    1    3    3    0    0 -0.41424441716E+03 -0.14828938203E+03  0.94824338799E+03  0.10453486025E+04  0.00000000000E+00 0. -1.
        -13    1    3    3    0    0 -0.98388912835E+02 -0.68658773850E+02  0.18001776775E+03  0.21633493037E+03  0.00000000000E+00 0.  1.
          2    1    6    6  502    0  0.23123367432E+02  0.15618944587E+03  0.18505804003E+03  0.24326181637E+03  0.00000000000E+00 0. -1.
          1    1    5    5  503    0  0.18708903156E+03 -0.54549647230E+02 -0.92695096814E+02  0.21580164669E+03  0.00000000000E+00 0. -1.
         -2    1    5    5    0  503  0.19504878936E+03 -0.41115114286E+02 -0.19395917256E+03  0.27812702758E+03  0.00000000000E+00 0.  1.
         -1    1    6    6    0  502  0.10737214164E+03  0.15642347152E+03  0.24940498646E+03  0.31336867506E+03  0.00000000000E+00 0.  1.
<mgrwt>
<rscale>  0 0.19282406E+04</rscale>
<asrwt>0</asrwt>
<pdfrwt beam="1">  1        2 0.27602404E+00 0.19282406E+04</pdfrwt>
<pdfrwt beam="2">  1       -2 0.79705600E-01 0.19282406E+04</pdfrwt>
<totfact> 0.11321905E+01</totfact>
</mgrwt>
</event>
<event>
12    1  0.1442183E-007  0.1550841E+04  0.7818608E-02  0.8851331E-01
          1   -1    0    0  501    0  0.00000000000E+00  0.00000000000E+00  0.21206193636E+04  0.21206193636E+04  0.00000000000E+00 0. -1.
         -1   -1    0    0    0  501 -0.00000000000E+00 -0.00000000000E+00 -0.28353838738E+03  0.28353838738E+03  0.00000000000E+00 0.  1.
         23    2    1    2    0    0 -0.54428187182E+02  0.61295907699E+02 -0.16439054771E+03  0.20543447773E+03  0.91975304304E+02 0.  0.
        254    2    1    2    0    0  0.54428187182E+02 -0.61295907699E+02  0.20014715239E+04  0.21987232733E+04  0.90651870108E+03 0.  0.
        -24    2    4    4    0    0  0.43177609631E+03  0.13007633788E+03  0.12702030525E+04  0.13501530429E+04  0.78402764955E+02 0.  0.
         24    2    4    4    0    0 -0.37734790913E+03 -0.19137224558E+03  0.73126847146E+03  0.84857023042E+03  0.79391924659E+02 0.  0.
         11    1    3    3    0    0 -0.24394303689E+02  0.63124267252E+02 -0.16162160306E+03  0.17521785795E+03  0.00000000000E+00 0.  1.
        -11    1    3    3    0    0 -0.30033883493E+02 -0.18283595535E+01 -0.27689446509E+01  0.30216619778E+02  0.00000000000E+00 0. -1.
          2    1    6    6  502    0 -0.37438488584E+03 -0.19441203561E+03  0.70204798939E+03  0.81904301580E+03  0.00000000000E+00 0. -1.
          3    1    5    5  503    0  0.32323121153E+03  0.13195869519E+03  0.97399368754E+03  0.10346763826E+04  0.00000000000E+00 0. -1.
         -4    1    5    5    0  503  0.10854488479E+03 -0.18823573059E+01  0.29620936495E+03  0.31547666025E+03  0.00000000000E+00 0.  1.
         -1    1    6    6    0  502 -0.29630232889E+01  0.30397900264E+01  0.29220482074E+02  0.29527214617E+02  0.00000000000E+00 0.  1.
<mgrwt>
<rscale>  0 0.15508411E+04</rscale>
<asrwt>0</asrwt>
<pdfrwt beam="1">  1        1 0.32624912E+00 0.15508411E+04</pdfrwt>
<pdfrwt beam="2">  1       -1 0.43621292E-01 0.15508411E+04</pdfrwt>
<totfact> 0.12347602E+01</totfact>
</mgrwt>
</event>
<event>
12    1  0.1442183E-007  0.3214240E+04  0.7818608E-02  0.8185066E-01
         -2   -1    0    0    0  501 -0.00000000000E+00  0.00000000000E+00  0.12568061240E+04  0.12568061240E+04  0.00000000000E+00 0.  1.
          2   -1    0    0  501    0  0.00000000000E+00 -0.00000000000E+00 -0.20550786365E+04  0.20550786365E+04  0.00000000000E+00 0. -1.
         23    2    1    2    0    0 -0.10485011278E+03 -0.11631364142E+04 -0.13079121392E+04  0.17560303555E+04  0.95543609457E+02 0.  0.
        254    2    1    2    0    0  0.10485011278E+03  0.11631364142E+04  0.50963962669E+03  0.15558544050E+04  0.89278805782E+03 0.  0.
        -24    2    4    4    0    0 -0.38241771927E+03  0.61376285725E+03  0.30502482144E+03  0.78953787911E+03  0.85917192206E+02 0.  0.
         24    2    4    4    0    0  0.48726783205E+03  0.54937355698E+03  0.20461480525E+03  0.76631652588E+03  0.78310625393E+02 0.  0.
         11    1    3    3    0    0 -0.93822042377E+02 -0.60490777069E+03 -0.64302373531E+03  0.88780375695E+03  0.00000000000E+00 0.  1.
        -11    1    3    3    0    0 -0.11028070403E+02 -0.55822864354E+03 -0.66488840390E+03  0.86822659856E+03  0.00000000000E+00 0. -1.
          4    1    6    6  502    0  0.11606760837E+03  0.10124528241E+03  0.17191222743E+02  0.15497688557E+03  0.00000000000E+00 0. -1.
          3    1    5    5  503    0 -0.59113664946E+01  0.17384348244E+02 -0.51377119922E+01  0.19067141952E+02  0.00000000000E+00 0. -1.
         -4    1    5    5    0  503 -0.37650635277E+03  0.59637850900E+03  0.31016253343E+03  0.77047073716E+03  0.00000000000E+00 0.  1.
         -3    1    6    6    0  502  0.37120022368E+03  0.44812827457E+03  0.18742358251E+03  0.61133964031E+03  0.00000000000E+00 0.  1.
<mgrwt>
<rscale>  0 0.32142404E+04</rscale>
<asrwt>0</asrwt>
<pdfrwt beam="1">  1        2 0.31616594E+00 0.32142404E+04</pdfrwt>
<pdfrwt beam="2">  1       -2 0.19335479E+00 0.32142404E+04</pdfrwt>
<totfact> 0.77071932E-01</totfact>
</mgrwt>
</event>
<event>
12    1  0.1442183E-007  0.1334051E+04  0.7818608E-02  0.9002990E-01
         -2   -1    0    0    0  501 -0.00000000000E+00  0.00000000000E+00  0.43934833773E+03  0.43934833773E+03  0.00000000000E+00 0.  1.
          2   -1    0    0  501    0  0.00000000000E+00 -0.00000000000E+00 -0.10126889233E+04  0.10126889233E+04  0.00000000000E+00 0. -1.
         23    2    1    2    0    0  0.34622843732E+03  0.70160121513E+02 -0.10374623846E+03  0.37929515401E+03  0.91131544478E+02 0.  0.
        254    2    1    2    0    0 -0.34622843732E+03 -0.70160121513E+02 -0.46959434709E+03  0.10727421070E+04  0.89747434720E+03 0.  0.
        -24    2    4    4    0    0 -0.63174359849E+03  0.61059971518E+02 -0.33081502164E+03  0.71996722322E+03  0.78012368350E+02 0.  0.
         24    2    4    4    0    0  0.28551516117E+03 -0.13122009303E+03 -0.13877932545E+03  0.35277488379E+03  0.80329305917E+02 0.  0.
         13    1    3    3    0    0  0.16515719699E+03  0.27906899797E+02 -0.23622907496E+01  0.16751499990E+03  0.00000000000E+00 0.  1.
        -13    1    3    3    0    0  0.18107124033E+03  0.42253221716E+02 -0.10138394771E+03  0.21178015410E+03  0.00000000000E+00 0. -1.
          4    1    6    6  502    0  0.93697218983E+00 -0.27913721138E+01 -0.17636299396E+02  0.17880400766E+02  0.00000000000E+00 0. -1.
          3    1    5    5  503    0 -0.14395858394E+03  0.43607031236E+02 -0.61545932311E+02  0.16252245644E+03  0.00000000000E+00 0. -1.
         -4    1    5    5    0  503 -0.48778501455E+03  0.17452940283E+02 -0.26926908933E+03  0.55744476678E+03  0.00000000000E+00 0.  1.
         -3    1    6    6    0  502  0.28457818898E+03 -0.12842872092E+03 -0.12114302606E+03  0.33489448303E+03  0.00000000000E+00 0.  1.
<mgrwt>
<rscale>  0 0.13340513E+04</rscale>
<asrwt>0</asrwt>
<pdfrwt beam="1">  1        2 0.15579830E+00 0.13340513E+04</pdfrwt>
<pdfrwt beam="2">  1       -2 0.67592052E-01 0.13340513E+04</pdfrwt>
<totfact> 0.48507391E+01</totfact>
</mgrwt>
</event>
<event>
12    1  0.1442183E-007  0.2013833E+04  0.7818608E-02  0.8600181E-01
          2   -1    0    0  501    0  0.00000000000E+00  0.00000000000E+00  0.10777780185E+04  0.10777780185E+04  0.00000000000E+00 0.  1.
         -2   -1    0    0    0  501 -0.00000000000E+00 -0.00000000000E+00 -0.94071354899E+03  0.94071354899E+03  0.00000000000E+00 0. -1.
         23    2    1    2    0    0  0.23944585636E+03  0.62754108964E+03 -0.40458155036E+03  0.78959033924E+03  0.92868377903E+02 0.  0.
        254    2    1    2    0    0 -0.23944585636E+03 -0.62754108964E+03  0.54164601990E+03  0.12289012283E+04  0.87502895991E+03 0.  0.
        -24    2    4    4    0    0 -0.39538427969E+03  0.44692668904E+02  0.16417219563E+03  0.43763266694E+03  0.79016948017E+02 0.  0.
         24    2    4    4    0    0  0.15593842333E+03 -0.67223375854E+03  0.37747382427E+03  0.79126856134E+03  0.86048998593E+02 0.  0.
         11    1    3    3    0    0  0.22086742412E+03  0.48491029347E+03 -0.33875476612E+03  0.63140731966E+03  0.00000000000E+00 0. -1.
        -11    1    3    3    0    0  0.18578432240E+02  0.14263079616E+03 -0.65826784246E+02  0.15818301958E+03  0.00000000000E+00 0.  1.
          2    1    6    6  502    0  0.74443456219E+02 -0.23264739188E+03  0.93069035526E+02  0.26139717385E+03  0.00000000000E+00 0. -1.
          1    1    5    5  503    0 -0.35073421315E+02 -0.98590542421E+01  0.36305059408E+02  0.51433482984E+02  0.00000000000E+00 0. -1.
         -2    1    5    5    0  503 -0.36031085838E+03  0.54551723146E+02  0.12786713622E+03  0.38619918395E+03  0.00000000000E+00 0.  1.
         -1    1    6    6    0  502  0.81494967114E+02 -0.43958636666E+03  0.28440478874E+03  0.52987138749E+03  0.00000000000E+00 0.  1.
<mgrwt>
<rscale>  0 0.20138325E+04</rscale>
<asrwt>0</asrwt>
<pdfrwt beam="1">  1        2 0.16581200E+00 0.20138325E+04</pdfrwt>
<pdfrwt beam="2">  1       -2 0.14472516E+00 0.20138325E+04</pdfrwt>
<totfact> 0.68728814E+00</totfact>
</mgrwt>
</event>
<event>
12    1  0.1442183E-007  0.2816865E+04  0.7818608E-02  0.8298052E-01
          1   -1    0    0  501    0  0.00000000000E+00  0.00000000000E+00  0.10181958807E+04  0.10181958807E+04  0.00000000000E+00 0. -1.
         -1   -1    0    0    0  501 -0.00000000000E+00 -0.00000000000E+00 -0.19482319406E+04  0.19482319406E+04  0.00000000000E+00 0.  1.
         23    2    1    2    0    0  0.11045691088E+04  0.57694762676E+03 -0.19643885132E+03  0.12648847803E+04  0.91672269402E+02 0.  0.
        254    2    1    2    0    0 -0.11045691088E+04 -0.57694762676E+03 -0.73359720849E+03  0.17015430410E+04  0.89673985956E+03 0.  0.
        -24    2    4    4    0    0 -0.83856914870E+03  0.15491277257E+02 -0.22208652321E+03  0.87130663918E+03  0.80091440700E+02 0.  0.
         24    2    4    4    0    0 -0.26599996014E+03 -0.59243890402E+03 -0.51151068527E+03  0.83023640178E+03  0.76873063591E+02 0.  0.
         11    1    3    3    0    0  0.70065216793E+03  0.35890096739E+03 -0.16826830387E+03  0.80500781792E+03  0.00000000000E+00 0.  1.
        -11    1    3    3    0    0  0.40391694091E+03  0.21804665937E+03 -0.28170547452E+02  0.45987696241E+03  0.00000000000E+00 0. -1.
          2    1    6    6  502    0 -0.19253484618E+03 -0.40580099458E+03 -0.39586356645E+03  0.59870867493E+03  0.00000000000E+00 0. -1.
          1    1    5    5  503    0 -0.76820918443E+03 -0.79949239970E+01 -0.20632500964E+03  0.79547424814E+03  0.00000000000E+00 0. -1.
         -2    1    5    5    0  503 -0.70359964265E+02  0.23486201254E+02 -0.15761513576E+02  0.75832391041E+02  0.00000000000E+00 0.  1.
         -1    1    6    6    0  502 -0.73465113968E+02 -0.18663790943E+03 -0.11564711882E+03  0.23152772685E+03  0.00000000000E+00 0.  1.
<mgrwt>
<rscale>  0 0.28168647E+04</rscale>
<asrwt>0</asrwt>
<pdfrwt beam="1">  1        1 0.15664552E+00 0.28168647E+04</pdfrwt>
<pdfrwt beam="2">  1       -1 0.29972799E+00 0.28168647E+04</pdfrwt>
<totfact> 0.41976313E-01</totfact>
</mgrwt>
</event>
<event>
12    1  0.1442183E-007  0.1940525E+04  0.7818608E-02  0.8634943E-01
          1   -1    0    0  501    0  0.00000000000E+00  0.00000000000E+00  0.22285947355E+04  0.22285947355E+04  0.00000000000E+00 0. -1.
         -1   -1    0    0    0  501 -0.00000000000E+00 -0.00000000000E+00 -0.42242298818E+03  0.42242298818E+03  0.00000000000E+00 0.  1.
         23    2    1    2    0    0 -0.45317315989E+03 -0.21243039832E+03 -0.69369738321E+02  0.51335927963E+03  0.90735893740E+02 0.  0.
        254    2    1    2    0    0  0.45317315989E+03  0.21243039832E+03  0.18755414856E+04  0.21376584440E+04  0.89522911708E+03 0.  0.
        -24    2    4    4    0    0  0.48345282827E+03  0.39285045282E+03  0.18280416928E+04  0.19330599933E+04  0.83224945708E+02 0.  0.
         24    2    4    4    0    0 -0.30279668379E+02 -0.18042005450E+03  0.47499792816E+02  0.20459845074E+03  0.78332888019E+02 0.  0.
         13    1    3    3    0    0 -0.42975129330E+02 -0.45565551653E+02  0.10107847970E+02  0.63444856599E+02  0.00000000000E+00 0. -1.
        -13    1    3    3    0    0 -0.41019803056E+03 -0.16686484667E+03 -0.79477586291E+02  0.44991442303E+03  0.00000000000E+00 0.  1.
          4    1    6    6  502    0 -0.11673250424E+02 -0.45076073201E+01  0.22773572635E+02  0.25984974693E+02  0.00000000000E+00 0. -1.
          3    1    5    5  503    0  0.32362088160E+02  0.58342491167E+02  0.20858693491E+03  0.21899694163E+03  0.00000000000E+00 0. -1.
         -4    1    5    5    0  503  0.45109074011E+03  0.33450796165E+03  0.16194547579E+04  0.17140630517E+04  0.00000000000E+00 0.  1.
         -3    1    6    6    0  502 -0.18606417955E+02 -0.17591244718E+03  0.24726220180E+02  0.17861347605E+03  0.00000000000E+00 0.  1.
<mgrwt>
<rscale>  0 0.19405253E+04</rscale>
<asrwt>0</asrwt>
<pdfrwt beam="1">  1        1 0.34286072E+00 0.19405253E+04</pdfrwt>
<pdfrwt beam="2">  1       -1 0.64988153E-01 0.19405253E+04</pdfrwt>
<totfact> 0.46626553E+00</totfact>
</mgrwt>
</event>
<event>
12    1  0.1442183E-007  0.1696975E+04  0.7818608E-02  0.8763092E-01
          2   -1    0    0  501    0  0.00000000000E+00  0.00000000000E+00  0.39767741923E+04  0.39767741923E+04  0.00000000000E+00 0.  1.
         -2   -1    0    0    0  501 -0.00000000000E+00 -0.00000000000E+00 -0.18103391420E+03  0.18103391420E+03  0.00000000000E+00 0. -1.
         23    2    1    2    0    0 -0.74483235304E+01  0.41449798503E+03  0.28962276274E+03  0.51407698923E+03  0.92356640533E+02 0.  0.
        254    2    1    2    0    0  0.74483235304E+01 -0.41449798503E+03  0.35061175154E+04  0.36437311173E+04  0.90113948215E+03 0.  0.
        -24    2    4    4    0    0 -0.33129868207E+03 -0.35682298007E+03  0.29046104490E+04  0.29462425595E+04  0.80634378678E+02 0.  0.
         24    2    4    4    0    0  0.33874700560E+03 -0.57675004960E+02  0.60150706640E+03  0.69748855782E+03  0.81262521227E+02 0.  0.
         13    1    3    3    0    0  0.48005916540E+01  0.41010558059E+03  0.27184648708E+03  0.49204689354E+03  0.00000000000E+00 0. -1.
        -13    1    3    3    0    0 -0.12248915184E+02  0.43924044417E+01  0.17776275656E+02  0.22030095692E+02  0.00000000000E+00 0.  1.
          4    1    6    6  502    0  0.10450423669E+03  0.58227426151E+01  0.24272417026E+03  0.26432945853E+03  0.00000000000E+00 0. -1.
          1    1    5    5  503    0 -0.17138681146E+03 -0.14369286420E+03  0.11543624157E+04  0.11758289268E+04  0.00000000000E+00 0. -1.
         -2    1    5    5    0  503 -0.15991187062E+03 -0.21313011586E+03  0.17502480333E+04  0.17704136327E+04  0.00000000000E+00 0.  1.
         -3    1    6    6    0  502  0.23424276891E+03 -0.63497747575E+02  0.35878289614E+03  0.43315909929E+03  0.00000000000E+00 0.  1.
<mgrwt>
<rscale>  0 0.16969750E+04</rscale>
<asrwt>0</asrwt>
<pdfrwt beam="1">  1        2 0.61181135E+00 0.16969750E+04</pdfrwt>
<pdfrwt beam="2">  1       -2 0.27851374E-01 0.16969750E+04</pdfrwt>
<totfact> 0.40709000E+00</totfact>
</mgrwt>
</event>
<event>
12    1  0.1442183E-007  0.1430135E+04  0.7818608E-02  0.8932289E-01
         -1   -1    0    0    0  501 -0.00000000000E+00  0.00000000000E+00  0.20723328451E+04  0.20723328451E+04  0.00000000000E+00 0.  1.
          1   -1    0    0  501    0  0.00000000000E+00 -0.00000000000E+00 -0.24673731105E+03  0.24673731105E+03  0.00000000000E+00 0. -1.
         23    2    1    2    0    0  0.17357086374E+03  0.31415617064E+03  0.75255421019E+03  0.84023868765E+03  0.10412621506E+03 0.  0.
        254    2    1    2    0    0 -0.17357086374E+03 -0.31415617064E+03  0.10730413239E+04  0.14788314685E+04  0.95221000060E+03 0.  0.
        -24    2    4    4    0    0 -0.52162027483E+03 -0.14251262614E+01  0.69130869497E+03  0.86978457416E+03  0.80794502252E+02 0.  0.
         24    2    4    4    0    0  0.34804941110E+03 -0.31273104437E+03  0.38173262889E+03  0.60904689436E+03  0.79241535072E+02 0.  0.
         11    1    3    3    0    0  0.16541174070E+03  0.25418469036E+03  0.68731891724E+03  0.75125108637E+03  0.00000000000E+00 0.  1.
        -11    1    3    3    0    0  0.81591230332E+01  0.59971480278E+02  0.65235292950E+02  0.88987601281E+02  0.00000000000E+00 0. -1.
          2    1    6    6  502    0  0.20031273032E+02  0.18663265873E+00  0.25880373391E+02  0.32727365581E+02  0.00000000000E+00 0. -1.
          1    1    5    5  503    0 -0.70672965268E+02  0.23325054650E+02  0.74426312661E+02  0.10525208887E+03  0.00000000000E+00 0. -1.
         -4    1    5    5    0  503 -0.45094730956E+03 -0.24750180911E+02  0.61688238231E+03  0.76453248529E+03  0.00000000000E+00 0.  1.
         -1    1    6    6    0  502  0.32801813806E+03 -0.31291767703E+03  0.35585225550E+03  0.57631952877E+03  0.00000000000E+00 0.  1.
<mgrwt>
<rscale>  0 0.14301354E+04</rscale>
<asrwt>0</asrwt>
<pdfrwt beam="1">  1        1 0.37959588E-01 0.14301354E+04</pdfrwt>
<pdfrwt beam="2">  1       -1 0.31882043E+00 0.14301354E+04</pdfrwt>
<totfact> 0.27534067E+00</totfact>
</mgrwt>
</event>
<event>
12    1  0.1442183E-007  0.1179816E+04  0.7818608E-02  0.9130710E-01
         -1   -1    0    0    0  501 -0.00000000000E+00  0.00000000000E+00  0.13556281767E+04  0.13556281767E+04  0.00000000000E+00 0.  1.
          1   -1    0    0  501    0  0.00000000000E+00 -0.00000000000E+00 -0.25670106277E+03  0.25670106277E+03  0.00000000000E+00 0. -1.
         23    2    1    2    0    0 -0.91775837182E+02 -0.12957768490E+03  0.86963461677E+01  0.18401887465E+03  0.92596647215E+02 0.  0.
        254    2    1    2    0    0  0.91775837182E+02  0.12957768490E+03  0.10902307678E+04  0.14283103649E+04  0.90898525324E+03 0.  0.
        -24    2    4    4    0    0  0.22719656146E+03  0.15721591960E+03 -0.36744504885E+02  0.29001277288E+03  0.80138173678E+02 0.  0.
         24    2    4    4    0    0 -0.13542072427E+03 -0.27638234696E+02  0.11269752727E+04  0.11382975920E+04  0.80904252722E+02 0.  0.
         13    1    3    3    0    0 -0.70215929223E+02 -0.12783287940E+03  0.34975411520E+02  0.14998266961E+03  0.00000000000E+00 0. -1.
        -13    1    3    3    0    0 -0.21559907960E+02 -0.17448054970E+01 -0.26279065352E+02  0.34036205035E+02  0.00000000000E+00 0.  1.
          4    1    6    6  502    0 -0.10829327418E+03 -0.25313615449E+02  0.10625654458E+04  0.10683695704E+04  0.00000000000E+00 0. -1.
          1    1    5    5  503    0  0.20965455578E+03  0.13604071245E+03 -0.56404484110E+02  0.25621001938E+03  0.00000000000E+00 0. -1.
         -2    1    5    5    0  503  0.17542005679E+02  0.21175207151E+02  0.19659979225E+02  0.33802753501E+02  0.00000000000E+00 0.  1.
         -3    1    6    6    0  502 -0.27127450099E+02 -0.23246192477E+01  0.64409826880E+02  0.69928021581E+02  0.00000000000E+00 0.  1.
<mgrwt>
<rscale>  0 0.11798156E+04</rscale>
<asrwt>0</asrwt>
<pdfrwt beam="1">  1        1 0.39492472E-01 0.11798156E+04</pdfrwt>
<pdfrwt beam="2">  1       -1 0.20855818E+00 0.11798156E+04</pdfrwt>
<totfact> 0.14011398E+01</totfact>
</mgrwt>
</event>
<event>
12    1  0.1442183E-007  0.1104686E+04  0.7818608E-02  0.9200637E-01
         -2   -1    0    0    0  501 -0.00000000000E+00  0.00000000000E+00  0.20970178937E+03  0.20970178937E+03  0.00000000000E+00 0.  1.
          2   -1    0    0  501    0  0.00000000000E+00 -0.00000000000E+00 -0.14548404131E+04  0.14548404131E+04  0.00000000000E+00 0. -1.
         23    2    1    2    0    0  0.15361931480E+03  0.44502964223E+02 -0.12230265992E+03  0.21576421107E+03  0.77568334057E+02 0.  0.
        254    2    1    2    0    0 -0.15361931480E+03 -0.44502964223E+02 -0.11228359638E+04  0.14487779914E+04  0.90145308201E+03 0.  0.
        -24    2    4    4    0    0 -0.46181642492E+03  0.13055450122E+03 -0.89806505266E+03  0.10214795504E+04  0.81121790926E+02 0.  0.
         24    2    4    4    0    0  0.30819711011E+03 -0.17505746545E+03 -0.22477091116E+03  0.42729844102E+03  0.80196136443E+02 0.  0.
         13    1    3    3    0    0  0.11226953560E+03  0.12784493976E+02 -0.11815023171E+03  0.16348507321E+03  0.00000000000E+00 0. -1.
        -13    1    3    3    0    0  0.41349779199E+02  0.31718470246E+02 -0.41524282132E+01  0.52279137853E+02  0.00000000000E+00 0.  1.
          4    1    6    6  502    0  0.25785286853E+03 -0.15967087922E+03 -0.21951745970E+03  0.37439391901E+03  0.00000000000E+00 0. -1.
          3    1    5    5  503    0 -0.34916315454E+03  0.10916716447E+03 -0.60802918011E+03  0.70959979013E+03  0.00000000000E+00 0. -1.
         -2    1    5    5    0  503 -0.11265327037E+03  0.21387336753E+02 -0.29003587255E+03  0.31187976027E+03  0.00000000000E+00 0.  1.
         -3    1    6    6    0  502  0.50344241584E+02 -0.15386586221E+02 -0.52534514638E+01  0.52904522004E+02  0.00000000000E+00 0.  1.
<mgrwt>
<rscale>  0 0.11046857E+04</rscale>
<asrwt>0</asrwt>
<pdfrwt beam="1">  1        2 0.22382161E+00 0.11046857E+04</pdfrwt>
<pdfrwt beam="2">  1       -2 0.32261813E-01 0.11046857E+04</pdfrwt>
<totfact> 0.11945088E+02</totfact>
</mgrwt>
</event>
<event>
12    1  0.1442183E-007  0.3057079E+04  0.7818608E-02  0.8227617E-01
         -2   -1    0    0    0  501 -0.00000000000E+00  0.00000000000E+00  0.17347718153E+04  0.17347718153E+04  0.00000000000E+00 0.  1.
          2   -1    0    0  501    0  0.00000000000E+00 -0.00000000000E+00 -0.13468246055E+04  0.13468246055E+04  0.00000000000E+00 0. -1.
         23    2    1    2    0    0  0.86400662226E+03 -0.37273878660E+03 -0.85744601712E+03  0.12769954152E+04  0.10030938093E+03 0.  0.
        254    2    1    2    0    0 -0.86400662226E+03  0.37273878660E+03  0.12453932269E+04  0.18046010057E+04  0.90561517967E+03 0.  0.
        -24    2    4    4    0    0 -0.10061288969E+02  0.35443127686E+03  0.69736103278E+03  0.78656008832E+03  0.81496030323E+02 0.  0.
         24    2    4    4    0    0 -0.85394533329E+03  0.18307509740E+02  0.54803219414E+03  0.10180409173E+04  0.80685974061E+02 0.  0.
         13    1    3    3    0    0  0.64808566916E+02 -0.45971228534E+02 -0.44407729866E+02  0.91025000249E+02  0.00000000000E+00 0.  1.
        -13    1    3    3    0    0  0.79919805534E+03 -0.32676755806E+03 -0.81303828726E+03  0.11859704150E+04  0.00000000000E+00 0. -1.
          4    1    6    6  502    0 -0.30091180466E+03  0.10208730662E+02  0.14833978341E+03  0.33564389419E+03  0.00000000000E+00 0. -1.
          3    1    5    5  503    0 -0.38010965772E+02  0.87483793608E+02  0.18714160265E+03  0.21004815425E+03  0.00000000000E+00 0. -1.
         -4    1    5    5    0  503  0.27949676803E+02  0.26694748325E+03  0.51021943012E+03  0.57651193407E+03  0.00000000000E+00 0.  1.
         -3    1    6    6    0  502 -0.55303352863E+03  0.80987790780E+01  0.39969241074E+03  0.68239702316E+03  0.00000000000E+00 0.  1.
<mgrwt>
<rscale>  0 0.30570792E+04</rscale>
<asrwt>0</asrwt>
<pdfrwt beam="1">  1        2 0.20720378E+00 0.30570792E+04</pdfrwt>
<pdfrwt beam="2">  1       -2 0.26688797E+00 0.30570792E+04</pdfrwt>
<totfact> 0.66989055E-01</totfact>
</mgrwt>
</event>
<event>
12    1  0.1442183E-007  0.1513641E+04  0.7818608E-02  0.8875432E-01
         -2   -1    0    0    0  501 -0.00000000000E+00  0.00000000000E+00  0.26824635069E+03  0.26824635069E+03  0.00000000000E+00 0.  1.
          2   -1    0    0  501    0  0.00000000000E+00 -0.00000000000E+00 -0.21352647522E+04  0.21352647522E+04  0.00000000000E+00 0. -1.
         23    2    1    2    0    0  0.20291811352E+03 -0.43748078255E+03 -0.67642614537E+03  0.83577970741E+03  0.91707105919E+02 0.  0.
        254    2    1    2    0    0 -0.20291811352E+03  0.43748078255E+03 -0.11905922562E+04  0.15677313955E+04  0.89872499249E+03 0.  0.
        -24    2    4    4    0    0  0.29647765424E+03  0.39889727754E+03 -0.48641233033E+03  0.69994685842E+03  0.79439360665E+02 0.  0.
         24    2    4    4    0    0 -0.49939576776E+03  0.38583505002E+02 -0.70417992585E+03  0.86778453710E+03  0.79346172787E+02 0.  0.
         13    1    3    3    0    0  0.32819765046E+02 -0.16531361544E+03 -0.20349291804E+03  0.26422546455E+03  0.00000000000E+00 0.  1.
        -13    1    3    3    0    0  0.17009834848E+03 -0.27216716711E+03 -0.47293322734E+03  0.57155424285E+03  0.00000000000E+00 0. -1.
          4    1    6    6  502    0 -0.11708049460E+03  0.25829320946E+02 -0.22189090744E+03  0.25221136144E+03  0.00000000000E+00 0. -1.
          1    1    5    5  503    0  0.11359116084E+03  0.96130113492E+02 -0.16228168322E+03  0.22018014273E+03  0.00000000000E+00 0. -1.
         -2    1    5    5    0  503  0.18288649340E+03  0.30276716405E+03 -0.32413064711E+03  0.47976671570E+03  0.00000000000E+00 0.  1.
         -3    1    6    6    0  502 -0.38231527317E+03  0.12754184057E+02 -0.48228901841E+03  0.61557317565E+03  0.00000000000E+00 0.  1.
<mgrwt>
<rscale>  0 0.15136406E+04</rscale>
<asrwt>0</asrwt>
<pdfrwt beam="1">  1        2 0.32850228E+00 0.15136406E+04</pdfrwt>
<pdfrwt beam="2">  1       -2 0.41268668E-01 0.15136406E+04</pdfrwt>
<totfact> 0.30166696E+01</totfact>
</mgrwt>
</event>
<event>
12    1  0.1442183E-007  0.1866362E+04  0.7818608E-02  0.8671783E-01
         -2   -1    0    0    0  501 -0.00000000000E+00  0.00000000000E+00  0.84195919324E+03  0.84195919324E+03  0.00000000000E+00 0.  1.
          2   -1    0    0  501    0  0.00000000000E+00 -0.00000000000E+00 -0.10342866739E+04  0.10342866739E+04  0.00000000000E+00 0. -1.
         23    2    1    2    0    0  0.29516880767E+03  0.11589821848E+03 -0.70767072873E+03  0.78079873518E+03  0.91059225165E+02 0.  0.
        254    2    1    2    0    0 -0.29516880767E+03 -0.11589821848E+03  0.51534324805E+03  0.10954471320E+04  0.91316413289E+03 0.  0.
        -24    2    4    4    0    0  0.31091103118E+03 -0.13124296995E+03  0.25604802059E+03  0.43085507040E+03  0.78645510855E+02 0.  0.
         24    2    4    4    0    0 -0.60607983885E+03  0.15344751464E+02  0.25929522746E+03  0.66459206158E+03  0.82947940798E+02 0.  0.
         13    1    3    3    0    0  0.23594540486E+03  0.64576280640E+02 -0.45963013329E+03  0.52067282387E+03  0.00000000000E+00 0.  1.
        -13    1    3    3    0    0  0.59223402808E+02  0.51321937842E+02 -0.24804059545E+03  0.26012591131E+03  0.00000000000E+00 0. -1.
          4    1    6    6  502    0 -0.55281631695E+03 -0.87217967555E+01  0.22571751540E+03  0.59718535379E+03  0.00000000000E+00 0. -1.
          1    1    5    5  503    0  0.13823071623E+03 -0.49025206103E+02  0.15925384791E+03  0.21650170858E+03  0.00000000000E+00 0. -1.
         -2    1    5    5    0  503  0.17268031495E+03 -0.82217763843E+02  0.96794172677E+02  0.21435336183E+03  0.00000000000E+00 0.  1.
         -3    1    6    6    0  502 -0.53263521892E+02  0.24066548219E+02  0.33577712066E+02  0.67406707791E+02  0.00000000000E+00 0.  1.
<mgrwt>
<rscale>  0 0.18663624E+04</rscale>
<asrwt>0</asrwt>
<pdfrwt beam="1">  1        2 0.15912103E+00 0.18663624E+04</pdfrwt>
<pdfrwt beam="2">  1       -2 0.12953218E+00 0.18663624E+04</pdfrwt>
<totfact> 0.98577930E+00</totfact>
</mgrwt>
</event>
<event>
12    1  0.1442183E-007  0.1082170E+04  0.7818608E-02  0.9222747E-01
         -2   -1    0    0    0  501 -0.00000000000E+00  0.00000000000E+00  0.39032063512E+03  0.39032063512E+03  0.00000000000E+00 0.  1.
          2   -1    0    0  501    0  0.00000000000E+00 -0.00000000000E+00 -0.75008330204E+03  0.75008330204E+03  0.00000000000E+00 0. -1.
         23    2    1    2    0    0 -0.39656653743E+02 -0.30550604157E+01  0.90641486087E+02  0.13403077143E+03  0.90368053597E+02 0.  0.
        254    2    1    2    0    0  0.39656653743E+02  0.30550604157E+01 -0.45040415301E+03  0.10063731657E+04  0.89907789655E+03 0.  0.
        -24    2    4    4    0    0 -0.20700906515E+03 -0.32396336093E+03 -0.11901590432E+01  0.39363794049E+03  0.84524549327E+02 0.  0.
         24    2    4    4    0    0  0.24666571889E+03  0.32701842134E+03 -0.44921399397E+03  0.61273522523E+03  0.76591246823E+02 0.  0.
         11    1    3    3    0    0  0.28010786294E+02  0.42572841298E+01  0.40794140311E+02  0.49667801448E+02  0.00000000000E+00 0. -1.
        -11    1    3    3    0    0 -0.67667440037E+02 -0.73123445456E+01  0.49847345776E+02  0.84362969986E+02  0.00000000000E+00 0.  1.
          4    1    6    6  502    0  0.18725361439E+03  0.24761828573E+03 -0.38507897721E+03  0.49463577531E+03  0.00000000000E+00 0. -1.
          3    1    5    5  503    0 -0.14455458368E+03 -0.28028513280E+03 -0.16917588521E+02  0.31581954996E+03  0.00000000000E+00 0. -1.
         -4    1    5    5    0  503 -0.62454481467E+02 -0.43678228124E+02  0.15727429478E+02  0.77818390534E+02  0.00000000000E+00 0.  1.
         -1    1    6    6    0  502  0.59412104506E+02  0.79400135610E+02 -0.64135016755E+02  0.11809944992E+03  0.00000000000E+00 0.  1.
<mgrwt>
<rscale>  0 0.10821700E+04</rscale>
<asrwt>0</asrwt>
<pdfrwt beam="1">  1        2 0.11539743E+00 0.10821700E+04</pdfrwt>
<pdfrwt beam="2">  1       -2 0.60049329E-01 0.10821700E+04</pdfrwt>
<totfact> 0.96388012E+01</totfact>
</mgrwt>
</event>
<event>
12    1  0.1442183E-007  0.1383450E+04  0.7818608E-02  0.8965886E-01
         -1   -1    0    0    0  501 -0.00000000000E+00  0.00000000000E+00  0.27687165813E+03  0.27687165813E+03  0.00000000000E+00 0.  1.
          1   -1    0    0  501    0  0.00000000000E+00 -0.00000000000E+00 -0.17281789659E+04  0.17281789659E+04  0.00000000000E+00 0. -1.
         23    2    1    2    0    0 -0.43656864247E+03 -0.52177446956E+02 -0.38641382095E+03  0.59212875691E+03  0.89365307402E+02 0.  0.
        254    2    1    2    0    0  0.43656864247E+03  0.52177446956E+02 -0.10648934868E+04  0.14129218671E+04  0.81794584098E+03 0.  0.
        -24    2    4    4    0    0  0.55436247749E+03  0.29288939600E+03 -0.60729889848E+03  0.87656496000E+03  0.80325726100E+02 0.  0.
         24    2    4    4    0    0 -0.11779383501E+03 -0.24071194904E+03 -0.45759458830E+03  0.53635690710E+03  0.80425708416E+02 0.  0.
         11    1    3    3    0    0 -0.49503853551E+02  0.26098612151E+01 -0.85389147117E+02  0.98735755111E+02  0.00000000000E+00 0. -1.
        -11    1    3    3    0    0 -0.38706478892E+03 -0.54787308171E+02 -0.30102467384E+03  0.49339300179E+03  0.00000000000E+00 0.  1.
          4    1    6    6  502    0 -0.12686105006E+03 -0.19905836696E+03 -0.40365319779E+03  0.46760438788E+03  0.00000000000E+00 0. -1.
          1    1    5    5  503    0  0.44682299007E+03  0.22694776970E+03 -0.43902343080E+03  0.66625644268E+03  0.00000000000E+00 0. -1.
         -2    1    5    5    0  503  0.10753948741E+03  0.65941626297E+02 -0.16827546768E+03  0.21030851732E+03  0.00000000000E+00 0.  1.
         -3    1    6    6    0  502  0.90672150467E+01 -0.41653582083E+02 -0.53941390516E+02  0.68752519225E+02  0.00000000000E+00 0.  1.
<mgrwt>
<rscale>  0 0.13834504E+04</rscale>
<asrwt>0</asrwt>
<pdfrwt beam="1">  1        1 0.26587369E+00 0.13834504E+04</pdfrwt>
<pdfrwt beam="2">  1       -1 0.42595639E-01 0.13834504E+04</pdfrwt>
<totfact> 0.24152427E+01</totfact>
</mgrwt>
</event>
<event>
12    1  0.1442183E-007  0.1596940E+04  0.7818608E-02  0.8822430E-01
         -1   -1    0    0    0  501 -0.00000000000E+00  0.00000000000E+00  0.66257277234E+03  0.66257277234E+03  0.00000000000E+00 0.  1.
          1   -1    0    0  501    0  0.00000000000E+00 -0.00000000000E+00 -0.96224083775E+03  0.96224083775E+03  0.00000000000E+00 0. -1.
         23    2    1    2    0    0 -0.28576555092E+03  0.43739266292E+03 -0.15692449575E+03  0.55595011203E+03  0.10714913919E+03 0.  0.
        254    2    1    2    0    0  0.28576555092E+03 -0.43739266292E+03 -0.14274356965E+03  0.10688634981E+04  0.92147661888E+03 0.  0.
        -24    2    4    4    0    0  0.46554724450E+03 -0.22114110122E+03 -0.41725445200E+03  0.66781623747E+03  0.78991302047E+02 0.  0.
         24    2    4    4    0    0 -0.17978169358E+03 -0.21625156170E+03  0.27451088234E+03  0.40104726059E+03  0.79978030866E+02 0.  0.
         13    1    3    3    0    0 -0.51124741232E+02  0.10306421123E+03 -0.80491812679E+02  0.14040976715E+03  0.00000000000E+00 0. -1.
        -13    1    3    3    0    0 -0.23464080969E+03  0.33432845169E+03 -0.76432683074E+02  0.41554034488E+03  0.00000000000E+00 0.  1.
          2    1    6    6  502    0 -0.58053338119E+02 -0.89035290175E+02  0.55096112086E+02  0.11972073559E+03  0.00000000000E+00 0. -1.
          1    1    5    5  503    0  0.10398131685E+03 -0.43780655686E+02 -0.13547554373E+03  0.17630224903E+03  0.00000000000E+00 0. -1.
         -2    1    5    5    0  503  0.36156592765E+03 -0.17736044553E+03 -0.28177890827E+03  0.49151398843E+03  0.00000000000E+00 0.  1.
         -1    1    6    6    0  502 -0.12172835546E+03 -0.12721627153E+03  0.21941477026E+03  0.28132652500E+03  0.00000000000E+00 0.  1.
<mgrwt>
<rscale>  0 0.15969403E+04</rscale>
<asrwt>0</asrwt>
<pdfrwt beam="1">  1        1 0.14803705E+00 0.15969403E+04</pdfrwt>
<pdfrwt beam="2">  1       -1 0.10193427E+00 0.15969403E+04</pdfrwt>
<totfact> 0.14188738E+01</totfact>
</mgrwt>
</event>
<event>
12    1  0.1442183E-007  0.1899916E+04  0.7818608E-02  0.8654898E-01
         -2   -1    0    0    0  501 -0.00000000000E+00  0.00000000000E+00  0.25050224052E+03  0.25050224052E+03  0.00000000000E+00 0.  1.
          2   -1    0    0  501    0  0.00000000000E+00 -0.00000000000E+00 -0.36024441734E+04  0.36024441734E+04  0.00000000000E+00 0. -1.
         23    2    1    2    0    0 -0.72717026481E+03  0.47849146785E+02 -0.11269080444E+04  0.13455509441E+04  0.97567759734E+02 0.  0.
        254    2    1    2    0    0  0.72717026481E+03 -0.47849146785E+02 -0.22250338885E+04  0.25073954698E+04  0.89732385589E+03 0.  0.
        -24    2    4    4    0    0  0.34103694382E+03 -0.29475505379E+03 -0.35123628547E+03  0.57685905603E+03  0.78820704816E+02 0.  0.
         24    2    4    4    0    0  0.38613332100E+03  0.24690590700E+03 -0.18737976030E+04  0.19305364138E+04  0.76104661344E+02 0.  0.
         13    1    3    3    0    0 -0.46415328405E+02 -0.21081875634E+02 -0.75056656773E+02  0.90732187878E+02  0.00000000000E+00 0. -1.
        -13    1    3    3    0    0 -0.68075493641E+03  0.68931022419E+02 -0.10518513877E+04  0.12548187563E+04  0.00000000000E+00 0.  1.
          2    1    6    6  502    0  0.25414719132E+02  0.15572213904E+01 -0.16386797382E+03  0.16583439249E+03  0.00000000000E+00 0. -1.
          1    1    5    5  503    0  0.16264748643E+03 -0.14145694975E+03 -0.21781670719E+03  0.30644476077E+03  0.00000000000E+00 0. -1.
         -2    1    5    5    0  503  0.17838945739E+03 -0.15329810404E+03 -0.13341957828E+03  0.27041429526E+03  0.00000000000E+00 0.  1.
         -1    1    6    6    0  502  0.36071860187E+03  0.24534868561E+03 -0.17099296292E+04  0.17647020213E+04  0.00000000000E+00 0.  1.
<mgrwt>
<rscale>  0 0.18999161E+04</rscale>
<asrwt>0</asrwt>
<pdfrwt beam="1">  1        2 0.55422218E+00 0.18999161E+04</pdfrwt>
<pdfrwt beam="2">  1       -2 0.38538806E-01 0.18999161E+04</pdfrwt>
<totfact> 0.41282354E+00</totfact>
</mgrwt>
</event>
<event>
12    1  0.1442183E-007  0.1154135E+04  0.7818608E-02  0.9153978E-01
          2   -1    0    0  501    0  0.00000000000E+00  0.00000000000E+00  0.57977846172E+03  0.57977846172E+03  0.00000000000E+00 0. -1.
         -2   -1    0    0    0  501 -0.00000000000E+00 -0.00000000000E+00 -0.57436882694E+03  0.57436882694E+03  0.00000000000E+00 0.  1.
         23    2    1    2    0    0  0.17614110171E+03  0.10600803412E+03  0.32300286947E+02  0.22728341399E+03  0.91384083572E+02 0.  0.
        254    2    1    2    0    0 -0.17614110171E+03 -0.10600803412E+03 -0.26890652167E+02  0.92686387468E+03  0.90337707742E+03 0.  0.
        -24    2    4    4    0    0 -0.24396926522E+03 -0.36584776507E+03 -0.29772049207E+03  0.53742187379E+03  0.82578383681E+02 0.  0.
         24    2    4    4    0    0  0.67828163513E+02  0.25983973096E+03  0.27082983990E+03  0.38944200089E+03  0.78733247903E+02 0.  0.
         11    1    3    3    0    0  0.48678658595E+02 -0.69349850771E+01 -0.13386087114E+02  0.50959720848E+02  0.00000000000E+00 0.  1.
        -11    1    3    3    0    0  0.12746244311E+03  0.11294301919E+03  0.45686374061E+02  0.17632369314E+03  0.00000000000E+00 0. -1.
          2    1    6    6  502    0  0.80642820182E+00  0.67780936702E+01 -0.55232077293E+01  0.87805867610E+01  0.00000000000E+00 0. -1.
          3    1    5    5  503    0 -0.65127049408E+02 -0.43857267579E+02 -0.62974738388E+02  0.10065192576E+03  0.00000000000E+00 0. -1.
         -4    1    5    5    0  503 -0.17884221581E+03 -0.32199049749E+03 -0.23474575368E+03  0.43676994803E+03  0.00000000000E+00 0.  1.
         -1    1    6    6    0  502  0.67021735311E+02  0.25306163729E+03  0.27635304763E+03  0.38066141413E+03  0.00000000000E+00 0.  1.
<mgrwt>
<rscale>  0 0.11541346E+04</rscale>
<asrwt>0</asrwt>
<pdfrwt beam="1">  1        2 0.89196686E-01 0.11541346E+04</pdfrwt>
<pdfrwt beam="2">  1       -2 0.88364435E-01 0.11541346E+04</pdfrwt>
<totfact> 0.56422167E+01</totfact>
</mgrwt>
</event>
<event>
12    1  0.1442183E-007  0.1525969E+04  0.7818608E-02  0.8867365E-01
         -2   -1    0    0    0  501 -0.00000000000E+00  0.00000000000E+00  0.93965822275E+03  0.93965822275E+03  0.00000000000E+00 0. -1.
          2   -1    0    0  501    0  0.00000000000E+00 -0.00000000000E+00 -0.61952916770E+03  0.61952916770E+03  0.00000000000E+00 0.  1.
         23    2    1    2    0    0  0.28756124247E+03 -0.21465067805E+03 -0.23161201713E+03  0.43682703777E+03  0.91691617369E+02 0.  0.
        254    2    1    2    0    0 -0.28756124247E+03  0.21465067805E+03  0.55174107218E+03  0.11223603527E+04  0.90912494674E+03 0.  0.
        -24    2    4    4    0    0 -0.40821500108E+03 -0.17089107397E+03  0.54988715732E+03  0.71049515881E+03  0.81143321589E+02 0.  0.
         24    2    4    4    0    0  0.12065375862E+03  0.38554175202E+03  0.18539148633E+01  0.41186519387E+03  0.80185590400E+02 0.  0.
         11    1    3    3    0    0  0.21633090406E+02 -0.51252506134E+02 -0.17460605836E+02  0.58306798417E+02  0.00000000000E+00 0. -1.
        -11    1    3    3    0    0  0.26592815206E+03 -0.16339817191E+03 -0.21415141129E+03  0.37852023935E+03  0.00000000000E+00 0.  1.
          2    1    6    6  502    0  0.32839487730E+02  0.19026652132E+03 -0.30002104444E+02  0.19539679466E+03  0.00000000000E+00 0. -1.
          3    1    5    5  503    0 -0.12441867434E+03 -0.75381806243E+02  0.23157781051E+03  0.27347889417E+03  0.00000000000E+00 0. -1.
         -2    1    5    5    0  503 -0.28379632674E+03 -0.95509267727E+02  0.31830934681E+03  0.43701626464E+03  0.00000000000E+00 0.  1.
         -1    1    6    6    0  502  0.87814270886E+02  0.19527523069E+03  0.31856019307E+02  0.21646839922E+03  0.00000000000E+00 0.  1.
<mgrwt>
<rscale>  0 0.15259694E+04</rscale>
<asrwt>0</asrwt>
<pdfrwt beam="1">  1        2 0.95312180E-01 0.15259694E+04</pdfrwt>
<pdfrwt beam="2">  1       -2 0.14456280E+00 0.15259694E+04</pdfrwt>
<totfact> 0.15182870E+01</totfact>
</mgrwt>
</event>
<event>
12    1  0.1442183E-007  0.3060573E+04  0.7818608E-02  0.8226642E-01
         -2   -1    0    0    0  501 -0.00000000000E+00  0.00000000000E+00  0.92588068419E+03  0.92588068419E+03  0.00000000000E+00 0. -1.
          2   -1    0    0  501    0  0.00000000000E+00 -0.00000000000E+00 -0.25292430266E+04  0.25292430266E+04  0.00000000000E+00 0.  1.
         23    2    1    2    0    0  0.95781520704E+03  0.10165227998E+04 -0.61591898299E+03  0.15291618580E+04  0.90836231270E+02 0.  0.
        254    2    1    2    0    0 -0.95781520704E+03 -0.10165227998E+04 -0.98744335946E+03  0.19259618529E+04  0.88518704082E+03 0.  0.
        -24    2    4    4    0    0  0.10096546649E+03 -0.32210675159E+03 -0.39541447138E+03  0.52564690517E+03  0.77493741019E+02 0.  0.
         24    2    4    4    0    0 -0.10587806735E+04 -0.69441604819E+03 -0.59202888808E+03  0.14003149477E+04  0.84578873145E+02 0.  0.
         13    1    3    3    0    0  0.48003172491E+03  0.51737527170E+03 -0.26194855964E+03  0.75281118256E+03  0.00000000000E+00 0. -1.
        -13    1    3    3    0    0  0.47778348213E+03  0.49914752808E+03 -0.35397042335E+03  0.77635067540E+03  0.00000000000E+00 0.  1.
          2    1    6    6  502    0 -0.61661712266E+03 -0.36651513458E+03 -0.30461673806E+03  0.77932110002E+03  0.00000000000E+00 0. -1.
          3    1    5    5  503    0  0.99562445502E+02 -0.29313600692E+03 -0.38670938286E+03  0.49536405390E+03  0.00000000000E+00 0. -1.
         -4    1    5    5    0  503  0.14030209881E+01 -0.28970744674E+02 -0.87050885150E+01  0.30282851268E+02  0.00000000000E+00 0.  1.
         -1    1    6    6    0  502 -0.44216355087E+03 -0.32790091361E+03 -0.28741215002E+03  0.62099384767E+03  0.00000000000E+00 0.  1.
<mgrwt>
<rscale>  0 0.30605733E+04</rscale>
<asrwt>0</asrwt>
<pdfrwt beam="1">  1        2 0.38911432E+00 0.30605733E+04</pdfrwt>
<pdfrwt beam="2">  1       -2 0.14244318E+00 0.30605733E+04</pdfrwt>
<totfact> 0.97868287E-01</totfact>
</mgrwt>
</event>
<event>
12    1  0.1442183E-007  0.1462228E+04  0.7818608E-02  0.8909967E-01
         -2   -1    0    0    0  501 -0.00000000000E+00  0.00000000000E+00  0.79217335180E+03  0.79217335180E+03  0.00000000000E+00 0. -1.
          2   -1    0    0  501    0  0.00000000000E+00 -0.00000000000E+00 -0.67476063813E+03  0.67476063813E+03  0.00000000000E+00 0.  1.
         23    2    1    2    0    0 -0.38189304009E+03 -0.11178876865E+03 -0.14191360816E+03  0.43196020709E+03  0.90061786921E+02 0.  0.
        254    2    1    2    0    0  0.38189304009E+03  0.11178876865E+03  0.25932632183E+03  0.10349737828E+04  0.91955509194E+03 0.  0.
        -24    2    4    4    0    0 -0.22495727683E+03 -0.17745506193E+03  0.19334393429E+03  0.35491264262E+03  0.80529693667E+02 0.  0.
         24    2    4    4    0    0  0.60685031692E+03  0.28924383058E+03  0.65982387536E+02  0.68006114022E+03  0.78741210873E+02 0.  0.
         13    1    3    3    0    0 -0.56530614517E+02 -0.52186088800E+02 -0.20679341409E+02  0.79666388164E+02  0.00000000000E+00 0. -1.
        -13    1    3    3    0    0 -0.32536242557E+03 -0.59602679853E+02 -0.12123426675E+03  0.35229381893E+03  0.00000000000E+00 0.  1.
          4    1    6    6  502    0  0.26989138658E+03  0.16806078163E+03  0.14280557770E+02  0.31826046126E+03  0.00000000000E+00 0. -1.
          3    1    5    5  503    0 -0.22886129476E+01 -0.30836507871E+02  0.22943481542E+02  0.38503653232E+02  0.00000000000E+00 0. -1.
         -4    1    5    5    0  503 -0.22266866389E+03 -0.14661855406E+03  0.17040045275E+03  0.31640898939E+03  0.00000000000E+00 0.  1.
         -3    1    6    6    0  502  0.33695893034E+03  0.12118304895E+03  0.51701829766E+02  0.36180067895E+03  0.00000000000E+00 0.  1.
<mgrwt>
<rscale>  0 0.14622276E+04</rscale>
<asrwt>0</asrwt>
<pdfrwt beam="1">  1        2 0.10380933E+00 0.14622276E+04</pdfrwt>
<pdfrwt beam="2">  1       -2 0.12187282E+00 0.14622276E+04</pdfrwt>
<totfact> 0.21239490E+01</totfact>
</mgrwt>
</event>
<event>
12    1  0.1442183E-007  0.1523764E+04  0.7818608E-02  0.8868802E-01
         -2   -1    0    0    0  501 -0.00000000000E+00  0.00000000000E+00  0.87714364812E+03  0.87714364812E+03  0.00000000000E+00 0.  1.
          2   -1    0    0  501    0  0.00000000000E+00 -0.00000000000E+00 -0.66176595171E+03  0.66176595171E+03  0.00000000000E+00 0. -1.
         23    2    1    2    0    0 -0.31093361839E+03 -0.98156343044E+02 -0.29771125169E+03  0.45068050010E+03  0.90368916458E+02 0.  0.
        254    2    1    2    0    0  0.31093361839E+03  0.98156343044E+02  0.51308894811E+03  0.10882290997E+04  0.90258956459E+03 0.  0.
        -24    2    4    4    0    0  0.59643286594E+03  0.20920542216E+03  0.40486121840E+03  0.75392203438E+03  0.70616963519E+02 0.  0.
         24    2    4    4    0    0 -0.28549924755E+03 -0.11104907911E+03  0.10822772971E+03  0.33430706534E+03  0.78779782544E+02 0.  0.
         11    1    3    3    0    0 -0.29991531327E+03 -0.11230206556E+03 -0.28498578957E+03  0.42869318787E+03  0.00000000000E+00 0. -1.
        -11    1    3    3    0    0 -0.11018305114E+02  0.14145722515E+02 -0.12725462122E+02  0.21987312234E+02  0.00000000000E+00 0.  1.
          2    1    6    6  502    0 -0.25694228340E+03 -0.10925042943E+03  0.72367817810E+02  0.28843039782E+03  0.00000000000E+00 0. -1.
          3    1    5    5  503    0  0.29870190768E+03  0.13836480721E+03  0.22816366972E+03  0.40053253265E+03  0.00000000000E+00 0. -1.
         -4    1    5    5    0  503  0.29773095826E+03  0.70840614943E+02  0.17669754868E+03  0.35338950174E+03  0.00000000000E+00 0.  1.
         -1    1    6    6    0  502 -0.28556964150E+02 -0.17986496815E+01  0.35859911898E+02  0.45876667528E+02  0.00000000000E+00 0.  1.
<mgrwt>
<rscale>  0 0.15237635E+04</rscale>
<asrwt>0</asrwt>
<pdfrwt beam="1">  1        2 0.10181015E+00 0.15237635E+04</pdfrwt>
<pdfrwt beam="2">  1       -2 0.13494518E+00 0.15237635E+04</pdfrwt>
<totfact> 0.16741250E+01</totfact>
</mgrwt>
</event>
<event>
12    1  0.1442183E-007  0.1467926E+04  0.7818608E-02  0.8906067E-01
          2   -1    0    0  501    0  0.00000000000E+00  0.00000000000E+00  0.27612694382E+04  0.27612694382E+04  0.00000000000E+00 0. -1.
         -2   -1    0    0    0  501 -0.00000000000E+00 -0.00000000000E+00 -0.19509198108E+03  0.19509198108E+03  0.00000000000E+00 0.  1.
         23    2    1    2    0    0  0.27022516248E+03 -0.17238683514E+03  0.15651223152E+04  0.16012909540E+04  0.10856333930E+03 0.  0.
        254    2    1    2    0    0 -0.27022516248E+03  0.17238683514E+03  0.10010551419E+04  0.13550704652E+04  0.85519922193E+03 0.  0.
        -24    2    4    4    0    0 -0.45397096377E+03 -0.51397394757E+02  0.20937272050E+03  0.50829122820E+03  0.76103274867E+02 0.  0.
         24    2    4    4    0    0  0.18374580129E+03  0.22378422990E+03  0.79168242141E+03  0.84677923701E+03  0.80200491384E+02 0.  0.
         11    1    3    3    0    0  0.15173484068E+03 -0.64863392630E+02  0.10166916137E+04  0.10299963878E+04  0.00000000000E+00 0. -1.
        -11    1    3    3    0    0  0.11849032180E+03 -0.10752344251E+03  0.54843070149E+03  0.57129456622E+03  0.00000000000E+00 0.  1.
          4    1    6    6  502    0  0.11593951360E+02  0.44456364445E+02  0.72347118538E+02  0.85702354743E+02  0.00000000000E+00 0. -1.
          1    1    5    5  503    0 -0.20444682793E+03 -0.41049946954E+02  0.58744364866E+02  0.21664372596E+03  0.00000000000E+00 0. -1.
         -2    1    5    5    0  503 -0.24952413584E+03 -0.10347447804E+02  0.15062835563E+03  0.29164750224E+03  0.00000000000E+00 0.  1.
         -3    1    6    6    0  502  0.17215184993E+03  0.17932786545E+03  0.71933530287E+03  0.76107688227E+03  0.00000000000E+00 0.  1.
<mgrwt>
<rscale>  0 0.14679258E+04</rscale>
<asrwt>0</asrwt>
<pdfrwt beam="1">  1        2 0.42481065E+00 0.14679258E+04</pdfrwt>
<pdfrwt beam="2">  1       -2 0.30014153E-01 0.14679258E+04</pdfrwt>
<totfact> 0.24343294E+01</totfact>
</mgrwt>
</event>
<event>
12    1  0.1442183E-007  0.1362536E+04  0.7818608E-02  0.8981392E-01
          2   -1    0    0  501    0  0.00000000000E+00  0.00000000000E+00  0.14354817877E+04  0.14354817877E+04  0.00000000000E+00 0. -1.
         -2   -1    0    0    0  501 -0.00000000000E+00 -0.00000000000E+00 -0.32332428104E+03  0.32332428104E+03  0.00000000000E+00 0.  1.
         23    2    1    2    0    0  0.41837778829E+02 -0.58247722236E+02 -0.15683000474E+03  0.19587511230E+03  0.92888171202E+02 0.  0.
        254    2    1    2    0    0 -0.41837778829E+02  0.58247722236E+02  0.12689875114E+04  0.15629309565E+04  0.90954970927E+03 0.  0.
        -24    2    4    4    0    0 -0.44900923682E+03 -0.10089416921E+03  0.62904367598E+03  0.78331217246E+03  0.78058216092E+02 0.  0.
         24    2    4    4    0    0  0.40717145799E+03  0.15914189145E+03  0.63994383546E+03  0.77961878402E+03  0.84632133541E+02 0.  0.
         13    1    3    3    0    0 -0.14038403912E+02 -0.59717400587E+02 -0.77801903777E+02  0.99077651105E+02  0.00000000000E+00 0. -1.
        -13    1    3    3    0    0  0.55876182741E+02  0.14696783509E+01 -0.79028100963E+02  0.96797461196E+02  0.00000000000E+00 0.  1.
          4    1    6    6  502    0  0.18399057081E+03  0.82720690286E+02  0.22410263848E+03  0.30152485025E+03  0.00000000000E+00 0. -1.
          1    1    5    5  503    0 -0.40800662641E+03 -0.11056961200E+03  0.59049202481E+03  0.72620649794E+03  0.00000000000E+00 0. -1.
         -2    1    5    5    0  503 -0.41002610418E+02  0.96754427881E+01  0.38551651170E+02  0.57105674518E+02  0.00000000000E+00 0.  1.
         -3    1    6    6    0  502  0.22318088719E+03  0.76421201162E+02  0.41584119698E+03  0.47809393376E+03  0.00000000000E+00 0.  1.
<mgrwt>
<rscale>  0 0.13625360E+04</rscale>
<asrwt>0</asrwt>
<pdfrwt beam="1">  1        2 0.22084335E+00 0.13625360E+04</pdfrwt>
<pdfrwt beam="2">  1       -2 0.49742198E-01 0.13625360E+04</pdfrwt>
<totfact> 0.51531662E+01</totfact>
</mgrwt>
</event>
<event>
12    1  0.1442183E-007  0.2630143E+04  0.7818608E-02  0.8358034E-01
         -2   -1    0    0    0  501 -0.00000000000E+00  0.00000000000E+00  0.12204814560E+04  0.12204814560E+04  0.00000000000E+00 0.  1.
          2   -1    0    0  501    0  0.00000000000E+00 -0.00000000000E+00 -0.14169927673E+04  0.14169927673E+04  0.00000000000E+00 0. -1.
         23    2    1    2    0    0 -0.22220043644E+03  0.23701289356E+03 -0.12020148320E+04  0.12484770148E+04  0.91143043364E+02 0.  0.
        254    2    1    2    0    0  0.22220043644E+03 -0.23701289356E+03  0.10055035207E+04  0.13889972085E+04  0.90151415375E+03 0.  0.
        -24    2    4    4    0    0  0.40788377538E+03  0.18004217315E+02  0.97735974235E+03  0.10623932300E+04  0.82182620087E+02 0.  0.
         24    2    4    4    0    0 -0.18568333895E+03 -0.25501711087E+03  0.28143778339E+02  0.32660397853E+03  0.79787576294E+02 0.  0.
         13    1    3    3    0    0 -0.16634454743E+03  0.21712882581E+03 -0.10568337927E+04  0.10916561275E+04  0.00000000000E+00 0. -1.
        -13    1    3    3    0    0 -0.55855889008E+02  0.19884067748E+02 -0.14518103936E+03  0.15682088725E+03  0.00000000000E+00 0.  1.
          4    1    6    6  502    0 -0.11489687882E+03 -0.18299694284E+03 -0.15416704391E+02  0.21662605712E+03  0.00000000000E+00 0. -1.
          1    1    5    5  503    0  0.24383844250E+03 -0.26635931139E+02  0.61590429923E+03  0.66295155531E+03  0.00000000000E+00 0. -1.
         -2    1    5    5    0  503  0.16404533288E+03  0.44640148454E+02  0.36145544312E+03  0.39944167466E+03  0.00000000000E+00 0.  1.
         -3    1    6    6    0  502 -0.70786460123E+02 -0.72020168038E+02  0.43560482730E+02  0.10997792141E+03  0.00000000000E+00 0.  1.
<mgrwt>
<rscale>  0 0.26301433E+04</rscale>
<asrwt>0</asrwt>
<pdfrwt beam="1">  1        2 0.21799889E+00 0.26301433E+04</pdfrwt>
<pdfrwt beam="2">  1       -2 0.18776638E+00 0.26301433E+04</pdfrwt>
<totfact> 0.20037237E+00</totfact>
</mgrwt>
</event>
<event>
12    1  0.1442183E-007  0.2261758E+04  0.7818608E-02  0.8493154E-01
         -2   -1    0    0    0  501 -0.00000000000E+00  0.00000000000E+00  0.56806343366E+03  0.56806343366E+03  0.00000000000E+00 0. -1.
          2   -1    0    0  501    0  0.00000000000E+00 -0.00000000000E+00 -0.22513100792E+04  0.22513100792E+04  0.00000000000E+00 0.  1.
         23    2    1    2    0    0 -0.72834377821E+02 -0.73067587713E+03  0.49540304810E+02  0.74169047416E+03  0.91969743132E+02 0.  0.
        254    2    1    2    0    0  0.72834377821E+02  0.73067587713E+03 -0.17327869504E+04  0.20776830387E+04  0.88035453655E+03 0.  0.
        -24    2    4    4    0    0 -0.38855159836E+03  0.44587851513E+03 -0.96340878299E+03  0.11331088944E+04  0.77455074222E+02 0.  0.
         24    2    4    4    0    0  0.46138597618E+03  0.28479736200E+03 -0.76937816737E+03  0.94457414434E+03  0.79315782272E+02 0.  0.
         11    1    3    3    0    0 -0.11597745967E+02 -0.12812740295E+03  0.44144463359E+02  0.13601423728E+03  0.00000000000E+00 0.  1.
        -11    1    3    3    0    0 -0.61236631853E+02 -0.60254847418E+03  0.53958414514E+01  0.60567623688E+03  0.00000000000E+00 0. -1.
          4    1    6    6  502    0  0.65405048233E+02  0.73499031057E+02 -0.15812610872E+03  0.18623585627E+03  0.00000000000E+00 0. -1.
          3    1    5    5  503    0 -0.15101470505E+03  0.22653570352E+03 -0.47146772121E+03  0.54443151842E+03  0.00000000000E+00 0. -1.
         -4    1    5    5    0  503 -0.23753689332E+03  0.21934281161E+03 -0.49194106177E+03  0.58867737595E+03  0.00000000000E+00 0.  1.
         -3    1    6    6    0  502  0.39598092795E+03  0.21129833094E+03 -0.61125205865E+03  0.75833828807E+03  0.00000000000E+00 0.  1.
<mgrwt>
<rscale>  0 0.22617577E+04</rscale>
<asrwt>0</asrwt>
<pdfrwt beam="1">  1        2 0.34635539E+00 0.22617577E+04</pdfrwt>
<pdfrwt beam="2">  1       -2 0.87394377E-01 0.22617577E+04</pdfrwt>
<totfact> 0.49672195E+00</totfact>
</mgrwt>
</event>
<event>
12    1  0.1442183E-007  0.1898101E+04  0.7818608E-02  0.8655802E-01
          2   -1    0    0  501    0  0.00000000000E+00  0.00000000000E+00  0.41717698781E+03  0.41717698781E+03  0.00000000000E+00 0.  1.
         -2   -1    0    0    0  501 -0.00000000000E+00 -0.00000000000E+00 -0.21590275804E+04  0.21590275804E+04  0.00000000000E+00 0. -1.
         23    2    1    2    0    0 -0.57164626865E+03  0.45570926957E+03 -0.69099702999E+03  0.10102036229E+04  0.92650252729E+02 0.  0.
        254    2    1    2    0    0  0.57164626865E+03 -0.45570926957E+03 -0.10508535626E+04  0.15660009453E+04  0.90200629485E+03 0.  0.
        -24    2    4    4    0    0  0.60307647484E+03  0.67555915535E+01 -0.29625015710E+03  0.67704752630E+03  0.82959777977E+02 0.  0.
         24    2    4    4    0    0 -0.31430206191E+02 -0.46246486113E+03 -0.75460340545E+03  0.88895341901E+03  0.77138032239E+02 0.  0.
         11    1    3    3    0    0  0.18296071947E+01  0.47623313600E+01  0.36139451207E+00  0.51144763626E+01  0.00000000000E+00 0.  1.
        -11    1    3    3    0    0 -0.57347587585E+03  0.45094693821E+03 -0.69135842450E+03  0.10050891465E+04  0.00000000000E+00 0. -1.
          4    1    6    6  502    0 -0.36721135959E+02 -0.28809839363E+03 -0.40657530037E+03  0.49965248034E+03  0.00000000000E+00 0. -1.
          1    1    5    5  503    0  0.13108387310E+03 -0.97638424689E+01 -0.29780779455E+02  0.13477837079E+03  0.00000000000E+00 0. -1.
         -2    1    5    5    0  503  0.47199260174E+03  0.16519434022E+02 -0.26646937765E+03  0.54226915552E+03  0.00000000000E+00 0.  1.
         -3    1    6    6    0  502  0.52909297682E+01 -0.17436646749E+03 -0.34802810509E+03  0.38930093868E+03  0.00000000000E+00 0.  1.
<mgrwt>
<rscale>  0 0.18981008E+04</rscale>
<asrwt>0</asrwt>
<pdfrwt beam="1">  1        2 0.64181074E-01 0.18981008E+04</pdfrwt>
<pdfrwt beam="2">  1       -2 0.33215809E+00 0.18981008E+04</pdfrwt>
<totfact> 0.14329248E+00</totfact>
</mgrwt>
</event>
<event>
12    1  0.1442183E-007  0.1578976E+04  0.7818608E-02  0.8833569E-01
         -1   -1    0    0    0  501 -0.00000000000E+00  0.00000000000E+00  0.54707758488E+03  0.54707758488E+03  0.00000000000E+00 0.  1.
          1   -1    0    0  501    0  0.00000000000E+00 -0.00000000000E+00 -0.11393102328E+04  0.11393102328E+04  0.00000000000E+00 0. -1.
         23    2    1    2    0    0 -0.50731219966E+03 -0.97735673333E+02 -0.91717125773E+02  0.53258249022E+03  0.91181949727E+02 0.  0.
        254    2    1    2    0    0  0.50731219966E+03  0.97735673333E+02 -0.50051552216E+03  0.11538053275E+04  0.90212694007E+03 0.  0.
        -24    2    4    4    0    0 -0.20248565379E+03 -0.20291511673E+02 -0.35231206847E+03  0.41474675804E+03  0.80491578913E+02 0.  0.
         24    2    4    4    0    0  0.70979785345E+03  0.11802718501E+03 -0.14820345369E+03  0.73905856943E+03  0.80621933707E+02 0.  0.
         11    1    3    3    0    0 -0.29128830634E+03 -0.59999746518E+02 -0.98185614892E+02  0.31319205284E+03  0.00000000000E+00 0.  1.
        -11    1    3    3    0    0 -0.21602389333E+03 -0.37735926814E+02  0.64684891193E+01  0.21939043737E+03  0.00000000000E+00 0. -1.
          4    1    6    6  502    0  0.30589003753E+03  0.56073197205E+02 -0.10460152940E+03  0.32810729717E+03  0.00000000000E+00 0. -1.
          3    1    5    5  503    0 -0.40541908188E+02 -0.13955710268E+02 -0.25318994918E+02  0.49794173075E+02  0.00000000000E+00 0. -1.
         -4    1    5    5    0  503 -0.16194374560E+03 -0.63358014050E+01 -0.32699307355E+03  0.36495258496E+03  0.00000000000E+00 0.  1.
         -3    1    6    6    0  502  0.40390781592E+03  0.61953987800E+02 -0.43601924291E+02  0.41095127226E+03  0.00000000000E+00 0.  1.
<mgrwt>
<rscale>  0 0.15789757E+04</rscale>
<asrwt>0</asrwt>
<pdfrwt beam="1">  1        1 0.17527850E+00 0.15789757E+04</pdfrwt>
<pdfrwt beam="2">  1       -1 0.84165783E-01 0.15789757E+04</pdfrwt>
<totfact> 0.15929530E+01</totfact>
</mgrwt>
</event>
<event>
12    1  0.1442183E-007  0.3885763E+04  0.7818608E-02  0.8027997E-01
         -1   -1    0    0    0  501 -0.00000000000E+00  0.00000000000E+00  0.18688748711E+04  0.18688748711E+04  0.00000000000E+00 0.  1.
          1   -1    0    0  501    0  0.00000000000E+00 -0.00000000000E+00 -0.20198184132E+04  0.20198184132E+04  0.00000000000E+00 0. -1.
         23    2    1    2    0    0  0.13590435186E+04  0.93764019619E+03 -0.80759378400E+03  0.18417647585E+04  0.11713787946E+03 0.  0.
        254    2    1    2    0    0 -0.13590435186E+04 -0.93764019619E+03  0.65665024189E+03  0.20469285259E+04  0.10161488212E+04 0.  0.
        -24    2    4    4    0    0  0.15554045718E+03 -0.11381897190E+03  0.11381051532E+03  0.23772749493E+03  0.80087054280E+02 0.  0.
         24    2    4    4    0    0 -0.15145839758E+04 -0.82382122429E+03  0.54283972657E+03  0.18092010309E+04  0.76729214204E+02 0.  0.
         13    1    3    3    0    0  0.82102775235E+03  0.56030568740E+03 -0.42221024185E+03  0.10799493145E+04  0.00000000000E+00 0. -1.
        -13    1    3    3    0    0  0.53801576624E+03  0.37733450879E+03 -0.38538354215E+03  0.76181544405E+03  0.00000000000E+00 0.  1.
          4    1    6    6  502    0 -0.11253219859E+04 -0.58278009739E+03  0.37558377501E+03  0.13217584446E+04  0.00000000000E+00 0. -1.
          3    1    5    5  503    0  0.84636963838E+02 -0.79929839768E+02  0.10821505623E+03  0.15894242142E+03  0.00000000000E+00 0. -1.
         -4    1    5    5    0  503  0.70903493342E+02 -0.33889132128E+02  0.55954590919E+01  0.78785073504E+02  0.00000000000E+00 0.  1.
         -3    1    6    6    0  502 -0.38926198983E+03 -0.24104112690E+03  0.16725595155E+03  0.48744258628E+03  0.00000000000E+00 0.  1.
<mgrwt>
<rscale>  0 0.38857627E+04</rscale>
<asrwt>0</asrwt>
<pdfrwt beam="1">  1        1 0.31074130E+00 0.38857627E+04</pdfrwt>
<pdfrwt beam="2">  1       -1 0.28751921E+00 0.38857627E+04</pdfrwt>
<totfact> 0.90809404E-02</totfact>
</mgrwt>
</event>
<event>
12    1  0.1442183E-007  0.4471714E+04  0.7818608E-02  0.7915608E-01
         -1   -1    0    0    0  501 -0.00000000000E+00  0.00000000000E+00  0.19970046595E+04  0.19970046595E+04  0.00000000000E+00 0.  1.
          1   -1    0    0  501    0  0.00000000000E+00 -0.00000000000E+00 -0.25032775245E+04  0.25032775245E+04  0.00000000000E+00 0. -1.
         23    2    1    2    0    0  0.44344365762E+03 -0.19675221275E+04  0.48994896117E+03  0.20775149392E+04  0.90734438697E+02 0.  0.
        254    2    1    2    0    0 -0.44344365762E+03  0.19675221275E+04 -0.99622182616E+03  0.24227672448E+04  0.89975418626E+03 0.  0.
        -24    2    4    4    0    0 -0.21381421700E+03  0.10742002490E+03 -0.36432208274E+03  0.44316060248E+03  0.80032234009E+02 0.  0.
         24    2    4    4    0    0 -0.22962944062E+03  0.18601021026E+04 -0.63189974342E+03  0.19796066423E+04  0.82678052157E+02 0.  0.
         11    1    3    3    0    0  0.27881641834E+03 -0.14165915943E+04  0.33917335694E+03  0.14830741405E+04  0.00000000000E+00 0.  1.
        -11    1    3    3    0    0  0.16462723928E+03 -0.55093053325E+03  0.15077560423E+03  0.59444079874E+03  0.00000000000E+00 0. -1.
          2    1    6    6  502    0 -0.44776186031E+02  0.46300593036E+03 -0.19247936379E+03  0.50341603457E+03  0.00000000000E+00 0. -1.
          1    1    5    5  503    0 -0.18322763411E+02 -0.61104032669E+01 -0.74311793411E+01  0.20695002138E+02  0.00000000000E+00 0. -1.
         -2    1    5    5    0  503 -0.19549145359E+03  0.11353042816E+03 -0.35689090340E+03  0.42246560034E+03  0.00000000000E+00 0.  1.
         -1    1    6    6    0  502 -0.18485325459E+03  0.13970961723E+04 -0.43942037962E+03  0.14761906077E+04  0.00000000000E+00 0.  1.
<mgrwt>
<rscale>  0 0.44717142E+04</rscale>
<asrwt>0</asrwt>
<pdfrwt beam="1">  1        1 0.38511962E+00 0.44717142E+04</pdfrwt>
<pdfrwt beam="2">  1       -1 0.30723148E+00 0.44717142E+04</pdfrwt>
<totfact> 0.30086761E-02</totfact>
</mgrwt>
</event>
<event>
12    1  0.1442183E-007  0.1918587E+04  0.7818608E-02  0.8645659E-01
         -1   -1    0    0    0  501 -0.00000000000E+00  0.00000000000E+00  0.74074642277E+03  0.74074642277E+03  0.00000000000E+00 0.  1.
          1   -1    0    0  501    0  0.00000000000E+00 -0.00000000000E+00 -0.12423200158E+04  0.12423200158E+04  0.00000000000E+00 0. -1.
         23    2    1    2    0    0 -0.45631768137E+03 -0.43819190822E+03 -0.60954672089E+03  0.88320802795E+03  0.90946362929E+02 0.  0.
        254    2    1    2    0    0  0.45631768137E+03  0.43819190822E+03  0.10797312790E+03  0.10998584106E+04  0.89319222579E+03 0.  0.
        -24    2    4    4    0    0 -0.21582709489E+03  0.21642501117E+03 -0.13837813593E+03  0.34616658358E+03  0.85215460664E+02 0.  0.
         24    2    4    4    0    0  0.67214477626E+03  0.22176689705E+03  0.24635126383E+03  0.75369182699E+03  0.80020422438E+02 0.  0.
         11    1    3    3    0    0 -0.40002870741E+03 -0.36065682420E+03 -0.47568939958E+03  0.71859356834E+03  0.00000000000E+00 0. -1.
        -11    1    3    3    0    0 -0.56288973963E+02 -0.77535084024E+02 -0.13385732131E+03  0.16461445961E+03  0.00000000000E+00 0.  1.
          4    1    6    6  502    0  0.37767235671E+03  0.14378224250E+03  0.10306502881E+03  0.41705172634E+03  0.00000000000E+00 0. -1.
          1    1    5    5  503    0  0.46039614342E+01  0.13482248699E+01 -0.12629093483E+02  0.13509558593E+02  0.00000000000E+00 0. -1.
         -2    1    5    5    0  503 -0.22043105632E+03  0.21507678630E+03 -0.12574904245E+03  0.33265702499E+03  0.00000000000E+00 0.  1.
         -3    1    6    6    0  502  0.29447241955E+03  0.77984654548E+02  0.14328623502E+03  0.33664010065E+03  0.00000000000E+00 0.  1.
<mgrwt>
<rscale>  0 0.19185871E+04</rscale>
<asrwt>0</asrwt>
<pdfrwt beam="1">  1        1 0.19112615E+00 0.19185871E+04</pdfrwt>
<pdfrwt beam="2">  1       -1 0.11396099E+00 0.19185871E+04</pdfrwt>
<totfact> 0.65231421E+00</totfact>
</mgrwt>
</event>
<event>
12    1  0.1442183E-007  0.1369949E+04  0.7818608E-02  0.8975863E-01
          1   -1    0    0  501    0  0.00000000000E+00  0.00000000000E+00  0.82403136331E+03  0.82403136331E+03  0.00000000000E+00 0. -1.
         -1   -1    0    0    0  501 -0.00000000000E+00 -0.00000000000E+00 -0.56938359795E+03  0.56938359795E+03  0.00000000000E+00 0.  1.
         23    2    1    2    0    0  0.19948197777E+03  0.17714075987E+02 -0.24957737628E+03  0.33571115759E+03  0.10151978444E+03 0.  0.
        254    2    1    2    0    0 -0.19948197777E+03 -0.17714075987E+02  0.50422514164E+03  0.10577038037E+04  0.90795787066E+03 0.  0.
        -24    2    4    4    0    0  0.26003782549E+03  0.66536076504E+02 -0.93006424041E+02  0.29530092911E+03  0.80658066320E+02 0.  0.
         24    2    4    4    0    0 -0.45951980326E+03 -0.84250152492E+02  0.59723156568E+03  0.76240287456E+03  0.79473657935E+02 0.  0.
         11    1    3    3    0    0  0.19388391923E+03 -0.11386456973E+02 -0.22484261125E+03  0.29711079646E+03  0.00000000000E+00 0.  1.
        -11    1    3    3    0    0  0.55980585390E+01  0.29100532960E+02 -0.24734765035E+02  0.38600361130E+02  0.00000000000E+00 0. -1.
          2    1    6    6  502    0 -0.86603385947E+01 -0.13448713121E+02  0.33225581690E+02  0.36875583084E+02  0.00000000000E+00 0. -1.
          3    1    5    5  503    0  0.82038693610E+02  0.59633807726E+01 -0.65766999926E+02  0.10531480161E+03  0.00000000000E+00 0. -1.
         -2    1    5    5    0  503  0.17799913188E+03  0.60572695732E+02 -0.27239424115E+02  0.18998612750E+03  0.00000000000E+00 0.  1.
         -1    1    6    6    0  502 -0.45085946466E+03 -0.70801439371E+02  0.56400598400E+03  0.72552729148E+03  0.00000000000E+00 0.  1.
<mgrwt>
<rscale>  0 0.13699488E+04</rscale>
<asrwt>0</asrwt>
<pdfrwt beam="1">  1        1 0.12677406E+00 0.13699488E+04</pdfrwt>
<pdfrwt beam="2">  1       -1 0.87597476E-01 0.13699488E+04</pdfrwt>
<totfact> 0.26417303E+01</totfact>
</mgrwt>
</event>
<event>
12    1  0.1442183E-007  0.2272341E+04  0.7818608E-02  0.8488907E-01
          2   -1    0    0  501    0  0.00000000000E+00  0.00000000000E+00  0.12465163495E+04  0.12465163495E+04  0.00000000000E+00 0. -1.
         -2   -1    0    0    0  501 -0.00000000000E+00 -0.00000000000E+00 -0.10355931163E+04  0.10355931163E+04  0.00000000000E+00 0.  1.
         23    2    1    2    0    0  0.22702858678E+02 -0.81309928010E+03  0.59323069043E+03  0.10112999202E+04  0.95702755910E+02 0.  0.
        254    2    1    2    0    0 -0.22702858678E+02  0.81309928010E+03 -0.38230745724E+03  0.12708095455E+04  0.89841641241E+03 0.  0.
        -24    2    4    4    0    0 -0.19955912699E+03  0.22664864977E+03 -0.54825381817E+03  0.63109851999E+03  0.80682322617E+02 0.  0.
         24    2    4    4    0    0  0.17685626832E+03  0.58645063033E+03  0.16594636093E+03  0.63971102555E+03  0.80557557410E+02 0.  0.
         11    1    3    3    0    0  0.26776568283E+02 -0.80376196807E+03  0.56938042966E+03  0.98536508950E+03  0.00000000000E+00 0. -1.
        -11    1    3    3    0    0 -0.40737096054E+01 -0.93373120229E+01  0.23850260766E+02  0.25934830718E+02  0.00000000000E+00 0.  1.
          4    1    6    6  502    0  0.88650799130E+02  0.40890064968E+03  0.94184535302E+02  0.42886994787E+03  0.00000000000E+00 0. -1.
          3    1    5    5  503    0 -0.33316344653E+02  0.26881814474E+02 -0.14637697291E+03  0.15250845540E+03  0.00000000000E+00 0. -1.
         -4    1    5    5    0  503 -0.16624278234E+03  0.19976683529E+03 -0.40187684526E+03  0.47859006459E+03  0.00000000000E+00 0.  1.
         -3    1    6    6    0  502  0.88205469186E+02  0.17754998065E+03  0.71761825629E+02  0.21084107769E+03  0.00000000000E+00 0.  1.
<mgrwt>
<rscale>  0 0.22723413E+04</rscale>
<asrwt>0</asrwt>
<pdfrwt beam="1">  1        2 0.19177175E+00 0.22723413E+04</pdfrwt>
<pdfrwt beam="2">  1       -2 0.15932202E+00 0.22723413E+04</pdfrwt>
<totfact> 0.41153379E+00</totfact>
</mgrwt>
</event>
<event>
12    1  0.1442183E-007  0.1315480E+04  0.7818608E-02  0.9017379E-01
          1   -1    0    0  501    0  0.00000000000E+00  0.00000000000E+00  0.13343483283E+04  0.13343483283E+04  0.00000000000E+00 0. -1.
         -1   -1    0    0    0  501 -0.00000000000E+00 -0.00000000000E+00 -0.32421958071E+03  0.32421958071E+03  0.00000000000E+00 0.  1.
         23    2    1    2    0    0  0.14597194351E+03 -0.16269953139E+03 -0.57728693391E+02  0.24344403574E+03  0.90296460016E+02 0.  0.
        254    2    1    2    0    0 -0.14597194351E+03  0.16269953139E+03  0.10678574409E+04  0.14151238732E+04  0.90248385948E+03 0.  0.
        -24    2    4    4    0    0  0.24525656336E+03  0.35691550765E+03  0.74691130828E+03  0.86704210334E+03  0.79662067880E+02 0.  0.
         24    2    4    4    0    0 -0.39122850687E+03 -0.19421597626E+03  0.32094613265E+03  0.54808176988E+03  0.81287246182E+02 0.  0.
         13    1    3    3    0    0  0.45570907737E+02 -0.55924429824E+02 -0.64433153778E+02  0.96725802085E+02  0.00000000000E+00 0. -1.
        -13    1    3    3    0    0  0.10040103577E+03 -0.10677510156E+03  0.67044603876E+01  0.14671823366E+03  0.00000000000E+00 0.  1.
          2    1    6    6  502    0 -0.35359807695E+03 -0.19758065170E+03  0.28026373374E+03  0.49256215283E+03  0.00000000000E+00 0. -1.
          3    1    5    5  503    0  0.96206677830E+02  0.12658270326E+03  0.20297352047E+03  0.25783164204E+03  0.00000000000E+00 0. -1.
         -4    1    5    5    0  503  0.14904988553E+03  0.23033280439E+03  0.54393778782E+03  0.60921046131E+03  0.00000000000E+00 0.  1.
         -1    1    6    6    0  502 -0.37630429923E+02  0.33646754392E+01  0.40682398911E+02  0.55519617057E+02  0.00000000000E+00 0.  1.
<mgrwt>
<rscale>  0 0.13154799E+04</rscale>
<asrwt>0</asrwt>
<pdfrwt beam="1">  1        1 0.20528436E+00 0.13154799E+04</pdfrwt>
<pdfrwt beam="2">  1       -1 0.49879936E-01 0.13154799E+04</pdfrwt>
<totfact> 0.33825991E+01</totfact>
</mgrwt>
</event>
<event>
12    1  0.1689471E-007  0.1669896E+04  0.7818608E-02  0.8778723E-01
          1   -1    0    0  501    0  0.00000000000E+00  0.00000000000E+00  0.14550266202E+04  0.14550266202E+04  0.00000000000E+00 0. -1.
         -1   -1    0    0    0  501 -0.00000000000E+00 -0.00000000000E+00 -0.47912385431E+03  0.47912385431E+03  0.00000000000E+00 0.  1.
         23    2    1    2    0    0  0.54104013822E+02  0.41396566152E+03  0.85221019402E+03  0.95331335322E+03  0.90825774949E+02 0.  0.
        254    2    1    2    0    0 -0.54104013822E+02 -0.41396566152E+03  0.12369257190E+03  0.98083712133E+03  0.87888952264E+03 0.  0.
        -24    2    4    4    0    0  0.36075849494E+03 -0.22534354292E+03 -0.13081347139E+03  0.45288930303E+03  0.84084198823E+02 0.  0.
         24    2    4    4    0    0 -0.41486250877E+03 -0.18862211860E+03  0.25450604329E+03  0.52794781830E+03  0.79160393954E+02 0.  0.
         11    1    3    3    0    0  0.66896769916E+02  0.38260908039E+03  0.81604823121E+03  0.90376966196E+03  0.00000000000E+00 0. -1.
        -11    1    3    3    0    0 -0.12792756094E+02  0.31356581133E+02  0.36161962817E+02  0.49543691260E+02  0.00000000000E+00 0.  1.
          2    1    6    6  502    0 -0.29268280070E+03 -0.13974327424E+03  0.13904330742E+03  0.35288021461E+03  0.00000000000E+00 0. -1.
          3    1    5    5  503    0  0.33300653097E+03 -0.17591303531E+03 -0.10811823326E+03  0.39182687251E+03  0.00000000000E+00 0. -1.
         -4    1    5    5    0  503  0.27751963977E+02 -0.49430507607E+02 -0.22695238132E+02  0.61062430517E+02  0.00000000000E+00 0.  1.
         -1    1    6    6    0  502 -0.12217970806E+03 -0.48878844358E+02  0.11546273587E+03  0.17506760369E+03  0.00000000000E+00 0.  1.
<mgrwt>
<rscale>  0 0.16698958E+04</rscale>
<asrwt>0</asrwt>
<pdfrwt beam="1">  1        1 0.22385025E+00 0.16698958E+04</pdfrwt>
<pdfrwt beam="2">  1       -1 0.73711363E-01 0.16698958E+04</pdfrwt>
<totfact> 0.12433585E+01</totfact>
</mgrwt>
</event>
<event>
12    1  0.1442183E-007  0.1951550E+04  0.7818608E-02  0.8629614E-01
          2   -1    0    0  501    0  0.00000000000E+00  0.00000000000E+00  0.23604230306E+04  0.23604230306E+04  0.00000000000E+00 0. -1.
         -2   -1    0    0    0  501 -0.00000000000E+00 -0.00000000000E+00 -0.40337541213E+03  0.40337541213E+03  0.00000000000E+00 0.  1.
         23    2    1    2    0    0  0.59046031442E+02 -0.47545365026E+02  0.18535176344E+04  0.18573079427E+04  0.91204041481E+02 0.  0.
        254    2    1    2    0    0 -0.59046031442E+02  0.47545365026E+02  0.10352998406E+03  0.90649050009E+03  0.89736256529E+03 0.  0.
        -24    2    4    4    0    0 -0.20878500761E+03 -0.15000413377E+03 -0.31464824105E+03  0.41401593582E+03  0.79456025354E+02 0.  0.
         24    2    4    4    0    0  0.14973897617E+03  0.19754949880E+03  0.41817822512E+03  0.49247456427E+03  0.78807379280E+02 0.  0.
         13    1    3    3    0    0  0.74168626733E+02 -0.11012865703E+02  0.96386127425E+03  0.96677340903E+03  0.00000000000E+00 0. -1.
        -13    1    3    3    0    0 -0.15122595291E+02 -0.36532499323E+02  0.88965636019E+03  0.89053453365E+03  0.00000000000E+00 0.  1.
          2    1    6    6  502    0  0.15711359391E+03  0.17167762396E+03  0.38346750390E+03  0.44855904239E+03  0.00000000000E+00 0. -1.
          1    1    5    5  503    0 -0.19163532457E+03 -0.13385063705E+03 -0.31265020272E+03  0.39037192512E+03  0.00000000000E+00 0. -1.
         -2    1    5    5    0  503 -0.17149683043E+02 -0.16153496723E+02 -0.19980383314E+01  0.23644010701E+02  0.00000000000E+00 0.  1.
         -1    1    6    6    0  502 -0.73746177437E+01  0.25871874841E+02  0.34710721215E+02  0.43915521879E+02  0.00000000000E+00 0.  1.
<mgrwt>
<rscale>  0 0.19515498E+04</rscale>
<asrwt>0</asrwt>
<pdfrwt beam="1">  1        2 0.36314200E+00 0.19515498E+04</pdfrwt>
<pdfrwt beam="2">  1       -2 0.62057757E-01 0.19515498E+04</pdfrwt>
<totfact> 0.94212297E+00</totfact>
</mgrwt>
</event>
<event>
12    1  0.1442183E-007  0.2078356E+04  0.7818608E-02  0.8570838E-01
         -1   -1    0    0    0  501 -0.00000000000E+00  0.00000000000E+00  0.67234726391E+03  0.67234726391E+03  0.00000000000E+00 0.  1.
          1   -1    0    0  501    0  0.00000000000E+00 -0.00000000000E+00 -0.16061506281E+04  0.16061506281E+04  0.00000000000E+00 0. -1.
         23    2    1    2    0    0  0.12433514220E+03 -0.78200773999E+03 -0.68484387327E+03  0.10506760629E+04  0.88959122224E+02 0.  0.
        254    2    1    2    0    0 -0.12433514220E+03  0.78200773999E+03 -0.24895949089E+03  0.12278218291E+04  0.90474874018E+03 0.  0.
        -24    2    4    4    0    0  0.27596069407E+02  0.88107131167E+03 -0.40883332602E+03  0.97475567779E+03  0.77173464630E+02 0.  0.
         24    2    4    4    0    0 -0.15193121161E+03 -0.99063571680E+02  0.15987383513E+03  0.25306615128E+03  0.74740547691E+02 0.  0.
         13    1    3    3    0    0 -0.77184179762E+01 -0.17667033240E+03 -0.13843052272E+03  0.22457735849E+03  0.00000000000E+00 0.  1.
        -13    1    3    3    0    0  0.13205356018E+03 -0.60533740758E+03 -0.54641335055E+03  0.82609870441E+03  0.00000000000E+00 0. -1.
          2    1    6    6  502    0 -0.14342533971E+02  0.11680908742E+02  0.81036881216E+01  0.20194595092E+02  0.00000000000E+00 0. -1.
          3    1    5    5  503    0  0.48994541535E+01  0.23675351355E+03 -0.72922725536E+02  0.24777803520E+03  0.00000000000E+00 0. -1.
         -4    1    5    5    0  503  0.22696615253E+02  0.64431779812E+03 -0.33591060048E+03  0.72697764259E+03  0.00000000000E+00 0.  1.
         -1    1    6    6    0  502 -0.13758867764E+03 -0.11074448042E+03  0.15177014701E+03  0.23287155619E+03  0.00000000000E+00 0.  1.
<mgrwt>
<rscale>  0 0.20783561E+04</rscale>
<asrwt>0</asrwt>
<pdfrwt beam="1">  1        1 0.24710010E+00 0.20783561E+04</pdfrwt>
<pdfrwt beam="2">  1       -1 0.10343804E+00 0.20783561E+04</pdfrwt>
<totfact> 0.44884629E+00</totfact>
</mgrwt>
</event>
<event>
12    1  0.1442183E-007  0.1457525E+04  0.7818608E-02  0.8913200E-01
          2   -1    0    0  501    0  0.00000000000E+00  0.00000000000E+00  0.22838156586E+04  0.22838156586E+04  0.00000000000E+00 0.  1.
         -2   -1    0    0    0  501 -0.00000000000E+00 -0.00000000000E+00 -0.23254706150E+03  0.23254706150E+03  0.00000000000E+00 0. -1.
         23    2    1    2    0    0  0.37794660382E+03  0.17111235869E+02  0.10082593136E+04  0.10806910468E+04  0.90387308498E+02 0.  0.
        254    2    1    2    0    0 -0.37794660382E+03 -0.17111235869E+02  0.10430092836E+04  0.14356716733E+04  0.91112477642E+03 0.  0.
        -24    2    4    4    0    0 -0.27495958613E+03 -0.15724508929E+03 -0.44876411736E+02  0.33106581264E+03  0.85216711122E+02 0.  0.
         24    2    4    4    0    0 -0.10298701769E+03  0.14013385342E+03  0.10878856953E+04  0.11046058607E+04  0.80093687087E+02 0.  0.
         13    1    3    3    0    0  0.15823944137E+03  0.17672679452E+02  0.54831507038E+03  0.57096537619E+03  0.00000000000E+00 0.  1.
        -13    1    3    3    0    0  0.21970716245E+03 -0.56144358224E+00  0.45994424319E+03  0.50972567062E+03  0.00000000000E+00 0. -1.
          4    1    6    6  502    0 -0.98143784715E+02  0.11790009249E+03  0.10436162179E+04  0.10548305288E+04  0.00000000000E+00 0. -1.
          1    1    5    5  503    0 -0.26918829594E+03 -0.13030024320E+03 -0.49468812282E+02  0.30312976667E+03  0.00000000000E+00 0. -1.
         -2    1    5    5    0  503 -0.57712901854E+01 -0.26944846099E+02  0.45924005460E+01  0.27936045970E+02  0.00000000000E+00 0.  1.
         -3    1    6    6    0  502 -0.48432329743E+01  0.22233760936E+02  0.44269477394E+02  0.49775331839E+02  0.00000000000E+00 0.  1.
<mgrwt>
<rscale>  0 0.14575248E+04</rscale>
<asrwt>0</asrwt>
<pdfrwt beam="1">  1        2 0.35135624E+00 0.14575248E+04</pdfrwt>
<pdfrwt beam="2">  1       -2 0.35776473E-01 0.14575248E+04</pdfrwt>
<totfact> 0.33020739E+01</totfact>
</mgrwt>
</event>
<event>
12    1  0.1442183E-007  0.1360762E+04  0.7818608E-02  0.8982721E-01
         -2   -1    0    0    0  501 -0.00000000000E+00  0.00000000000E+00  0.13594681387E+04  0.13594681387E+04  0.00000000000E+00 0.  1.
          2   -1    0    0  501    0  0.00000000000E+00 -0.00000000000E+00 -0.34051420962E+03  0.34051420962E+03  0.00000000000E+00 0. -1.
         23    2    1    2    0    0 -0.34918997798E+03 -0.86403592634E+02  0.13231254142E+03  0.39272100704E+03  0.85580133252E+02 0.  0.
        254    2    1    2    0    0  0.34918997798E+03  0.86403592634E+02  0.88664138762E+03  0.13072613412E+04  0.89073006153E+03 0.  0.
        -24    2    4    4    0    0  0.10273071336E+03 -0.19431339181E+03  0.89522719149E+03  0.92515335860E+03  0.78522091408E+02 0.  0.
         24    2    4    4    0    0  0.24645926462E+03  0.28071698445E+03 -0.85858038711E+01  0.38210798264E+03  0.79928717587E+02 0.  0.
         11    1    3    3    0    0 -0.30409441173E+03 -0.64947583293E+02  0.81456653742E+02  0.32144484171E+03  0.00000000000E+00 0. -1.
        -11    1    3    3    0    0 -0.45095566254E+02 -0.21456009342E+02  0.50855887682E+02  0.71276165333E+02  0.00000000000E+00 0.  1.
          4    1    6    6  502    0  0.27290567651E+02  0.80351452065E+02 -0.70355789722E+01  0.85150633017E+02  0.00000000000E+00 0. -1.
          1    1    5    5  503    0 -0.27331197822E+01  0.52450165697E+01  0.10136794384E+02  0.11736044604E+02  0.00000000000E+00 0. -1.
         -4    1    5    5    0  503  0.10546383314E+03 -0.19955840838E+03  0.88509039710E+03  0.91341731399E+03  0.00000000000E+00 0.  1.
         -3    1    6    6    0  502  0.21916869697E+03  0.20036553238E+03 -0.15502248989E+01  0.29695734962E+03  0.00000000000E+00 0.  1.
<mgrwt>
<rscale>  0 0.13607619E+04</rscale>
<asrwt>0</asrwt>
<pdfrwt beam="1">  1        2 0.52386802E-01 0.13607619E+04</pdfrwt>
<pdfrwt beam="2">  1       -2 0.20914894E+00 0.13607619E+04</pdfrwt>
<totfact> 0.10778994E+01</totfact>
</mgrwt>
</event>
<event>
12    1  0.1442183E-007  0.1283880E+04  0.7818608E-02  0.9042447E-01
         -2   -1    0    0    0  501 -0.00000000000E+00  0.00000000000E+00  0.63723654020E+03  0.63723654020E+03  0.00000000000E+00 0.  1.
          2   -1    0    0  501    0  0.00000000000E+00 -0.00000000000E+00 -0.64667772580E+03  0.64667772580E+03  0.00000000000E+00 0. -1.
         23    2    1    2    0    0 -0.52083138227E+00  0.10748609618E+03 -0.27696265600E+03  0.31105633764E+03  0.92163985559E+02 0.  0.
        254    2    1    2    0    0  0.52083138227E+00 -0.10748609618E+03  0.26752147039E+03  0.97285792836E+03  0.92915621911E+03 0.  0.
        -24    2    4    4    0    0 -0.43968053574E+03 -0.15980877047E+03  0.19938559031E+03  0.51592742149E+03  0.86998126402E+02 0.  0.
         24    2    4    4    0    0  0.44020136712E+03  0.52322674291E+02  0.68135880081E+02  0.45693050687E+03  0.87338903676E+02 0.  0.
         13    1    3    3    0    0 -0.12906516104E+02  0.15089972475E+01  0.12798172803E+01  0.13057303049E+02  0.00000000000E+00 0.  1.
        -13    1    3    3    0    0  0.12385684722E+02  0.10597709894E+03 -0.27824247328E+03  0.29799903459E+03  0.00000000000E+00 0. -1.
          4    1    6    6  502    0  0.31372478325E+03  0.12782230518E+02  0.15566675103E+02  0.31437071495E+03  0.00000000000E+00 0. -1.
          1    1    5    5  503    0 -0.33500163855E+03 -0.10075037816E+03  0.18247073614E+03  0.39455329942E+03  0.00000000000E+00 0. -1.
         -2    1    5    5    0  503 -0.10467889718E+03 -0.59058392312E+02  0.16914854173E+02  0.12137412207E+03  0.00000000000E+00 0.  1.
         -3    1    6    6    0  502  0.12647658386E+03  0.39540443773E+02  0.52569204978E+02  0.14255979192E+03  0.00000000000E+00 0.  1.
<mgrwt>
<rscale>  0 0.12838796E+04</rscale>
<asrwt>0</asrwt>
<pdfrwt beam="1">  1        2 0.99488880E-01 0.12838796E+04</pdfrwt>
<pdfrwt beam="2">  1       -2 0.98036391E-01 0.12838796E+04</pdfrwt>
<totfact> 0.38445638E+01</totfact>
</mgrwt>
</event>
<event>
12    1  0.1442183E-007  0.2257310E+04  0.7818608E-02  0.8494946E-01
         -2   -1    0    0    0  501 -0.00000000000E+00  0.00000000000E+00  0.64754379416E+03  0.64754379416E+03  0.00000000000E+00 0.  1.
          2   -1    0    0  501    0  0.00000000000E+00 -0.00000000000E+00 -0.19672224144E+04  0.19672224144E+04  0.00000000000E+00 0. -1.
         23    2    1    2    0    0  0.50392753552E+03  0.80214550817E+03 -0.52946959433E+03  0.10891987140E+04  0.92926906482E+02 0.  0.
        254    2    1    2    0    0 -0.50392753552E+03 -0.80214550817E+03 -0.79020902587E+03  0.15255674945E+04  0.89752186515E+03 0.  0.
        -24    2    4    4    0    0 -0.22295106149E+03 -0.80991696031E+03 -0.88074889558E+03  0.12196966916E+04  0.79175399685E+02 0.  0.
         24    2    4    4    0    0 -0.28097647403E+03  0.77714521472E+01  0.90539869713E+02  0.30587080295E+03  0.79695079282E+02 0.  0.
         13    1    3    3    0    0  0.41866318650E+03  0.68903478879E+03 -0.41335297001E+03  0.90604000006E+03  0.00000000000E+00 0.  1.
        -13    1    3    3    0    0  0.85264349021E+02  0.11311071938E+03 -0.11611662431E+03  0.18315871394E+03  0.00000000000E+00 0. -1.
          2    1    6    6  502    0 -0.24079158325E+03  0.30575553007E+02  0.92174535804E+02  0.25963743192E+03  0.00000000000E+00 0. -1.
          1    1    5    5  503    0 -0.19622269814E+03 -0.58160931392E+03 -0.64827644154E+03  0.89276821514E+03  0.00000000000E+00 0. -1.
         -2    1    5    5    0  503 -0.26728363352E+02 -0.22830764640E+03 -0.23247245404E+03  0.32692847643E+03  0.00000000000E+00 0.  1.
         -1    1    6    6    0  502 -0.40184890786E+02 -0.22804100860E+02 -0.16346660910E+01  0.46233371029E+02  0.00000000000E+00 0.  1.
<mgrwt>
<rscale>  0 0.22573105E+04</rscale>
<asrwt>0</asrwt>
<pdfrwt beam="1">  1        2 0.30264960E+00 0.22573105E+04</pdfrwt>
<pdfrwt beam="2">  1       -2 0.99622123E-01 0.22573105E+04</pdfrwt>
<totfact> 0.52830014E+00</totfact>
</mgrwt>
</event>
<event>
12    1  0.1442183E-007  0.1442881E+04  0.7818608E-02  0.8923351E-01
          2   -1    0    0  501    0  0.00000000000E+00  0.00000000000E+00  0.42457244324E+03  0.42457244324E+03  0.00000000000E+00 0. -1.
         -2   -1    0    0    0  501 -0.00000000000E+00 -0.00000000000E+00 -0.12258827801E+04  0.12258827801E+04  0.00000000000E+00 0.  1.
         23    2    1    2    0    0 -0.20796262978E+03  0.14308499781E+03 -0.64723122244E+03  0.70090150799E+03  0.92913382347E+02 0.  0.
        254    2    1    2    0    0  0.20796262978E+03 -0.14308499781E+03 -0.15407911445E+03  0.94955371537E+03  0.90232483779E+03 0.  0.
        -24    2    4    4    0    0  0.37283466366E+02  0.51096966868E+02 -0.50089089294E+03  0.50964969769E+03  0.69643167934E+02 0.  0.
         24    2    4    4    0    0  0.17067916342E+03 -0.19418196468E+03  0.34681177849E+03  0.43990401768E+03  0.79994517571E+02 0.  0.
         13    1    3    3    0    0 -0.79244590320E+02  0.68383686841E+01 -0.15555957445E+03  0.17471476636E+03  0.00000000000E+00 0. -1.
        -13    1    3    3    0    0 -0.12871803946E+03  0.13624662913E+03 -0.49167164799E+03  0.52618674163E+03  0.00000000000E+00 0.  1.
          4    1    6    6  502    0  0.38799754192E+02 -0.10268296771E+03  0.15179473182E+03  0.18732552787E+03  0.00000000000E+00 0. -1.
          1    1    5    5  503    0 -0.19919043077E+02  0.69733344007E+01 -0.14202644115E+03  0.14358588251E+03  0.00000000000E+00 0. -1.
         -2    1    5    5    0  503  0.57202509443E+02  0.44123632467E+02 -0.35886445179E+03  0.36606381518E+03  0.00000000000E+00 0.  1.
         -3    1    6    6    0  502  0.13187940923E+03 -0.91498996969E+02  0.19501704668E+03  0.25257848982E+03  0.00000000000E+00 0.  1.
<mgrwt>
<rscale>  0 0.14428805E+04</rscale>
<asrwt>0</asrwt>
<pdfrwt beam="1">  1        2 0.65318837E-01 0.14428805E+04</pdfrwt>
<pdfrwt beam="2">  1       -2 0.18859735E+00 0.14428805E+04</pdfrwt>
<totfact> 0.11410400E+01</totfact>
</mgrwt>
</event>
<event>
12    1  0.1442183E-007  0.1288211E+04  0.7818608E-02  0.9038966E-01
         -1   -1    0    0    0  501 -0.00000000000E+00  0.00000000000E+00  0.24556364890E+03  0.24556364890E+03  0.00000000000E+00 0.  1.
          1   -1    0    0  501    0  0.00000000000E+00 -0.00000000000E+00 -0.16894686535E+04  0.16894686535E+04  0.00000000000E+00 0. -1.
         23    2    1    2    0    0 -0.15948520987E+03 -0.11875170109E+03  0.35973037008E+01  0.21967624305E+03  0.93312445512E+02 0.  0.
        254    2    1    2    0    0  0.15948520987E+03  0.11875170109E+03 -0.14475023083E+04  0.17153560593E+04  0.89869125907E+03 0.  0.
        -24    2    4    4    0    0  0.23009112685E+03  0.43633083147E+03 -0.48798899240E+03  0.69913209004E+03  0.85591480140E+02 0.  0.
         24    2    4    4    0    0 -0.70605916983E+02 -0.31757913038E+03 -0.95951331586E+03  0.10162239693E+04  0.78763270944E+02 0.  0.
         13    1    3    3    0    0 -0.13903747093E+03 -0.91680339344E+02  0.38570670980E+02  0.17095145394E+03  0.00000000000E+00 0.  1.
        -13    1    3    3    0    0 -0.20447738934E+02 -0.27071361746E+02 -0.34973367280E+02  0.48724789103E+02  0.00000000000E+00 0. -1.
          2    1    6    6  502    0 -0.50744371336E+02 -0.22087956305E+03 -0.54757652323E+03  0.59262367603E+03  0.00000000000E+00 0. -1.
          1    1    5    5  503    0  0.19365257963E+03  0.38024459542E+03 -0.45753911156E+03  0.62564311915E+03  0.00000000000E+00 0. -1.
         -2    1    5    5    0  503  0.36438547225E+02  0.56086236052E+02 -0.30449880841E+02  0.73488970884E+02  0.00000000000E+00 0.  1.
         -1    1    6    6    0  502 -0.19861545647E+02 -0.96699567333E+02 -0.41193679263E+03  0.42360029325E+03  0.00000000000E+00 0.  1.
<mgrwt>
<rscale>  0 0.12882113E+04</rscale>
<asrwt>0</asrwt>
<pdfrwt beam="1">  1        1 0.25991825E+00 0.12882113E+04</pdfrwt>
<pdfrwt beam="2">  1       -1 0.37779023E-01 0.12882113E+04</pdfrwt>
<totfact> 0.32217345E+01</totfact>
</mgrwt>
</event>
<event>
12    1  0.1442183E-007  0.1459935E+04  0.7818608E-02  0.8911542E-01
          1   -1    0    0  501    0  0.00000000000E+00  0.00000000000E+00  0.11755787595E+04  0.11755787595E+04  0.00000000000E+00 0. -1.
         -1   -1    0    0    0  501 -0.00000000000E+00 -0.00000000000E+00 -0.45326804134E+03  0.45326804134E+03  0.00000000000E+00 0.  1.
         23    2    1    2    0    0 -0.10869932502E+03  0.23411368473E+03  0.62074107931E+03  0.67821365574E+03  0.89607559107E+02 0.  0.
        254    2    1    2    0    0  0.10869932502E+03 -0.23411368473E+03  0.10156963881E+03  0.95063314506E+03  0.90926466132E+03 0.  0.
        -24    2    4    4    0    0  0.34577274561E+03 -0.44955705282E+03 -0.70998981791E+02  0.57685791334E+03  0.77870799506E+02 0.  0.
         24    2    4    4    0    0 -0.23707342059E+03  0.21544336809E+03  0.17256862060E+03  0.37377523172E+03  0.85488849750E+02 0.  0.
         13    1    3    3    0    0 -0.11204363249E+03  0.19162206068E+03  0.44387258521E+03  0.49628183689E+03  0.00000000000E+00 0. -1.
        -13    1    3    3    0    0  0.33443074622E+01  0.42491624055E+02  0.17686849410E+03  0.18193181886E+03  0.00000000000E+00 0.  1.
          4    1    6    6  502    0 -0.17347208807E+03  0.19066386550E+03  0.16266247289E+03  0.30480215720E+03  0.00000000000E+00 0. -1.
          1    1    5    5  503    0  0.23861036570E+03 -0.25372469634E+03 -0.27127314134E+02  0.34935228541E+03  0.00000000000E+00 0. -1.
         -2    1    5    5    0  503  0.10716237991E+03 -0.19583235649E+03 -0.43871667657E+02  0.22750562793E+03  0.00000000000E+00 0.  1.
         -3    1    6    6    0  502 -0.63601332516E+02  0.24779502587E+02  0.99061477040E+01  0.68973074519E+02  0.00000000000E+00 0.  1.
<mgrwt>
<rscale>  0 0.14599346E+04</rscale>
<asrwt>0</asrwt>
<pdfrwt beam="1">  1        1 0.18085827E+00 0.14599346E+04</pdfrwt>
<pdfrwt beam="2">  1       -1 0.69733545E-01 0.14599346E+04</pdfrwt>
<totfact> 0.22475248E+01</totfact>
</mgrwt>
</event>
<event>
12    1  0.1442183E-007  0.2854753E+04  0.7818608E-02  0.8286468E-01
         -2   -1    0    0    0  501 -0.00000000000E+00  0.00000000000E+00  0.12569674992E+04  0.12569674992E+04  0.00000000000E+00 0.  1.
          2   -1    0    0  501    0  0.00000000000E+00 -0.00000000000E+00 -0.16208886256E+04  0.16208886256E+04  0.00000000000E+00 0. -1.
         23    2    1    2    0    0 -0.12752333468E+04  0.97430336253E+02 -0.10031658012E+03  0.12860410773E+04  0.90141429104E+02 0.  0.
        254    2    1    2    0    0  0.12752333468E+04 -0.97430336253E+02 -0.26360454631E+03  0.15918150474E+04  0.91031589529E+03 0.  0.
        -24    2    4    4    0    0  0.80821226742E+03 -0.19481629836E+03  0.26440817553E+03  0.87568506894E+03  0.75843241953E+02 0.  0.
         24    2    4    4    0    0  0.46702107935E+03  0.97385962110E+02 -0.52801272184E+03  0.71612997848E+03  0.80324326862E+02 0.  0.
         13    1    3    3    0    0 -0.26107611990E+03  0.24154030752E+02 -0.57014215978E+02  0.26831842726E+03  0.00000000000E+00 0.  1.
        -13    1    3    3    0    0 -0.10141572269E+04  0.73276305501E+02 -0.43302364142E+02  0.10177226501E+04  0.00000000000E+00 0. -1.
          2    1    6    6  502    0  0.16412273442E+03  0.27967226685E+02 -0.24236000490E+03  0.29403538851E+03  0.00000000000E+00 0. -1.
          1    1    5    5  503    0  0.68529266014E+03 -0.16238068053E+03  0.19463112332E+03  0.73066735907E+03  0.00000000000E+00 0. -1.
         -2    1    5    5    0  503  0.12291960729E+03 -0.32435617832E+02  0.69777052209E+02  0.14501770987E+03  0.00000000000E+00 0.  1.
         -1    1    6    6    0  502  0.30289834493E+03  0.69418735425E+02 -0.28565271694E+03  0.42209458997E+03  0.00000000000E+00 0.  1.
<mgrwt>
<rscale>  0 0.28547535E+04</rscale>
<asrwt>0</asrwt>
<pdfrwt beam="1">  1        2 0.24936748E+00 0.28547535E+04</pdfrwt>
<pdfrwt beam="2">  1       -2 0.19337962E+00 0.28547535E+04</pdfrwt>
<totfact> 0.13838029E+00</totfact>
</mgrwt>
</event>
<event>
12    1  0.1442183E-007  0.1323077E+04  0.7818608E-02  0.9011462E-01
          1   -1    0    0  501    0  0.00000000000E+00  0.00000000000E+00  0.11088156166E+04  0.11088156166E+04  0.00000000000E+00 0. -1.
         -1   -1    0    0    0  501 -0.00000000000E+00 -0.00000000000E+00 -0.39468534624E+03  0.39468534624E+03  0.00000000000E+00 0.  1.
         23    2    1    2    0    0  0.31101414809E+03  0.18106379633E+02  0.39913260084E+01  0.31990583836E+03  0.72568405212E+02 0.  0.
        254    2    1    2    0    0 -0.31101414809E+03 -0.18106379633E+02  0.71013894436E+03  0.11835951245E+04  0.89417138019E+03 0.  0.
        -24    2    4    4    0    0  0.21582395357E+03 -0.27077497929E+03  0.23539573916E+03  0.42618813494E+03  0.79536809157E+02 0.  0.
         24    2    4    4    0    0 -0.52683810166E+03  0.25266859965E+03  0.47474320520E+03  0.75740698956E+03  0.82972467377E+02 0.  0.
         13    1    3    3    0    0  0.90338983362E+02  0.32819111838E+02  0.19955248318E+02  0.98165360246E+02  0.00000000000E+00 0. -1.
        -13    1    3    3    0    0  0.22067516473E+03 -0.14712732206E+02 -0.15963922310E+02  0.22174047811E+03  0.00000000000E+00 0.  1.
          4    1    6    6  502    0 -0.38176825074E+03  0.18509348901E+03  0.29504691281E+03  0.51677778368E+03  0.00000000000E+00 0. -1.
          3    1    5    5  503    0  0.16320508337E+03 -0.16815987198E+03  0.19209027056E+03  0.30300546831E+03  0.00000000000E+00 0. -1.
         -4    1    5    5    0  503  0.52618870194E+02 -0.10261510730E+03  0.43305468599E+02  0.12318266663E+03  0.00000000000E+00 0.  1.
         -3    1    6    6    0  502 -0.14506985092E+03  0.67575110640E+02  0.17969629239E+03  0.24062920588E+03  0.00000000000E+00 0.  1.
<mgrwt>
<rscale>  0 0.13230771E+04</rscale>
<asrwt>0</asrwt>
<pdfrwt beam="1">  1        1 0.17058702E+00 0.13230771E+04</pdfrwt>
<pdfrwt beam="2">  1       -1 0.60720823E-01 0.13230771E+04</pdfrwt>
<totfact> 0.33685486E+01</totfact>
</mgrwt>
</event>
<event>
12    1  0.1442183E-007  0.2658166E+04  0.7818608E-02  0.8348707E-01
         -1   -1    0    0    0  501 -0.00000000000E+00  0.00000000000E+00  0.13791599218E+04  0.13791599218E+04  0.00000000000E+00 0.  1.
          1   -1    0    0  501    0  0.00000000000E+00 -0.00000000000E+00 -0.12808248361E+04  0.12808248361E+04  0.00000000000E+00 0. -1.
         23    2    1    2    0    0  0.63437505692E+03 -0.40040503170E+03  0.95521808345E+03  0.12179149477E+04  0.90107327837E+02 0.  0.
        254    2    1    2    0    0 -0.63437505692E+03  0.40040503170E+03 -0.85688299778E+03  0.14420698102E+04  0.88462475856E+03 0.  0.
        -24    2    4    4    0    0 -0.84759005696E+03  0.25461503339E+03 -0.65696501845E+03  0.11058349703E+04  0.89611529595E+02 0.  0.
         24    2    4    4    0    0  0.21321500004E+03  0.14578999831E+03 -0.19991797933E+03  0.33623483992E+03  0.79820481487E+02 0.  0.
         13    1    3    3    0    0  0.15446834154E+03 -0.14077508325E+03  0.29217517561E+03  0.35922754048E+03  0.00000000000E+00 0. -1.
        -13    1    3    3    0    0  0.47990671538E+03 -0.25962994845E+03  0.66304290784E+03  0.85868740718E+03  0.00000000000E+00 0.  1.
          4    1    6    6  502    0  0.66538650226E+02  0.31185298376E+02 -0.10256775691E+03  0.12617471841E+03  0.00000000000E+00 0. -1.
          3    1    5    5  503    0 -0.78450920853E+03  0.23322071022E+03 -0.57509384878E+03  0.10002897245E+04  0.00000000000E+00 0. -1.
         -4    1    5    5    0  503 -0.63080848430E+02  0.21394323171E+02 -0.81871169666E+02  0.10554524587E+03  0.00000000000E+00 0.  1.
         -3    1    6    6    0  502  0.14667634981E+03  0.11460469993E+03 -0.97350222424E+02  0.21006012150E+03  0.00000000000E+00 0.  1.
<mgrwt>
<rscale>  0 0.26581665E+04</rscale>
<asrwt>0</asrwt>
<pdfrwt beam="1">  1        1 0.19704997E+00 0.26581665E+04</pdfrwt>
<pdfrwt beam="2">  1       -1 0.21217845E+00 0.26581665E+04</pdfrwt>
<totfact> 0.10166582E+00</totfact>
</mgrwt>
</event>
<event>
12    1  0.1442183E-007  0.1692712E+04  0.7818608E-02  0.8765532E-01
          1   -1    0    0  501    0  0.00000000000E+00  0.00000000000E+00  0.20183441706E+04  0.20183441706E+04  0.00000000000E+00 0. -1.
         -1   -1    0    0    0  501 -0.00000000000E+00 -0.00000000000E+00 -0.35490420742E+03  0.35490420742E+03  0.00000000000E+00 0.  1.
         23    2    1    2    0    0 -0.12977675959E+03  0.45086580114E+03  0.62647208997E+02  0.48231162325E+03  0.92616689430E+02 0.  0.
        254    2    1    2    0    0  0.12977675959E+03 -0.45086580114E+03  0.16007927542E+04  0.18909367548E+04  0.89049558715E+03 0.  0.
        -24    2    4    4    0    0  0.39685975074E+03 -0.55052185588E+03  0.12988090005E+04  0.14677105693E+04  0.81838377019E+02 0.  0.
         24    2    4    4    0    0 -0.26708299115E+03  0.99656054740E+02  0.30198375366E+03  0.42322618543E+03  0.81618399605E+02 0.  0.
         13    1    3    3    0    0 -0.74942167801E+02  0.27293128653E+03 -0.80542579993E+01  0.28314781785E+03  0.00000000000E+00 0.  1.
        -13    1    3    3    0    0 -0.54834591791E+02  0.17793451461E+03  0.70701466996E+02  0.19916380540E+03  0.00000000000E+00 0. -1.
          4    1    6    6  502    0 -0.87348307639E+02  0.73410697750E+02  0.13165047317E+03  0.17421453578E+03  0.00000000000E+00 0. -1.
          3    1    5    5  503    0  0.25538145726E+03 -0.38523843409E+03  0.95273009471E+03  0.10589253860E+04  0.00000000000E+00 0. -1.
         -4    1    5    5    0  503  0.14147829348E+03 -0.16528342179E+03  0.34607890580E+03  0.40878518330E+03  0.00000000000E+00 0.  1.
         -3    1    6    6    0  502 -0.17973468351E+03  0.26245356990E+02  0.17033328049E+03  0.24901164965E+03  0.00000000000E+00 0.  1.
<mgrwt>
<rscale>  0 0.16927124E+04</rscale>
<asrwt>0</asrwt>
<pdfrwt beam="1">  1        1 0.31051448E+00 0.16927124E+04</pdfrwt>
<pdfrwt beam="2">  1       -1 0.54600648E-01 0.16927124E+04</pdfrwt>
<totfact> 0.93465854E+00</totfact>
</mgrwt>
</event>
<event>
12    1  0.1442183E-007  0.2575246E+04  0.7818608E-02  0.8376658E-01
         -2   -1    0    0    0  501 -0.00000000000E+00  0.00000000000E+00  0.64825821234E+03  0.64825821234E+03  0.00000000000E+00 0.  1.
          2   -1    0    0  501    0  0.00000000000E+00 -0.00000000000E+00 -0.25575819654E+04  0.25575819654E+04  0.00000000000E+00 0. -1.
         23    2    1    2    0    0 -0.34610199830E+03 -0.60556981008E+03  0.26571361012E+03  0.75201201340E+03  0.91743978505E+02 0.  0.
        254    2    1    2    0    0  0.34610199830E+03  0.60556981008E+03 -0.21750373632E+04  0.24538281643E+04  0.89665140422E+03 0.  0.
        -24    2    4    4    0    0 -0.99816462752E+02  0.47848905638E+03 -0.17534155499E+04  0.18222051374E+04  0.83966474241E+02 0.  0.
         24    2    4    4    0    0  0.44591846105E+03  0.12708075369E+03 -0.42162181327E+03  0.63162302692E+03  0.78675935614E+02 0.  0.
         11    1    3    3    0    0 -0.29641953928E+03 -0.56545537103E+03  0.22846148774E+03  0.67808478177E+03  0.00000000000E+00 0.  1.
        -11    1    3    3    0    0 -0.49682459018E+02 -0.40114439052E+02  0.37252122384E+02  0.73927231631E+02  0.00000000000E+00 0. -1.
          2    1    6    6  502    0  0.22256806944E+01  0.29394120946E+01  0.32336981459E+01  0.49041412820E+01  0.00000000000E+00 0. -1.
          1    1    5    5  503    0 -0.20314925295E+02  0.19693694826E+03 -0.84303241521E+03  0.86596796180E+03  0.00000000000E+00 0. -1.
         -2    1    5    5    0  503 -0.79501537458E+02  0.28155210813E+03 -0.91038313469E+03  0.95623717559E+03  0.00000000000E+00 0.  1.
         -1    1    6    6    0  502  0.44369278036E+03  0.12414134160E+03 -0.42485551142E+03  0.62671888564E+03  0.00000000000E+00 0.  1.
<mgrwt>
<rscale>  0 0.25752464E+04</rscale>
<asrwt>0</asrwt>
<pdfrwt beam="1">  1        2 0.39347415E+00 0.25752464E+04</pdfrwt>
<pdfrwt beam="2">  1       -2 0.99732032E-01 0.25752464E+04</pdfrwt>
<totfact> 0.23739137E+00</totfact>
</mgrwt>
</event>
<event>
12    1  0.1442183E-007  0.1435628E+04  0.7818608E-02  0.8928426E-01
         -2   -1    0    0    0  501 -0.00000000000E+00  0.00000000000E+00  0.17644572205E+03  0.17644572205E+03  0.00000000000E+00 0.  1.
          2   -1    0    0  501    0  0.00000000000E+00 -0.00000000000E+00 -0.29202002469E+04  0.29202002469E+04  0.00000000000E+00 0. -1.
         23    2    1    2    0    0 -0.13378208460E+03 -0.40326532066E+03 -0.76031502615E+03  0.87651191976E+03  0.98354671899E+02 0.  0.
        254    2    1    2    0    0  0.13378208460E+03  0.40326532066E+03 -0.19834394986E+04  0.22201340491E+04  0.90246461779E+03 0.  0.
        -24    2    4    4    0    0 -0.31350203694E+03  0.38200356643E+03 -0.13511784293E+04  0.14410388557E+04  0.81850986174E+02 0.  0.
         24    2    4    4    0    0  0.44728412154E+03  0.21261754233E+02 -0.63226106939E+03  0.77909519347E+03  0.81976295650E+02 0.  0.
         11    1    3    3    0    0 -0.13402793452E+03 -0.40598664245E+03 -0.76167262680E+03  0.87346083570E+03  0.00000000000E+00 0.  1.
        -11    1    3    3    0    0  0.24584991959E+00  0.27213217909E+01  0.13576006450E+01  0.30510840670E+01  0.00000000000E+00 0. -1.
          4    1    6    6  502    0  0.17372326014E+03 -0.28182400004E+02 -0.27353152593E+03  0.32525914970E+03  0.00000000000E+00 0. -1.
          1    1    5    5  503    0 -0.18468468108E+03  0.28488917588E+03 -0.92724267891E+03  0.98744582614E+03  0.00000000000E+00 0. -1.
         -2    1    5    5    0  503 -0.12881735586E+03  0.97114390545E+02 -0.42393575035E+03  0.45359302954E+03  0.00000000000E+00 0.  1.
         -3    1    6    6    0  502  0.27356086139E+03  0.49444154237E+02 -0.35872954346E+03  0.45383604377E+03  0.00000000000E+00 0.  1.
<mgrwt>
<rscale>  0 0.14356279E+04</rscale>
<asrwt>0</asrwt>
<pdfrwt beam="1">  1        2 0.44926154E+00 0.14356279E+04</pdfrwt>
<pdfrwt beam="2">  1       -2 0.27145498E-01 0.14356279E+04</pdfrwt>
<totfact> 0.23567575E+01</totfact>
</mgrwt>
</event>
<event>
12    1  0.1442183E-007  0.1389216E+04  0.7818608E-02  0.8961662E-01
         -1   -1    0    0    0  501 -0.00000000000E+00  0.00000000000E+00  0.15413252427E+04  0.15413252427E+04  0.00000000000E+00 0.  1.
          1   -1    0    0  501    0  0.00000000000E+00 -0.00000000000E+00 -0.31302941085E+03  0.31302941085E+03  0.00000000000E+00 0. -1.
         23    2    1    2    0    0  0.21923928122E+03 -0.12900795431E+03 -0.45862255597E+02  0.27393655499E+03  0.90713697788E+02 0.  0.
        254    2    1    2    0    0 -0.21923928122E+03  0.12900795431E+03  0.12741580874E+04  0.15804180985E+04  0.89974086254E+03 0.  0.
        -24    2    4    4    0    0  0.17014638916E+03  0.39138155868E+02 -0.45936752347E+02  0.19880593389E+03  0.83258784193E+02 0.  0.
         24    2    4    4    0    0 -0.38938567038E+03  0.89869798444E+02  0.13200948398E+04  0.13816121646E+04  0.80647421092E+02 0.  0.
         11    1    3    3    0    0  0.22514081970E+03 -0.12782948394E+03 -0.34644974455E+02  0.26120689101E+03  0.00000000000E+00 0. -1.
        -11    1    3    3    0    0 -0.59015384760E+01 -0.11784703745E+01 -0.11217281142E+02  0.12729663979E+02  0.00000000000E+00 0.  1.
          2    1    6    6  502    0 -0.37982736638E+03  0.77411299979E+02  0.12146438693E+04  0.12749984576E+04  0.00000000000E+00 0. -1.
          3    1    5    5  503    0  0.12874608000E+03 -0.91902241420E+01 -0.38749459248E+02  0.13476473547E+03  0.00000000000E+00 0. -1.
         -4    1    5    5    0  503  0.41400309166E+02  0.48328380010E+02 -0.71872930986E+01  0.64041198424E+02  0.00000000000E+00 0.  1.
         -1    1    6    6    0  502 -0.95583040034E+01  0.12458498465E+02  0.10545097048E+03  0.10661370707E+03  0.00000000000E+00 0.  1.
<mgrwt>
<rscale>  0 0.13892158E+04</rscale>
<asrwt>0</asrwt>
<pdfrwt beam="1">  1        1 0.48158372E-01 0.13892158E+04</pdfrwt>
<pdfrwt beam="2">  1       -1 0.23712695E+00 0.13892158E+04</pdfrwt>
<totfact> 0.68578321E+00</totfact>
</mgrwt>
</event>
<event>
12    1  0.1442183E-007  0.1212958E+04  0.7818608E-02  0.9101589E-01
         -2   -1    0    0    0  501 -0.00000000000E+00  0.00000000000E+00  0.17866918118E+03  0.17866918118E+03  0.00000000000E+00 0.  1.
          2   -1    0    0  501    0  0.00000000000E+00 -0.00000000000E+00 -0.20586479627E+04  0.20586479627E+04  0.00000000000E+00 0. -1.
         23    2    1    2    0    0 -0.99837988733E+02 -0.60908655874E+02  0.32987398182E+01  0.14793083722E+03  0.90527137149E+02 0.  0.
        254    2    1    2    0    0  0.99837988733E+02  0.60908655874E+02 -0.18832775213E+04  0.20893863066E+04  0.89728670317E+03 0.  0.
        -24    2    4    4    0    0  0.39216869428E+03 -0.57097510297E+02 -0.39351982110E+03  0.56449775578E+03  0.82118549819E+02 0.  0.
         24    2    4    4    0    0 -0.29233070555E+03  0.11800616617E+03 -0.14897577002E+04  0.15248885508E+04  0.80773699395E+02 0.  0.
         13    1    3    3    0    0 -0.56614674918E+02 -0.31825191772E+02  0.46806550248E+02  0.80055714309E+02  0.00000000000E+00 0.  1.
        -13    1    3    3    0    0 -0.43223313815E+02 -0.29083464102E+02 -0.43507810429E+02  0.67875122907E+02  0.00000000000E+00 0. -1.
          4    1    6    6  502    0 -0.81301520174E+01 -0.98943897588E+00 -0.14731267883E+03  0.14754017658E+03  0.00000000000E+00 0. -1.
          3    1    5    5  503    0  0.17898963044E+03 -0.23930110045E+02 -0.12304406680E+03  0.21851723123E+03  0.00000000000E+00 0. -1.
         -4    1    5    5    0  503  0.21317906384E+03 -0.33167400252E+02 -0.27047575430E+03  0.34598052455E+03  0.00000000000E+00 0.  1.
         -3    1    6    6    0  502 -0.28420055353E+03  0.11899560515E+03 -0.13424450214E+04  0.13773483743E+04  0.00000000000E+00 0.  1.
<mgrwt>
<rscale>  0 0.12129583E+04</rscale>
<asrwt>0</asrwt>
<pdfrwt beam="1">  1        2 0.31671506E+00 0.12129583E+04</pdfrwt>
<pdfrwt beam="2">  1       -2 0.27487567E-01 0.12129583E+04</pdfrwt>
<totfact> 0.73813835E+01</totfact>
</mgrwt>
</event>
<event>
12    1  0.1442183E-007  0.1871249E+04  0.7818608E-02  0.8669301E-01
          1   -1    0    0  501    0  0.00000000000E+00  0.00000000000E+00  0.31301002463E+04  0.31301002463E+04  0.00000000000E+00 0. -1.
         -1   -1    0    0    0  501 -0.00000000000E+00 -0.00000000000E+00 -0.27966950621E+03  0.27966950621E+03  0.00000000000E+00 0.  1.
         23    2    1    2    0    0 -0.23436952891E+03  0.26965374352E+03  0.22592647002E+04  0.22890478865E+04  0.88436549231E+02 0.  0.
        254    2    1    2    0    0  0.23436952891E+03 -0.26965374352E+03  0.59116603988E+03  0.11207218661E+04  0.88255197974E+03 0.  0.
        -24    2    4    4    0    0  0.31291155688E+03  0.23823448522E+03  0.40033861961E+03  0.56681837960E+03  0.79641400852E+02 0.  0.
         24    2    4    4    0    0 -0.78542027969E+02 -0.50788822873E+03  0.19082742027E+03  0.55390348648E+03  0.79212782838E+02 0.  0.
         13    1    3    3    0    0  0.75534516195E+01  0.14225158284E+02  0.11246112592E+03  0.11360860267E+03  0.00000000000E+00 0.  1.
        -13    1    3    3    0    0 -0.24192298053E+03  0.25542858523E+03  0.21468035743E+04  0.21754392838E+04  0.00000000000E+00 0. -1.
          4    1    6    6  502    0  0.13874550934E+02 -0.13952218005E+03  0.50799516942E+02  0.14912924867E+03  0.00000000000E+00 0. -1.
          1    1    5    5  503    0  0.78771098683E+02  0.93840342871E+02  0.16007811837E+03  0.20158348126E+03  0.00000000000E+00 0. -1.
         -2    1    5    5    0  503  0.23414045820E+03  0.14439414235E+03  0.24026050124E+03  0.36523489834E+03  0.00000000000E+00 0.  1.
         -3    1    6    6    0  502 -0.92416578903E+02 -0.36836604869E+03  0.14002790333E+03  0.40477423781E+03  0.00000000000E+00 0.  1.
<mgrwt>
<rscale>  0 0.18712494E+04</rscale>
<asrwt>0</asrwt>
<pdfrwt beam="1">  1        1 0.48155386E+00 0.18712494E+04</pdfrwt>
<pdfrwt beam="2">  1       -1 0.43026080E-01 0.18712494E+04</pdfrwt>
<totfact> 0.24017704E+00</totfact>
</mgrwt>
</event>
<event>
12    1  0.1442183E-007  0.1529734E+04  0.7818608E-02  0.8864918E-01
         -1   -1    0    0    0  501 -0.00000000000E+00  0.00000000000E+00  0.11492653098E+04  0.11492653098E+04  0.00000000000E+00 0. -1.
          1   -1    0    0  501    0  0.00000000000E+00 -0.00000000000E+00 -0.50903940174E+03  0.50903940174E+03  0.00000000000E+00 0.  1.
         23    2    1    2    0    0  0.62756506099E+02  0.32670093604E+03  0.42823782638E+03  0.54973357465E+03  0.90263428267E+02 0.  0.
        254    2    1    2    0    0 -0.62756506099E+02 -0.32670093604E+03  0.21198808169E+03  0.11085711369E+04  0.10360111670E+04 0.  0.
        -24    2    4    4    0    0 -0.17632849602E+03 -0.37564279585E+03  0.57691373000E+03  0.71518540428E+03  0.80383219989E+02 0.  0.
         24    2    4    4    0    0  0.11357198992E+03  0.48941859808E+02 -0.36492564831E+03  0.39338573262E+03  0.79295039574E+02 0.  0.
         11    1    3    3    0    0  0.28444012319E+02  0.29904859724E+03  0.36644372021E+03  0.47383554682E+03  0.00000000000E+00 0. -1.
        -11    1    3    3    0    0  0.34312493781E+02  0.27652338800E+02  0.61794106171E+02  0.75898027827E+02  0.00000000000E+00 0.  1.
          4    1    6    6  502    0  0.78921947717E+02  0.70057905097E+02 -0.24432843108E+03  0.26614500959E+03  0.00000000000E+00 0. -1.
          1    1    5    5  503    0 -0.10518502783E+03 -0.27109536052E+03  0.34647620554E+03  0.45232990790E+03  0.00000000000E+00 0. -1.
         -2    1    5    5    0  503 -0.71143468192E+02 -0.10454743533E+03  0.23043752446E+03  0.26285549638E+03  0.00000000000E+00 0.  1.
         -3    1    6    6    0  502  0.34650042204E+02 -0.21116045288E+02 -0.12059721723E+03  0.12724072303E+03  0.00000000000E+00 0.  1.
<mgrwt>
<rscale>  0 0.15297337E+04</rscale>
<asrwt>0</asrwt>
<pdfrwt beam="1">  1        1 0.78313754E-01 0.15297337E+04</pdfrwt>
<pdfrwt beam="2">  1       -1 0.17681005E+00 0.15297337E+04</pdfrwt>
<totfact> 0.91545498E+00</totfact>
</mgrwt>
</event>
<event>
12    1  0.1442183E-007  0.1495864E+04  0.7818608E-02  0.8887208E-01
         -2   -1    0    0    0  501 -0.00000000000E+00  0.00000000000E+00  0.12910684645E+03  0.12910684645E+03  0.00000000000E+00 0.  1.
          2   -1    0    0  501    0  0.00000000000E+00 -0.00000000000E+00 -0.43328621630E+04  0.43328621630E+04  0.00000000000E+00 0. -1.
         23    2    1    2    0    0  0.92987725102E+02  0.14201374815E+03 -0.25747192739E+04  0.25819964984E+04  0.93337864673E+02 0.  0.
        254    2    1    2    0    0 -0.92987725102E+02 -0.14201374815E+03 -0.16290360427E+04  0.18799725110E+04  0.92288872145E+03 0.  0.
        -24    2    4    4    0    0 -0.28729242198E+03  0.19923327716E+03 -0.23426252893E+03  0.42869107162E+03  0.81647216517E+02 0.  0.
         24    2    4    4    0    0  0.19430469688E+03 -0.34124702531E+03 -0.13947735137E+04  0.14512814394E+04  0.81368385731E+02 0.  0.
         13    1    3    3    0    0  0.11468804807E+02  0.80938103426E+02 -0.75126699922E+03  0.75570140545E+03  0.00000000000E+00 0.  1.
        -13    1    3    3    0    0  0.81518920295E+02  0.61075644725E+02 -0.18234522747E+04  0.18262950930E+04  0.00000000000E+00 0. -1.
          2    1    6    6  502    0  0.45821231743E+02 -0.30474353058E+02 -0.15160670334E+03  0.16128503951E+03  0.00000000000E+00 0. -1.
          3    1    5    5  503    0 -0.18220851627E+03  0.81930860417E+02 -0.15187045629E+03  0.25095267439E+03  0.00000000000E+00 0. -1.
         -4    1    5    5    0  503 -0.10508390571E+03  0.11730241675E+03 -0.82392072637E+02  0.17773839722E+03  0.00000000000E+00 0.  1.
         -1    1    6    6    0  502  0.14848346514E+03 -0.31077267226E+03 -0.12431668104E+04  0.12899963999E+04  0.00000000000E+00 0.  1.
<mgrwt>
<rscale>  0 0.14958639E+04</rscale>
<asrwt>0</asrwt>
<pdfrwt beam="1">  1        2 0.66659409E+00 0.14958639E+04</pdfrwt>
<pdfrwt beam="2">  1       -2 0.19862594E-01 0.14958639E+04</pdfrwt>
<totfact> 0.38219858E+00</totfact>
</mgrwt>
</event>
<event>
12    1  0.1442183E-007  0.2008135E+04  0.7818608E-02  0.8602826E-01
         -2   -1    0    0    0  501 -0.00000000000E+00  0.00000000000E+00  0.49209053543E+03  0.49209053543E+03  0.00000000000E+00 0.  1.
          2   -1    0    0  501    0  0.00000000000E+00 -0.00000000000E+00 -0.20487124639E+04  0.20487124639E+04  0.00000000000E+00 0. -1.
         23    2    1    2    0    0  0.40171883534E+03 -0.22203049166E+02 -0.14621350332E+04  0.15192629686E+04  0.91924502912E+02 0.  0.
        254    2    1    2    0    0 -0.40171883534E+03  0.22203049166E+02 -0.94486895218E+02  0.10215400307E+04  0.93420836165E+03 0.  0.
        -24    2    4    4    0    0 -0.45964773885E+03 -0.36373712372E+03 -0.17024858068E+03  0.61568675297E+03  0.80652709542E+02 0.  0.
         24    2    4    4    0    0  0.57928903512E+02  0.38594017288E+03  0.75761685464E+02  0.40585327777E+03  0.81679098814E+02 0.  0.
         11    1    3    3    0    0  0.35973452408E+03  0.98390566681E+01 -0.12794625366E+04  0.13291087681E+04  0.00000000000E+00 0. -1.
        -11    1    3    3    0    0  0.41984311261E+02 -0.32042105834E+02 -0.18267249665E+03  0.19015420051E+03  0.00000000000E+00 0.  1.
          4    1    6    6  502    0  0.40554835873E+02  0.78430745878E+02 -0.15099425950E+01  0.88308303903E+02  0.00000000000E+00 0. -1.
          3    1    5    5  503    0 -0.15909810797E+03 -0.12159295028E+03 -0.18966818102E+02  0.20113874243E+03  0.00000000000E+00 0. -1.
         -4    1    5    5    0  503 -0.30054963088E+03 -0.24214417343E+03 -0.15128176258E+03  0.41454801053E+03  0.00000000000E+00 0.  1.
         -3    1    6    6    0  502  0.17374067639E+02  0.30750942701E+03  0.77271628059E+02  0.31754497386E+03  0.00000000000E+00 0.  1.
<mgrwt>
<rscale>  0 0.20081355E+04</rscale>
<asrwt>0</asrwt>
<pdfrwt beam="1">  1        2 0.31518653E+00 0.20081355E+04</pdfrwt>
<pdfrwt beam="2">  1       -2 0.75706236E-01 0.20081355E+04</pdfrwt>
<totfact> 0.91127677E+00</totfact>
</mgrwt>
</event>
<event>
12    1  0.1442183E-007  0.1962458E+04  0.7818608E-02  0.8624377E-01
          1   -1    0    0  501    0  0.00000000000E+00  0.00000000000E+00  0.10893879900E+04  0.10893879900E+04  0.00000000000E+00 0. -1.
         -1   -1    0    0    0  501 -0.00000000000E+00 -0.00000000000E+00 -0.88380825910E+03  0.88380825910E+03  0.00000000000E+00 0.  1.
         23    2    1    2    0    0 -0.71030617682E+02  0.44603609167E+03  0.73029117338E+03  0.86517682936E+03  0.10588769729E+03 0.  0.
        254    2    1    2    0    0  0.71030617682E+02 -0.44603609167E+03 -0.52471144250E+03  0.11080194197E+04  0.86509617550E+03 0.  0.
        -24    2    4    4    0    0 -0.12514695515E+03 -0.14137998129E+03  0.20437809817E+03  0.28987588481E+03  0.81286912172E+02 0.  0.
         24    2    4    4    0    0  0.19617757283E+03 -0.30465611038E+03 -0.72908954067E+03  0.81814353490E+03  0.80537567115E+02 0.  0.
         13    1    3    3    0    0 -0.85975159685E+02  0.36237241109E+03  0.64480152800E+03  0.74463044721E+03  0.00000000000E+00 0.  1.
        -13    1    3    3    0    0  0.14944542003E+02  0.83663680578E+02  0.85489645373E+02  0.12054638215E+03  0.00000000000E+00 0. -1.
          4    1    6    6  502    0  0.18288436223E+03 -0.23715923618E+03 -0.54921001003E+03  0.62555801359E+03  0.00000000000E+00 0. -1.
          3    1    5    5  503    0 -0.20625835329E+02 -0.26910480501E+02  0.68911847611E+00  0.33912739909E+02  0.00000000000E+00 0. -1.
         -4    1    5    5    0  503 -0.10452111982E+03 -0.11446950079E+03  0.20368897970E+03  0.25596314490E+03  0.00000000000E+00 0.  1.
         -3    1    6    6    0  502  0.13293210597E+02 -0.67496874200E+02 -0.17987953064E+03  0.19258552131E+03  0.00000000000E+00 0.  1.
<mgrwt>
<rscale>  0 0.19624577E+04</rscale>
<asrwt>0</asrwt>
<pdfrwt beam="1">  1        1 0.16759815E+00 0.19624577E+04</pdfrwt>
<pdfrwt beam="2">  1       -1 0.13597050E+00 0.19624577E+04</pdfrwt>
<totfact> 0.54360889E+00</totfact>
</mgrwt>
</event>
<event>
12    1  0.1442183E-007  0.1624058E+04  0.7818608E-02  0.8805903E-01
          1   -1    0    0  501    0  0.00000000000E+00  0.00000000000E+00  0.88589291623E+03  0.88589291623E+03  0.00000000000E+00 0. -1.
         -1   -1    0    0    0  501 -0.00000000000E+00 -0.00000000000E+00 -0.74432365026E+03  0.74432365026E+03  0.00000000000E+00 0.  1.
         23    2    1    2    0    0  0.45394072817E+03 -0.25891024414E+03  0.24844978037E+03  0.58570432864E+03  0.90694917211E+02 0.  0.
        254    2    1    2    0    0 -0.45394072817E+03  0.25891024414E+03 -0.10688051440E+03  0.10445122379E+04  0.89804547293E+03 0.  0.
        -24    2    4    4    0    0 -0.63204059768E+03  0.22622697243E+03 -0.32474785564E+03  0.75023189095E+03  0.82053398927E+02 0.  0.
         24    2    4    4    0    0  0.17809986951E+03  0.32683271708E+02  0.21786734124E+03  0.29428034690E+03  0.79667963612E+02 0.  0.
         11    1    3    3    0    0  0.31824597858E+03 -0.18400800322E+03  0.12747723472E+03  0.38908854198E+03  0.00000000000E+00 0. -1.
        -11    1    3    3    0    0  0.13569474959E+03 -0.74902240920E+02  0.12097254565E+03  0.19661578666E+03  0.00000000000E+00 0.  1.
          4    1    6    6  502    0  0.85576555085E+02  0.50658673123E+02  0.14161483007E+03  0.17304452618E+03  0.00000000000E+00 0. -1.
          3    1    5    5  503    0 -0.42871409138E+03  0.11309358642E+03 -0.22247272733E+03  0.49606455814E+03  0.00000000000E+00 0. -1.
         -4    1    5    5    0  503 -0.20332650630E+03  0.11313338600E+03 -0.10227512831E+03  0.25416733281E+03  0.00000000000E+00 0.  1.
         -3    1    6    6    0  502  0.92523314426E+02 -0.17975401416E+02  0.76252511164E+02  0.12123582073E+03  0.00000000000E+00 0.  1.
<mgrwt>
<rscale>  0 0.16240579E+04</rscale>
<asrwt>0</asrwt>
<pdfrwt beam="1">  1        1 0.13629122E+00 0.16240579E+04</pdfrwt>
<pdfrwt beam="2">  1       -1 0.11451133E+00 0.16240579E+04</pdfrwt>
<totfact> 0.12415244E+01</totfact>
</mgrwt>
</event>
<event>
12    1  0.1442183E-007  0.1226897E+04  0.7818608E-02  0.9089634E-01
          1   -1    0    0  501    0  0.00000000000E+00  0.00000000000E+00  0.12768939946E+04  0.12768939946E+04  0.00000000000E+00 0. -1.
         -1   -1    0    0    0  501 -0.00000000000E+00 -0.00000000000E+00 -0.29471454071E+03  0.29471454071E+03  0.00000000000E+00 0.  1.
         23    2    1    2    0    0 -0.17473975910E+03  0.20601079336E+03  0.22453883473E+03  0.36262019073E+03  0.90007133240E+02 0.  0.
        254    2    1    2    0    0  0.17473975910E+03 -0.20601079336E+03  0.75764061920E+03  0.12089883446E+04  0.90258466592E+03 0.  0.
        -24    2    4    4    0    0 -0.24126983629E+03 -0.10722991813E+03 -0.60463387709E+02  0.28246734217E+03  0.80141056243E+02 0.  0.
         24    2    4    4    0    0  0.41600959539E+03 -0.98780875236E+02  0.81810400691E+03  0.92652100244E+03  0.79532113426E+02 0.  0.
         11    1    3    3    0    0 -0.70523446445E+02  0.89213193243E+02  0.15268759124E+03  0.19038395643E+03  0.00000000000E+00 0. -1.
        -11    1    3    3    0    0 -0.10421631265E+03  0.11679760012E+03  0.71851243494E+02  0.17223623431E+03  0.00000000000E+00 0.  1.
          2    1    6    6  502    0  0.18026024809E+02  0.28972169107E+00  0.10808619496E+02  0.21020175177E+02  0.00000000000E+00 0. -1.
          1    1    5    5  503    0  0.72695890209E+00 -0.58616383647E+01  0.92670454354E+01  0.10989331402E+02  0.00000000000E+00 0. -1.
         -2    1    5    5    0  503 -0.24199679520E+03 -0.10136827976E+03 -0.69730433144E+02  0.27147801077E+03  0.00000000000E+00 0.  1.
         -1    1    6    6    0  502  0.39798357058E+03 -0.99070596927E+02  0.80729538741E+03  0.90550082726E+03  0.00000000000E+00 0.  1.
<mgrwt>
<rscale>  0 0.12268973E+04</rscale>
<asrwt>0</asrwt>
<pdfrwt beam="1">  1        1 0.19644523E+00 0.12268973E+04</pdfrwt>
<pdfrwt beam="2">  1       -1 0.45340699E-01 0.12268973E+04</pdfrwt>
<totfact> 0.44810228E+01</totfact>
</mgrwt>
</event>
<event>
12    1  0.1442183E-007  0.1960155E+04  0.7818608E-02  0.8625479E-01
          2   -1    0    0  501    0  0.00000000000E+00  0.00000000000E+00  0.80182066796E+03  0.80182066796E+03  0.00000000000E+00 0.  1.
         -2   -1    0    0    0  501 -0.00000000000E+00 -0.00000000000E+00 -0.11979637301E+04  0.11979637301E+04  0.00000000000E+00 0. -1.
         23    2    1    2    0    0 -0.15638006085E+03  0.59915310990E+03  0.31345129780E+03  0.69982517923E+03  0.89801964670E+02 0.  0.
        254    2    1    2    0    0  0.15638006085E+03 -0.59915310990E+03 -0.70959435998E+03  0.12999592189E+04  0.89606397232E+03 0.  0.
        -24    2    4    4    0    0 -0.18873716022E+03 -0.52606744602E+03 -0.74710428560E+03  0.93645940114E+03  0.80141892980E+02 0.  0.
         24    2    4    4    0    0  0.34511722107E+03 -0.73085663881E+02  0.37509925616E+02  0.36349981774E+03  0.79232016473E+02 0.  0.
         13    1    3    3    0    0 -0.65480389693E+02  0.26962474596E+03  0.91094207759E+02  0.29203311415E+03  0.00000000000E+00 0. -1.
        -13    1    3    3    0    0 -0.90899671156E+02  0.32952836394E+03  0.22235709004E+03  0.40779206509E+03  0.00000000000E+00 0.  1.
          2    1    6    6  502    0  0.23883693735E+03 -0.12405071282E+02  0.26493632171E+02  0.24062186306E+03  0.00000000000E+00 0. -1.
          3    1    5    5  503    0 -0.40911098709E+02 -0.21485396971E+03 -0.25879971383E+03  0.33884102198E+03  0.00000000000E+00 0. -1.
         -4    1    5    5    0  503 -0.14782606151E+03 -0.31121347632E+03 -0.48830457177E+03  0.59761837916E+03  0.00000000000E+00 0.  1.
         -1    1    6    6    0  502  0.10628028372E+03 -0.60680592599E+02  0.11016293445E+02  0.12287795468E+03  0.00000000000E+00 0.  1.
<mgrwt>
<rscale>  0 0.19601552E+04</rscale>
<asrwt>0</asrwt>
<pdfrwt beam="1">  1        2 0.12335703E+00 0.19601552E+04</pdfrwt>
<pdfrwt beam="2">  1       -2 0.18430211E+00 0.19601552E+04</pdfrwt>
<totfact> 0.54193292E+00</totfact>
</mgrwt>
</event>
<event>
12    1  0.1442183E-007  0.2169828E+04  0.7818608E-02  0.8531092E-01
          1   -1    0    0  501    0  0.00000000000E+00  0.00000000000E+00  0.17948713109E+04  0.17948713109E+04  0.00000000000E+00 0. -1.
         -1   -1    0    0    0  501 -0.00000000000E+00 -0.00000000000E+00 -0.65577897686E+03  0.65577897686E+03  0.00000000000E+00 0.  1.
         23    2    1    2    0    0  0.23190402269E+03  0.23946741091E+03  0.14095948694E+04  0.14512616807E+04  0.89881329643E+02 0.  0.
        254    2    1    2    0    0 -0.23190402269E+03 -0.23946741091E+03 -0.27050253536E+03  0.99938860705E+03  0.90248648169E+03 0.  0.
        -24    2    4    4    0    0 -0.91416307427E+02 -0.44782471905E+03 -0.47665990562E+03  0.66506948618E+03  0.78796164691E+02 0.  0.
         24    2    4    4    0    0 -0.14048771527E+03  0.20835730814E+03  0.20615737026E+03  0.33431912087E+03  0.78223060990E+02 0.  0.
         11    1    3    3    0    0  0.36579746332E+02  0.88927268922E+02  0.47828887833E+03  0.48785898386E+03  0.00000000000E+00 0.  1.
        -11    1    3    3    0    0  0.19532427636E+03  0.15054014199E+03  0.93130599104E+03  0.96340269681E+03  0.00000000000E+00 0. -1.
          2    1    6    6  502    0 -0.47060874255E+02  0.52368664667E+02  0.10449438544E+03  0.12600110917E+03  0.00000000000E+00 0. -1.
          3    1    5    5  503    0 -0.60852200498E+01 -0.28861576544E+02 -0.65742988295E+02  0.72056651418E+02  0.00000000000E+00 0. -1.
         -4    1    5    5    0  503 -0.85331087378E+02 -0.41896314251E+03 -0.41091691732E+03  0.59301283476E+03  0.00000000000E+00 0.  1.
         -1    1    6    6    0  502 -0.93426841011E+02  0.15598864348E+03  0.10166298482E+03  0.20831801170E+03  0.00000000000E+00 0.  1.
<mgrwt>
<rscale>  0 0.21698284E+04</rscale>
<asrwt>0</asrwt>
<pdfrwt beam="1">  1        1 0.27613405E+00 0.21698284E+04</pdfrwt>
<pdfrwt beam="2">  1       -1 0.10088907E+00 0.21698284E+04</pdfrwt>
<totfact> 0.35056908E+00</totfact>
</mgrwt>
</event>
<event>
12    1  0.1442183E-007  0.1511492E+04  0.7818608E-02  0.8876846E-01
         -1   -1    0    0    0  501 -0.00000000000E+00  0.00000000000E+00  0.61123626996E+03  0.61123626996E+03  0.00000000000E+00 0.  1.
          1   -1    0    0  501    0  0.00000000000E+00 -0.00000000000E+00 -0.93442141436E+03  0.93442141436E+03  0.00000000000E+00 0. -1.
         23    2    1    2    0    0  0.36989644662E+02  0.40440842759E+03  0.16889445205E+03  0.44908752927E+03  0.90773690519E+02 0.  0.
        254    2    1    2    0    0 -0.36989644662E+02 -0.40440842759E+03 -0.49207959645E+03  0.10965701551E+04  0.89185725630E+03 0.  0.
        -24    2    4    4    0    0  0.77478420591E+00 -0.19549397376E+03  0.24587813573E+03  0.32467422886E+03  0.82090213727E+02 0.  0.
         24    2    4    4    0    0 -0.37764428868E+02 -0.20891445383E+03 -0.73795773218E+03  0.77189592620E+03  0.78551290918E+02 0.  0.
         11    1    3    3    0    0  0.50097028570E+02  0.25218689497E+03  0.67864180693E+02  0.26592008064E+03  0.00000000000E+00 0.  1.
        -11    1    3    3    0    0 -0.13107383908E+02  0.15222153262E+03  0.10103027135E+03  0.18316744863E+03  0.00000000000E+00 0. -1.
          4    1    6    6  502    0 -0.24453386901E+02 -0.17273210846E+03 -0.68188864295E+03  0.70385117092E+03  0.00000000000E+00 0. -1.
          3    1    5    5  503    0  0.28429515217E+02 -0.57846804720E+02  0.11950140273E+03  0.13577582777E+03  0.00000000000E+00 0. -1.
         -4    1    5    5    0  503 -0.27654731011E+02 -0.13764716904E+03  0.12637673300E+03  0.18889840109E+03  0.00000000000E+00 0.  1.
         -3    1    6    6    0  502 -0.13311041967E+02 -0.36182345372E+02 -0.56069089230E+02  0.68044755286E+02  0.00000000000E+00 0.  1.
<mgrwt>
<rscale>  0 0.15114923E+04</rscale>
<asrwt>0</asrwt>
<pdfrwt beam="1">  1        1 0.14375714E+00 0.15114923E+04</pdfrwt>
<pdfrwt beam="2">  1       -1 0.94036350E-01 0.15114923E+04</pdfrwt>
<totfact> 0.18068130E+01</totfact>
</mgrwt>
</event>
<event>
12    1  0.1442183E-007  0.2330240E+04  0.7818608E-02  0.8466093E-01
          2   -1    0    0  501    0  0.00000000000E+00  0.00000000000E+00  0.12183517621E+04  0.12183517621E+04  0.00000000000E+00 0.  1.
         -2   -1    0    0    0  501 -0.00000000000E+00 -0.00000000000E+00 -0.11142136080E+04  0.11142136080E+04  0.00000000000E+00 0. -1.
         23    2    1    2    0    0 -0.63869480081E+03 -0.74088584976E+01 -0.70656207460E+03  0.95707064889E+03  0.93639318388E+02 0.  0.
        254    2    1    2    0    0  0.63869480081E+03  0.74088584976E+01  0.81070022864E+03  0.13754947212E+04  0.90926614779E+03 0.  0.
        -24    2    4    4    0    0  0.39724698912E+03 -0.19984828598E+03 -0.49779873836E+02  0.45448725207E+03  0.79599740468E+02 0.  0.
         24    2    4    4    0    0  0.24144781169E+03  0.20725714448E+03  0.86048010247E+03  0.92100746911E+03  0.81093660011E+02 0.  0.
         11    1    3    3    0    0 -0.33521805967E+03 -0.34501848214E+00 -0.30129540022E+03  0.45072184855E+03  0.00000000000E+00 0. -1.
        -11    1    3    3    0    0 -0.30347674114E+03 -0.70638400154E+01 -0.40526667438E+03  0.50634880034E+03  0.00000000000E+00 0.  1.
          2    1    6    6  502    0  0.22939137382E+03  0.19304598912E+03  0.72946896499E+03  0.78867745446E+03  0.00000000000E+00 0. -1.
          1    1    5    5  503    0  0.37085372910E+03 -0.18283990555E+03 -0.24544754113E+02  0.41420449588E+03  0.00000000000E+00 0. -1.
         -2    1    5    5    0  503  0.26393260019E+02 -0.17008380431E+02 -0.25235119723E+02  0.40282756196E+02  0.00000000000E+00 0.  1.
         -1    1    6    6    0  502  0.12056437871E+02  0.14211155354E+02  0.13101113748E+03  0.13233001464E+03  0.00000000000E+00 0.  1.
<mgrwt>
<rscale>  0 0.23302396E+04</rscale>
<asrwt>0</asrwt>
<pdfrwt beam="1">  1        2 0.18743873E+00 0.23302396E+04</pdfrwt>
<pdfrwt beam="2">  1       -2 0.17141748E+00 0.23302396E+04</pdfrwt>
<totfact> 0.34784876E+00</totfact>
</mgrwt>
</event>
<event>
12    1  0.1442183E-007  0.1562959E+04  0.7818608E-02  0.8843632E-01
          1   -1    0    0  501    0  0.00000000000E+00  0.00000000000E+00  0.20883139695E+04  0.20883139695E+04  0.00000000000E+00 0. -1.
         -1   -1    0    0    0  501 -0.00000000000E+00 -0.00000000000E+00 -0.29244186509E+03  0.29244186509E+03  0.00000000000E+00 0.  1.
         23    2    1    2    0    0  0.24212082074E+02  0.51718187473E+03  0.67073037425E+03  0.85222842557E+03  0.91382372111E+02 0.  0.
        254    2    1    2    0    0 -0.24212082074E+02 -0.51718187473E+03  0.11251417302E+04  0.15285274090E+04  0.89576158139E+03 0.  0.
        -24    2    4    4    0    0  0.23099732553E+03  0.92120773603E+02  0.53098742590E+02  0.26671121345E+03  0.80432540563E+02 0.  0.
         24    2    4    4    0    0 -0.25520940761E+03 -0.60930264834E+03  0.10720429876E+04  0.12618161956E+04  0.80761285249E+02 0.  0.
         11    1    3    3    0    0  0.36631347799E+02  0.45849421547E+03  0.62867395225E+03  0.77896709783E+03  0.00000000000E+00 0.  1.
        -11    1    3    3    0    0 -0.12419265725E+02  0.58687659260E+02  0.42056422005E+02  0.73261327741E+02  0.00000000000E+00 0. -1.
          2    1    6    6  502    0 -0.21688126002E+03 -0.53989287012E+03  0.98556302311E+03  0.11444895214E+04  0.00000000000E+00 0. -1.
          1    1    5    5  503    0  0.17043753431E+03  0.10046185282E+03  0.24946354104E+02  0.19940877001E+03  0.00000000000E+00 0. -1.
         -2    1    5    5    0  503  0.60559791225E+02 -0.83410792141E+01  0.28152388486E+02  0.67302443441E+02  0.00000000000E+00 0.  1.
         -1    1    6    6    0  502 -0.38328147588E+02 -0.69409778216E+02  0.86479964456E+02  0.11732667413E+03  0.00000000000E+00 0.  1.
<mgrwt>
<rscale>  0 0.15629593E+04</rscale>
<asrwt>0</asrwt>
<pdfrwt beam="1">  1        1 0.32127906E+00 0.15629593E+04</pdfrwt>
<pdfrwt beam="2">  1       -1 0.44991058E-01 0.15629593E+04</pdfrwt>
<totfact> 0.12247053E+01</totfact>
</mgrwt>
</event>
<event>
12    1  0.1442183E-007  0.1136367E+04  0.7818608E-02  0.9170453E-01
          2   -1    0    0  501    0  0.00000000000E+00  0.00000000000E+00  0.17893186112E+04  0.17893186112E+04  0.00000000000E+00 0. -1.
         -2   -1    0    0    0  501 -0.00000000000E+00 -0.00000000000E+00 -0.18042210520E+03  0.18042210520E+03  0.00000000000E+00 0.  1.
         23    2    1    2    0    0  0.28305288383E+02 -0.19174464253E+03  0.41567502818E+03  0.46751663113E+03  0.90658005937E+02 0.  0.
        254    2    1    2    0    0 -0.28305288383E+02  0.19174464253E+03  0.11932214778E+04  0.15022240853E+04  0.89181416785E+03 0.  0.
        -24    2    4    4    0    0  0.30209787178E+03  0.22668610438E+03  0.10720758594E+04  0.11395078452E+04  0.80509420124E+02 0.  0.
         24    2    4    4    0    0 -0.33040316016E+03 -0.34941461846E+02  0.12114561839E+03  0.36271624013E+03  0.80620444034E+02 0.  0.
         11    1    3    3    0    0  0.12659094087E+02 -0.19582184910E+03  0.36613721276E+03  0.41540691835E+03  0.00000000000E+00 0. -1.
        -11    1    3    3    0    0  0.15646194296E+02  0.40772065636E+01  0.49537815417E+02  0.52109712776E+02  0.00000000000E+00 0.  1.
          2    1    6    6  502    0 -0.12312542042E+03 -0.34288550374E+02  0.11773872877E+02  0.12835185204E+03  0.00000000000E+00 0. -1.
          3    1    5    5  503    0  0.31117419793E+02  0.49175683325E+02  0.23062660685E+03  0.23785536242E+03  0.00000000000E+00 0. -1.
         -4    1    5    5    0  503  0.27098045199E+03  0.17751042105E+03  0.84144925260E+03  0.90165248275E+03  0.00000000000E+00 0.  1.
         -1    1    6    6    0  502 -0.20727773974E+03 -0.65291147166E+00  0.10937174551E+03  0.23436438808E+03  0.00000000000E+00 0.  1.
<mgrwt>
<rscale>  0 0.11363672E+04</rscale>
<asrwt>0</asrwt>
<pdfrwt beam="1">  1        2 0.27527977E+00 0.11363672E+04</pdfrwt>
<pdfrwt beam="2">  1       -2 0.27757248E-01 0.11363672E+04</pdfrwt>
<totfact> 0.10269465E+02</totfact>
</mgrwt>
</event>
<event>
12    1  0.1442183E-007  0.1231367E+04  0.7818608E-02  0.9085835E-01
          3   -1    0    0  501    0  0.00000000000E+00  0.00000000000E+00  0.13448900782E+04  0.13448900782E+04  0.00000000000E+00 0. -1.
         -3   -1    0    0    0  501 -0.00000000000E+00 -0.00000000000E+00 -0.28185682470E+03  0.28185682470E+03  0.00000000000E+00 0.  1.
         23    2    1    2    0    0 -0.18584746613E+03  0.14104405732E+03  0.53042125220E+02  0.25658825364E+03  0.92689579175E+02 0.  0.
        254    2    1    2    0    0  0.18584746613E+03 -0.14104405732E+03  0.10099911283E+04  0.13701586493E+04  0.89600219763E+03 0.  0.
        -24    2    4    4    0    0 -0.34366373919E+03 -0.15238888659E+02  0.26140553378E+03  0.44119497875E+03  0.89348569238E+02 0.  0.
         24    2    4    4    0    0  0.52951120532E+03 -0.12580516866E+03  0.74858559449E+03  0.92896367050E+03  0.79900261638E+02 0.  0.
         13    1    3    3    0    0 -0.43127709959E+02 -0.88884476688E+01  0.83289169539E+01  0.44814894018E+02  0.00000000000E+00 0. -1.
        -13    1    3    3    0    0 -0.14271975618E+03  0.14993250498E+03  0.44713208266E+02  0.21177335963E+03  0.00000000000E+00 0.  1.
          4    1    6    6  502    0  0.49097077839E+03 -0.93574223828E+02  0.67715909141E+03  0.84163702134E+03  0.00000000000E+00 0. -1.
          1    1    5    5  503    0 -0.27244981615E+03 -0.39881974855E+02  0.23285071813E+03  0.36060911133E+03  0.00000000000E+00 0. -1.
         -2    1    5    5    0  503 -0.71213923040E+02  0.24643086195E+02  0.28554815650E+02  0.80585867426E+02  0.00000000000E+00 0.  1.
         -3    1    6    6    0  502  0.38540426928E+02 -0.32230944828E+02  0.71426503082E+02  0.87326649167E+02  0.00000000000E+00 0.  1.
<mgrwt>
<rscale>  0 0.12313674E+04</rscale>
<asrwt>0</asrwt>
<pdfrwt beam="1">  1        3 0.20690616E+00 0.12313674E+04</pdfrwt>
<pdfrwt beam="2">  1       -3 0.43362589E-01 0.12313674E+04</pdfrwt>
<totfact> 0.18252750E+00</totfact>
</mgrwt>
</event>
<event>
12    1  0.1442183E-007  0.1421938E+04  0.7818608E-02  0.8938090E-01
         -1   -1    0    0    0  501 -0.00000000000E+00  0.00000000000E+00  0.39015752566E+03  0.39015752566E+03  0.00000000000E+00 0.  1.
          1   -1    0    0  501    0  0.00000000000E+00 -0.00000000000E+00 -0.12955707721E+04  0.12955707721E+04  0.00000000000E+00 0. -1.
         23    2    1    2    0    0  0.10255102523E+03 -0.95007376473E+02 -0.75705579392E+03  0.77568396264E+03  0.94915859680E+02 0.  0.
        254    2    1    2    0    0 -0.10255102523E+03  0.95007376473E+02 -0.14835745248E+03  0.91004433509E+03  0.88692031421E+03 0.  0.
        -24    2    4    4    0    0 -0.11786942982E+03  0.16841433453E+03 -0.49758229596E+03  0.54439775121E+03  0.80772394430E+02 0.  0.
         24    2    4    4    0    0  0.15318404596E+02 -0.73406958058E+02  0.34922484348E+03  0.36564658388E+03  0.78206125005E+02 0.  0.
         13    1    3    3    0    0 -0.18158089436E+02 -0.12107666579E+02 -0.76495111609E+02  0.79547557486E+02  0.00000000000E+00 0.  1.
        -13    1    3    3    0    0  0.12070911466E+03 -0.82899709894E+02 -0.68056068231E+03  0.69613640515E+03  0.00000000000E+00 0. -1.
          2    1    6    6  502    0  0.59695750072E+01  0.28238448889E+01 -0.13646889412E+01  0.67433153293E+01  0.00000000000E+00 0. -1.
          1    1    5    5  503    0 -0.73944524371E+02  0.93704797211E+02 -0.18616874389E+03  0.22114968439E+03  0.00000000000E+00 0. -1.
         -2    1    5    5    0  503 -0.43924905452E+02  0.74709537320E+02 -0.31141355208E+03  0.32324806682E+03  0.00000000000E+00 0.  1.
         -1    1    6    6    0  502  0.93488295893E+01 -0.76230802947E+02  0.35058953242E+03  0.35890326855E+03  0.00000000000E+00 0.  1.
<mgrwt>
<rscale>  0 0.14219377E+04</rscale>
<asrwt>0</asrwt>
<pdfrwt beam="1">  1        1 0.19931858E+00 0.14219377E+04</pdfrwt>
<pdfrwt beam="2">  1       -1 0.60024236E-01 0.14219377E+04</pdfrwt>
<totfact> 0.24959648E+01</totfact>
</mgrwt>
</event>
<event>
12    1  0.1442183E-007  0.1234862E+04  0.7818608E-02  0.9082877E-01
         -1   -1    0    0    0  501 -0.00000000000E+00  0.00000000000E+00  0.12186633918E+03  0.12186633918E+03  0.00000000000E+00 0.  1.
          1   -1    0    0  501    0  0.00000000000E+00 -0.00000000000E+00 -0.31281908421E+04  0.31281908421E+04  0.00000000000E+00 0. -1.
         23    2    1    2    0    0  0.19249086441E+03  0.15978276627E+03 -0.41053632851E+03  0.49004814709E+03  0.94993916445E+02 0.  0.
        254    2    1    2    0    0 -0.19249086441E+03 -0.15978276627E+03 -0.25957881744E+04  0.27600090342E+04  0.90385306171E+03 0.  0.
        -24    2    4    4    0    0 -0.18060294047E+03 -0.45752307292E+03 -0.83599429574E+03  0.97331296433E+03  0.80665231983E+02 0.  0.
         24    2    4    4    0    0 -0.11887923939E+02  0.29774030665E+03 -0.17597938787E+04  0.17866960699E+04  0.81349479165E+02 0.  0.
         11    1    3    3    0    0  0.16773162190E+03  0.11455540563E+03 -0.37789437336E+03  0.42902330398E+03  0.00000000000E+00 0.  1.
        -11    1    3    3    0    0  0.24759242507E+02  0.45227360639E+02 -0.32641955150E+02  0.61024843104E+02  0.00000000000E+00 0. -1.
          2    1    6    6  502    0 -0.19162400342E+02  0.29543282851E+03 -0.16292804353E+04  0.16559596887E+04  0.00000000000E+00 0. -1.
          1    1    5    5  503    0 -0.14150487825E+03 -0.25504544479E+03 -0.46684449594E+03  0.55046852123E+03  0.00000000000E+00 0. -1.
         -2    1    5    5    0  503 -0.39098062220E+02 -0.20247762813E+03 -0.36914979980E+03  0.42284444310E+03  0.00000000000E+00 0.  1.
         -1    1    6    6    0  502  0.72744764022E+01  0.23074781419E+01 -0.13051344338E+03  0.13073638118E+03  0.00000000000E+00 0.  1.
<mgrwt>
<rscale>  0 0.12348622E+04</rscale>
<asrwt>0</asrwt>
<pdfrwt beam="1">  1        1 0.48126012E+00 0.12348622E+04</pdfrwt>
<pdfrwt beam="2">  1       -1 0.18748668E-01 0.12348622E+04</pdfrwt>
<totfact> 0.10971477E+01</totfact>
</mgrwt>
</event>
<event>
12    1  0.1442183E-007  0.1497421E+04  0.7818608E-02  0.8886170E-01
          2   -1    0    0  501    0  0.00000000000E+00  0.00000000000E+00  0.56970300006E+03  0.56970300006E+03  0.00000000000E+00 0. -1.
         -2   -1    0    0    0  501 -0.00000000000E+00 -0.00000000000E+00 -0.98396467746E+03  0.98396467746E+03  0.00000000000E+00 0.  1.
         23    2    1    2    0    0  0.24559745243E+03 -0.36044821332E+03  0.56753325919E+02  0.44800383706E+03  0.85120355307E+02 0.  0.
        254    2    1    2    0    0 -0.24559745243E+03  0.36044821332E+03 -0.47101500332E+03  0.11056638405E+04  0.90022017953E+03 0.  0.
        -24    2    4    4    0    0  0.24662373300E+03  0.17856962438E+03 -0.48089163694E+03  0.57470273889E+03  0.79473864811E+02 0.  0.
         24    2    4    4    0    0 -0.49222118543E+03  0.18187858894E+03  0.98766336171E+01  0.53096110157E+03  0.80378025538E+02 0.  0.
         11    1    3    3    0    0  0.19490652404E+03 -0.33165514588E+03  0.37049777293E+02  0.38646652495E+03  0.00000000000E+00 0.  1.
        -11    1    3    3    0    0  0.50690928388E+02 -0.28793067433E+02  0.19703548626E+02  0.61537312108E+02  0.00000000000E+00 0. -1.
          4    1    6    6  502    0 -0.43183799898E+03  0.13149396405E+03  0.18851110194E+02  0.45180757442E+03  0.00000000000E+00 0. -1.
          1    1    5    5  503    0  0.19355034997E+03  0.16056361693E+03 -0.43414614381E+03  0.50172232085E+03  0.00000000000E+00 0. -1.
         -2    1    5    5    0  503  0.53073383027E+02  0.18006007451E+02 -0.46745493131E+02  0.72980418047E+02  0.00000000000E+00 0.  1.
         -3    1    6    6    0  502 -0.60383186444E+02  0.50384624888E+02 -0.89744765772E+01  0.79153527149E+02  0.00000000000E+00 0.  1.
<mgrwt>
<rscale>  0 0.14974213E+04</rscale>
<asrwt>0</asrwt>
<pdfrwt beam="1">  1        2 0.87646616E-01 0.14974213E+04</pdfrwt>
<pdfrwt beam="2">  1       -2 0.15137918E+00 0.14974213E+04</pdfrwt>
<totfact> 0.14905865E+01</totfact>
</mgrwt>
</event>
<event>
12    1  0.1442183E-007  0.1469760E+04  0.7818608E-02  0.8904815E-01
          2   -1    0    0  501    0  0.00000000000E+00  0.00000000000E+00  0.32667126576E+04  0.32667126576E+04  0.00000000000E+00 0. -1.
         -2   -1    0    0    0  501 -0.00000000000E+00 -0.00000000000E+00 -0.16531874944E+03  0.16531874944E+03  0.00000000000E+00 0.  1.
         23    2    1    2    0    0 -0.41468316835E+02  0.24892667133E+03  0.93566455053E+02  0.28433106479E+03  0.91680771658E+02 0.  0.
        254    2    1    2    0    0  0.41468316835E+02 -0.24892667133E+03  0.30078274531E+04  0.31477003423E+04  0.89292068402E+03 0.  0.
        -24    2    4    4    0    0  0.23170069212E+03 -0.41805474371E+03  0.89184768276E+03  0.10149855755E+04  0.79677160192E+02 0.  0.
         24    2    4    4    0    0 -0.19023237528E+03  0.16912807238E+03  0.21159797703E+04  0.21327147667E+04  0.79430637250E+02 0.  0.
         11    1    3    3    0    0 -0.33111632428E+02  0.88028614131E+02 -0.71579170055E+01  0.94322069972E+02  0.00000000000E+00 0.  1.
        -11    1    3    3    0    0 -0.83566844074E+01  0.16089805720E+03  0.10072437206E+03  0.19000899481E+03  0.00000000000E+00 0. -1.
          4    1    6    6  502    0  0.31899593069E+01  0.36804280408E+01  0.18109271941E+03  0.18115820272E+03  0.00000000000E+00 0. -1.
          3    1    5    5  503    0  0.72758080011E+02 -0.17170132573E+03  0.41900532650E+03  0.45862898633E+03  0.00000000000E+00 0. -1.
         -4    1    5    5    0  503  0.15894261211E+03 -0.24635341798E+03  0.47284235626E+03  0.55635658922E+03  0.00000000000E+00 0.  1.
         -3    1    6    6    0  502 -0.19342233459E+03  0.16544764434E+03  0.19348870509E+04  0.19515565640E+04  0.00000000000E+00 0.  1.
<mgrwt>
<rscale>  0 0.14697603E+04</rscale>
<asrwt>0</asrwt>
<pdfrwt beam="1">  1        2 0.50257113E+00 0.14697603E+04</pdfrwt>
<pdfrwt beam="2">  1       -2 0.25433656E-01 0.14697603E+04</pdfrwt>
<totfact> 0.15962865E+01</totfact>
</mgrwt>
</event>
<event>
12    1  0.1442183E-007  0.1372024E+04  0.7818608E-02  0.8974321E-01
          2   -1    0    0  501    0  0.00000000000E+00  0.00000000000E+00  0.78434707868E+03  0.78434707868E+03  0.00000000000E+00 0. -1.
         -2   -1    0    0    0  501 -0.00000000000E+00 -0.00000000000E+00 -0.60000565096E+03  0.60000565096E+03  0.00000000000E+00 0.  1.
         23    2    1    2    0    0  0.72315024076E+02 -0.38397779085E+02 -0.31752464517E+03  0.34070284922E+03  0.92480695461E+02 0.  0.
        254    2    1    2    0    0 -0.72315024076E+02  0.38397779085E+02  0.50186607289E+03  0.10436498804E+04  0.91138996354E+03 0.  0.
        -24    2    4    4    0    0 -0.31994560573E+03  0.33142891049E+03  0.44874645982E+03  0.64786899325E+03  0.78425339559E+02 0.  0.
         24    2    4    4    0    0  0.24763058165E+03 -0.29303113140E+03  0.53119613077E+02  0.39578088717E+03  0.81441196086E+02 0.  0.
         13    1    3    3    0    0  0.64654265415E+02 -0.37068419297E+02 -0.10905340209E+03  0.13208666190E+03  0.00000000000E+00 0. -1.
        -13    1    3    3    0    0  0.76607586611E+01 -0.13293597885E+01 -0.20847124308E+03  0.20861618732E+03  0.00000000000E+00 0.  1.
          2    1    6    6  502    0  0.56572812113E+01 -0.24291298333E+02  0.21229597896E+02  0.32753134693E+02  0.00000000000E+00 0. -1.
          3    1    5    5  503    0 -0.63854153219E+02  0.10994159725E+03  0.14682245368E+03  0.19421982544E+03  0.00000000000E+00 0. -1.
         -4    1    5    5    0  503 -0.25609145251E+03  0.22148731323E+03  0.30192400614E+03  0.45364916781E+03  0.00000000000E+00 0.  1.
         -1    1    6    6    0  502  0.24197330044E+03 -0.26873983307E+03  0.31890015182E+02  0.36302775248E+03  0.00000000000E+00 0.  1.
<mgrwt>
<rscale>  0 0.13720243E+04</rscale>
<asrwt>0</asrwt>
<pdfrwt beam="1">  1        2 0.12066878E+00 0.13720243E+04</pdfrwt>
<pdfrwt beam="2">  1       -2 0.92308562E-01 0.13720243E+04</pdfrwt>
<totfact> 0.34380449E+01</totfact>
</mgrwt>
</event>
<event>
12    1  0.1442183E-007  0.2201178E+04  0.7818608E-02  0.8517938E-01
         -1   -1    0    0    0  501 -0.00000000000E+00  0.00000000000E+00  0.97356126426E+03  0.97356126426E+03  0.00000000000E+00 0.  1.
          1   -1    0    0  501    0  0.00000000000E+00 -0.00000000000E+00 -0.12441914954E+04  0.12441914954E+04  0.00000000000E+00 0. -1.
         23    2    1    2    0    0 -0.26861626694E+03 -0.59442317467E+03  0.53083635406E+03  0.84632534852E+03  0.94793202864E+02 0.  0.
        254    2    1    2    0    0  0.26861626694E+03  0.59442317467E+03 -0.80146658525E+03  0.13714274112E+04  0.90164896021E+03 0.  0.
        -24    2    4    4    0    0  0.47419423095E+03  0.15469038069E+02 -0.45220162035E+03  0.66038887042E+03  0.80794151532E+02 0.  0.
         24    2    4    4    0    0 -0.20557796401E+03  0.57895413660E+03 -0.34926496490E+03  0.71103854077E+03  0.78355594437E+02 0.  0.
         13    1    3    3    0    0 -0.26542160144E+03 -0.51801423207E+03  0.48058331036E+03  0.75481632821E+03  0.00000000000E+00 0.  1.
        -13    1    3    3    0    0 -0.31946654975E+01 -0.76408942601E+02  0.50253043704E+02  0.91509020313E+02  0.00000000000E+00 0. -1.
          4    1    6    6  502    0 -0.12346031009E+03  0.44138474135E+03 -0.27446912504E+03  0.53422489521E+03  0.00000000000E+00 0. -1.
          1    1    5    5  503    0  0.80230346051E+02 -0.25625211599E+02 -0.64062570584E+02  0.10581858460E+03  0.00000000000E+00 0. -1.
         -2    1    5    5    0  503  0.39396388490E+03  0.41094249668E+02 -0.38813904976E+03  0.55457028582E+03  0.00000000000E+00 0.  1.
         -3    1    6    6    0  502 -0.82117653922E+02  0.13756939525E+03 -0.74795839864E+02  0.17681364556E+03  0.00000000000E+00 0.  1.
<mgrwt>
<rscale>  0 0.22011785E+04</rscale>
<asrwt>0</asrwt>
<pdfrwt beam="1">  1        1 0.19141408E+00 0.22011785E+04</pdfrwt>
<pdfrwt beam="2">  1       -1 0.14977866E+00 0.22011785E+04</pdfrwt>
<totfact> 0.31688670E+00</totfact>
</mgrwt>
</event>
<event>
12    1  0.1442183E-007  0.1535815E+04  0.7818608E-02  0.8860980E-01
          2   -1    0    0  501    0  0.00000000000E+00  0.00000000000E+00  0.88638138238E+03  0.88638138238E+03  0.00000000000E+00 0. -1.
         -2   -1    0    0    0  501 -0.00000000000E+00 -0.00000000000E+00 -0.66526873500E+03  0.66526873500E+03  0.00000000000E+00 0.  1.
         23    2    1    2    0    0  0.35283708756E+03  0.26744478031E+03 -0.16068710822E+03  0.48364634449E+03  0.10987592509E+03 0.  0.
        254    2    1    2    0    0 -0.35283708756E+03 -0.26744478031E+03  0.38179975560E+03  0.10680037729E+04  0.89377865530E+03 0.  0.
        -24    2    4    4    0    0  0.21347081904E+02 -0.10954778511E+03 -0.26593814428E+03  0.29940253600E+03  0.80388847800E+02 0.  0.
         24    2    4    4    0    0 -0.37418416947E+03 -0.15789699520E+03  0.64773789989E+03  0.76860123689E+03  0.78982407122E+02 0.  0.
         11    1    3    3    0    0  0.14876532839E+03  0.18154488976E+03 -0.86151682599E+02  0.25002356358E+03  0.00000000000E+00 0. -1.
        -11    1    3    3    0    0  0.20407175917E+03  0.85899890550E+02 -0.74535425625E+02  0.23362278091E+03  0.00000000000E+00 0.  1.
          4    1    6    6  502    0 -0.70404831121E+02 -0.63882411168E+02  0.16822361976E+03  0.19322781618E+03  0.00000000000E+00 0. -1.
          3    1    5    5  503    0 -0.87800111551E+01 -0.73590430530E+02 -0.22584141018E+03  0.23769093928E+03  0.00000000000E+00 0. -1.
         -4    1    5    5    0  503  0.30127093059E+02 -0.35957354579E+02 -0.40096734101E+02  0.61711596723E+02  0.00000000000E+00 0.  1.
         -3    1    6    6    0  502 -0.30377933835E+03 -0.94014584034E+02  0.47951428012E+03  0.57537342071E+03  0.00000000000E+00 0.  1.
<mgrwt>
<rscale>  0 0.15358149E+04</rscale>
<asrwt>0</asrwt>
<pdfrwt beam="1">  1        2 0.13636637E+00 0.15358149E+04</pdfrwt>
<pdfrwt beam="2">  1       -2 0.10234904E+00 0.15358149E+04</pdfrwt>
<totfact> 0.22562308E+01</totfact>
</mgrwt>
</event>
<event>
12    1  0.1442183E-007  0.1794455E+04  0.7818608E-02  0.8709254E-01
         -2   -1    0    0    0  501 -0.00000000000E+00  0.00000000000E+00  0.12190768802E+04  0.12190768802E+04  0.00000000000E+00 0.  1.
          2   -1    0    0  501    0  0.00000000000E+00 -0.00000000000E+00 -0.66034953012E+03  0.66034953012E+03  0.00000000000E+00 0. -1.
         23    2    1    2    0    0  0.45030382452E+03  0.12747254874E+03 -0.28204419951E+03  0.55255494286E+03  0.82129466913E+02 0.  0.
        254    2    1    2    0    0 -0.45030382452E+03 -0.12747254874E+03  0.84077154961E+03  0.13268714675E+04  0.91360183206E+03 0.  0.
        -24    2    4    4    0    0 -0.61562001857E+03 -0.15883803574E+03  0.21784515110E+03  0.67679798963E+03  0.79884166497E+02 0.  0.
         24    2    4    4    0    0  0.16531619404E+03  0.31365487003E+02  0.62292639851E+03  0.65007347786E+03  0.79025254607E+02 0.  0.
         11    1    3    3    0    0  0.41696769584E+03  0.12703707496E+03 -0.23590911109E+03  0.49563452915E+03  0.00000000000E+00 0. -1.
        -11    1    3    3    0    0  0.33336128683E+02  0.43547377348E+00 -0.46135088422E+02  0.56920413708E+02  0.00000000000E+00 0.  1.
          2    1    6    6  502    0  0.11940677811E+03  0.25402309969E+02  0.30066523636E+03  0.32450399129E+03  0.00000000000E+00 0. -1.
          3    1    5    5  503    0 -0.47795249804E+03 -0.15192633419E+03  0.15205879861E+03  0.52406304929E+03  0.00000000000E+00 0. -1.
         -4    1    5    5    0  503 -0.13766752053E+03 -0.69117015528E+01  0.65786352490E+02  0.15273494034E+03  0.00000000000E+00 0.  1.
         -1    1    6    6    0  502  0.45909415938E+02  0.59631770333E+01  0.32226116215E+03  0.32556948657E+03  0.00000000000E+00 0.  1.
<mgrwt>
<rscale>  0 0.17944546E+04</rscale>
<asrwt>0</asrwt>
<pdfrwt beam="1">  1        2 0.10159224E+00 0.17944546E+04</pdfrwt>
<pdfrwt beam="2">  1       -2 0.18755029E+00 0.17944546E+04</pdfrwt>
<totfact> 0.66991296E+00</totfact>
</mgrwt>
</event>
<event>
12    1  0.1442183E-007  0.2011571E+04  0.7818608E-02  0.8601230E-01
         -2   -1    0    0    0  501 -0.00000000000E+00  0.00000000000E+00  0.45546600858E+03  0.45546600858E+03  0.00000000000E+00 0.  1.
          2   -1    0    0  501    0  0.00000000000E+00 -0.00000000000E+00 -0.22210309466E+04  0.22210309466E+04  0.00000000000E+00 0. -1.
         23    2    1    2    0    0  0.28597204670E+03  0.70497028339E+03 -0.98914360926E+03  0.12518370340E+04  0.99638185833E+02 0.  0.
        254    2    1    2    0    0 -0.28597204670E+03 -0.70497028339E+03 -0.77642132875E+03  0.14246599211E+04  0.92090319753E+03 0.  0.
        -24    2    4    4    0    0 -0.36215988806E+03 -0.12816906323E+02 -0.59455417809E+03  0.70044095716E+03  0.76149892827E+02 0.  0.
         24    2    4    4    0    0  0.76187841359E+02 -0.69215337707E+03 -0.18186715066E+03  0.72421896398E+03  0.80849012037E+02 0.  0.
         13    1    3    3    0    0  0.28776905497E+03  0.64053765541E+03 -0.89165655235E+03  0.11349673671E+04  0.00000000000E+00 0. -1.
        -13    1    3    3    0    0 -0.17970082772E+01  0.64432627978E+02 -0.97487056902E+02  0.11686966694E+03  0.00000000000E+00 0.  1.
          2    1    6    6  502    0  0.59462846193E+02 -0.30733922859E+03 -0.49477807974E+02  0.31692473079E+03  0.00000000000E+00 0. -1.
          1    1    5    5  503    0 -0.21471560844E+03 -0.23125640292E+02 -0.28661594422E+03  0.35886806382E+03  0.00000000000E+00 0. -1.
         -2    1    5    5    0  503 -0.14744427961E+03  0.10308733969E+02 -0.30793823386E+03  0.34157289334E+03  0.00000000000E+00 0.  1.
         -1    1    6    6    0  502  0.16724995166E+02 -0.38481414848E+03 -0.13238934269E+03  0.40729423319E+03  0.00000000000E+00 0.  1.
<mgrwt>
<rscale>  0 0.20115706E+04</rscale>
<asrwt>0</asrwt>
<pdfrwt beam="1">  1        2 0.34169708E+00 0.20115706E+04</pdfrwt>
<pdfrwt beam="2">  1       -2 0.70071692E-01 0.20115706E+04</pdfrwt>
<totfact> 0.86509534E+00</totfact>
</mgrwt>
</event>
<event>
12    1  0.1442183E-007  0.1630726E+04  0.7818608E-02  0.8801891E-01
         -2   -1    0    0    0  501 -0.00000000000E+00  0.00000000000E+00  0.24175010049E+03  0.24175010049E+03  0.00000000000E+00 0. -1.
          2   -1    0    0  501    0  0.00000000000E+00 -0.00000000000E+00 -0.27500182457E+04  0.27500182457E+04  0.00000000000E+00 0.  1.
         23    2    1    2    0    0  0.39826474408E+03 -0.67261301396E+01 -0.14245528083E+03  0.43255259369E+03  0.90267336650E+02 0.  0.
        254    2    1    2    0    0 -0.39826474408E+03  0.67261301396E+01 -0.23658128644E+04  0.25592157525E+04  0.89098524760E+03 0.  0.
        -24    2    4    4    0    0 -0.26710533720E+03  0.81312457988E+02 -0.13160441571E+03  0.31848628374E+03  0.78465366341E+02 0.  0.
         24    2    4    4    0    0 -0.13115940688E+03 -0.74586327849E+02 -0.22342084487E+04  0.22407294688E+04  0.80095254374E+02 0.  0.
         11    1    3    3    0    0  0.47872038949E+02 -0.27713040077E+02 -0.48621643645E+01  0.55528239174E+02  0.00000000000E+00 0.  1.
        -11    1    3    3    0    0  0.35039270513E+03  0.20986909938E+02 -0.13759311646E+03  0.37702435451E+03  0.00000000000E+00 0. -1.
          2    1    6    6  502    0 -0.10887420149E+03 -0.83120718346E+02 -0.20963942336E+04  0.21008644478E+04  0.00000000000E+00 0. -1.
          3    1    5    5  503    0 -0.26174048073E+03  0.68570951084E+02 -0.13744086163E+03  0.30347989230E+03  0.00000000000E+00 0. -1.
         -4    1    5    5    0  503 -0.53648564636E+01  0.12741506904E+02  0.58364459202E+01  0.15006391439E+02  0.00000000000E+00 0.  1.
         -1    1    6    6    0  502 -0.22285205395E+02  0.85343904970E+01 -0.13781421509E+03  0.13986502094E+03  0.00000000000E+00 0.  1.
<mgrwt>
<rscale>  0 0.16307264E+04</rscale>
<asrwt>0</asrwt>
<pdfrwt beam="1">  1        2 0.42307973E+00 0.16307264E+04</pdfrwt>
<pdfrwt beam="2">  1       -2 0.37192323E-01 0.16307264E+04</pdfrwt>
<totfact> 0.16217853E+01</totfact>
</mgrwt>
</event>
<event>
12    1  0.1442183E-007  0.2067842E+04  0.7818608E-02  0.8575543E-01
          2   -1    0    0  501    0  0.00000000000E+00  0.00000000000E+00  0.49302523997E+03  0.49302523997E+03  0.00000000000E+00 0. -1.
         -2   -1    0    0    0  501 -0.00000000000E+00 -0.00000000000E+00 -0.21682318265E+04  0.21682318265E+04  0.00000000000E+00 0.  1.
         23    2    1    2    0    0  0.11038868871E+03  0.22261920341E+03  0.34613167291E+03  0.43387890393E+03  0.81846172599E+02 0.  0.
        254    2    1    2    0    0 -0.11038868871E+03 -0.22261920341E+03 -0.20213382594E+04  0.22273781625E+04  0.90203112340E+03 0.  0.
        -24    2    4    4    0    0 -0.47709977366E+03 -0.10549797676E+02 -0.83732994585E+03  0.96733705790E+03  0.82970194197E+02 0.  0.
         24    2    4    4    0    0  0.36671108494E+03 -0.21206940573E+03 -0.11840083136E+04  0.12600411046E+04  0.79858913471E+02 0.  0.
         11    1    3    3    0    0  0.38932320274E+02  0.45041867424E+02  0.36427141388E+02  0.69795644653E+02  0.00000000000E+00 0.  1.
        -11    1    3    3    0    0  0.71456368440E+02  0.17757733598E+03  0.30970453152E+03  0.36408325928E+03  0.00000000000E+00 0. -1.
          4    1    6    6  502    0  0.36936959274E+03 -0.20358997448E+03 -0.11503596672E+04  0.12252388084E+04  0.00000000000E+00 0. -1.
          1    1    5    5  503    0 -0.45338462045E+03 -0.96395719082E+01 -0.82284250221E+03  0.93953196798E+03  0.00000000000E+00 0. -1.
         -2    1    5    5    0  503 -0.23715153207E+02 -0.91022576750E+00 -0.14487443633E+02  0.27805089922E+02  0.00000000000E+00 0.  1.
         -3    1    6    6    0  502 -0.26585077915E+01 -0.84794312537E+01 -0.33648646358E+02  0.34802296185E+02  0.00000000000E+00 0.  1.
<mgrwt>
<rscale>  0 0.20678424E+04</rscale>
<asrwt>0</asrwt>
<pdfrwt beam="1">  1        2 0.75850037E-01 0.20678424E+04</pdfrwt>
<pdfrwt beam="2">  1       -2 0.33357413E+00 0.20678424E+04</pdfrwt>
<totfact> 0.11425391E+00</totfact>
</mgrwt>
</event>
<event>
12    1  0.1442183E-007  0.1676420E+04  0.7818608E-02  0.8774928E-01
          2   -1    0    0  501    0  0.00000000000E+00  0.00000000000E+00  0.27017578274E+04  0.27017578274E+04  0.00000000000E+00 0. -1.
         -2   -1    0    0    0  501 -0.00000000000E+00 -0.00000000000E+00 -0.26005138322E+03  0.26005138322E+03  0.00000000000E+00 0.  1.
         23    2    1    2    0    0  0.55614165438E+03 -0.11775345023E+03  0.59894400338E+03  0.83095382046E+03  0.92687203982E+02 0.  0.
        254    2    1    2    0    0 -0.55614165438E+03  0.11775345023E+03  0.18427624408E+04  0.21308553901E+04  0.90642808083E+03 0.  0.
        -24    2    4    4    0    0  0.14206430113E+03  0.29671858791E+03  0.48343936265E+03  0.59019315730E+03  0.79938473193E+02 0.  0.
         24    2    4    4    0    0 -0.69820595550E+03 -0.17896513768E+03  0.13593230781E+04  0.15406622328E+04  0.79754674662E+02 0.  0.
         13    1    3    3    0    0  0.36420334285E+03 -0.98893078986E+02  0.44981095422E+03  0.58715739845E+03  0.00000000000E+00 0. -1.
        -13    1    3    3    0    0  0.19193831153E+03 -0.18860371247E+02  0.14913304915E+03  0.24379642201E+03  0.00000000000E+00 0.  1.
          2    1    6    6  502    0 -0.36470968546E+03 -0.81660381963E+02  0.62311590680E+03  0.72660512382E+03  0.00000000000E+00 0. -1.
          1    1    5    5  503    0  0.55296424958E+02  0.43515776686E+02  0.87727535365E+02  0.11246082827E+03  0.00000000000E+00 0. -1.
         -2    1    5    5    0  503  0.86767876168E+02  0.25320281123E+03  0.39571182728E+03  0.47773232903E+03  0.00000000000E+00 0.  1.
         -1    1    6    6    0  502 -0.33349627004E+03 -0.97304755718E+02  0.73620717131E+03  0.81405710900E+03  0.00000000000E+00 0.  1.
<mgrwt>
<rscale>  0 0.16764198E+04</rscale>
<asrwt>0</asrwt>
<pdfrwt beam="1">  1        2 0.41565503E+00 0.16764198E+04</pdfrwt>
<pdfrwt beam="2">  1       -2 0.40007907E-01 0.16764198E+04</pdfrwt>
<totfact> 0.14973238E+01</totfact>
</mgrwt>
</event>
<event>
12    1  0.1442183E-007  0.1229254E+04  0.7818608E-02  0.9087629E-01
          2   -1    0    0  501    0  0.00000000000E+00  0.00000000000E+00  0.10085762632E+04  0.10085762632E+04  0.00000000000E+00 0. -1.
         -2   -1    0    0    0  501 -0.00000000000E+00 -0.00000000000E+00 -0.37455413700E+03  0.37455413700E+03  0.00000000000E+00 0.  1.
         23    2    1    2    0    0  0.60440758585E+02 -0.97798929653E+02  0.42940046622E+03  0.45373183416E+03  0.90940095690E+02 0.  0.
        254    2    1    2    0    0 -0.60440758585E+02  0.97798929653E+02  0.20462166000E+03  0.92939856606E+03  0.89927412668E+03 0.  0.
        -24    2    4    4    0    0  0.26412268829E+03 -0.84355320753E+02 -0.21757508411E+03  0.36132218442E+03  0.79612744695E+02 0.  0.
         24    2    4    4    0    0 -0.32456344688E+03  0.18215425041E+03  0.42219674411E+03  0.56807638164E+03  0.77065443930E+02 0.  0.
         11    1    3    3    0    0  0.72367946456E+02 -0.90878084890E+02  0.27254477193E+03  0.29627115738E+03  0.00000000000E+00 0.  1.
        -11    1    3    3    0    0 -0.11927187871E+02 -0.69208447630E+01  0.15685569429E+03  0.15746067679E+03  0.00000000000E+00 0. -1.
          4    1    6    6  502    0 -0.17756260221E+03  0.14275337838E+03  0.24819316275E+03  0.33690777785E+03  0.00000000000E+00 0. -1.
          3    1    5    5  503    0  0.98105194166E+01  0.11687441028E+02 -0.44548279871E+01  0.15896164990E+02  0.00000000000E+00 0. -1.
         -4    1    5    5    0  503  0.25431216888E+03 -0.96042761780E+02 -0.21312025612E+03  0.34542601943E+03  0.00000000000E+00 0.  1.
         -3    1    6    6    0  502 -0.14700084467E+03  0.39400872025E+02  0.17400358136E+03  0.23116860379E+03  0.00000000000E+00 0.  1.
<mgrwt>
<rscale>  0 0.12292541E+04</rscale>
<asrwt>0</asrwt>
<pdfrwt beam="1">  1        2 0.15516558E+00 0.12292541E+04</pdfrwt>
<pdfrwt beam="2">  1       -2 0.57623714E-01 0.12292541E+04</pdfrwt>
<totfact> 0.69085577E+01</totfact>
</mgrwt>
</event>
<event>
12    1  0.1442183E-007  0.1421648E+04  0.7818608E-02  0.8938296E-01
         -2   -1    0    0    0  501 -0.00000000000E+00  0.00000000000E+00  0.16510507033E+03  0.16510507033E+03  0.00000000000E+00 0. -1.
          2   -1    0    0  501    0  0.00000000000E+00 -0.00000000000E+00 -0.30602962273E+04  0.30602962273E+04  0.00000000000E+00 0.  1.
         23    2    1    2    0    0  0.17511070430E+03 -0.26156204583E+03 -0.15122249741E+04  0.15478760963E+04  0.10008783396E+03 0.  0.
        254    2    1    2    0    0 -0.17511070430E+03  0.26156204583E+03 -0.13829661829E+04  0.16775252013E+04  0.89577724667E+03 0.  0.
        -24    2    4    4    0    0 -0.40712698675E+03  0.46958998954E+03 -0.95507755981E+03  0.11421982054E+04  0.78590416215E+02 0.  0.
         24    2    4    4    0    0  0.23201628244E+03 -0.20802794370E+03 -0.42788862304E+03  0.53532699596E+03  0.79869507290E+02 0.  0.
         13    1    3    3    0    0  0.18124125240E+03 -0.23575211033E+03 -0.12773087235E+04  0.13114667454E+04  0.00000000000E+00 0.  1.
        -13    1    3    3    0    0 -0.61305480978E+01 -0.25809935506E+02 -0.23491625062E+03  0.23640935091E+03  0.00000000000E+00 0. -1.
          2    1    6    6  502    0  0.17646831491E+03 -0.19009832096E+03 -0.37860518087E+03  0.45893389587E+03  0.00000000000E+00 0. -1.
          3    1    5    5  503    0 -0.33231961477E+03  0.38031601404E+03 -0.71533418504E+03  0.87565951898E+03  0.00000000000E+00 0. -1.
         -4    1    5    5    0  503 -0.74807371980E+02  0.89273975491E+02 -0.23974337477E+03  0.26653868641E+03  0.00000000000E+00 0.  1.
         -1    1    6    6    0  502  0.55547967530E+02 -0.17929622741E+02 -0.49283442170E+02  0.76393100084E+02  0.00000000000E+00 0.  1.
<mgrwt>
<rscale>  0 0.14216475E+04</rscale>
<asrwt>0</asrwt>
<pdfrwt beam="1">  1        2 0.47081480E+00 0.14216475E+04</pdfrwt>
<pdfrwt beam="2">  1       -2 0.25400780E-01 0.14216475E+04</pdfrwt>
<totfact> 0.21811200E+01</totfact>
</mgrwt>
</event>
<event>
12    1  0.1442183E-007  0.1980807E+04  0.7818608E-02  0.8615647E-01
         -2   -1    0    0    0  501 -0.00000000000E+00  0.00000000000E+00  0.49638391865E+03  0.49638391865E+03  0.00000000000E+00 0. -1.
          2   -1    0    0  501    0  0.00000000000E+00 -0.00000000000E+00 -0.19760899827E+04  0.19760899827E+04  0.00000000000E+00 0.  1.
         23    2    1    2    0    0 -0.74957903881E+03  0.38623357533E+01 -0.87228390287E+03  0.11537286395E+04  0.91251922903E+02 0.  0.
        254    2    1    2    0    0  0.74957903881E+03 -0.38623357533E+01 -0.60742216116E+03  0.13187452618E+04  0.89902376530E+03 0.  0.
        -24    2    4    4    0    0  0.25884844934E+03 -0.30071965569E+03 -0.61961952467E+03  0.73952236569E+03  0.74364931059E+02 0.  0.
         24    2    4    4    0    0  0.49073058947E+03  0.29685731993E+03  0.12197363509E+02  0.57922289609E+03  0.80060026502E+02 0.  0.
         11    1    3    3    0    0 -0.31407595028E+03 -0.16863259769E+01 -0.43511913857E+03  0.53663321831E+03  0.00000000000E+00 0.  1.
        -11    1    3    3    0    0 -0.43550308852E+03  0.55486617302E+01 -0.43716476430E+03  0.61709542123E+03  0.00000000000E+00 0. -1.
          2    1    6    6  502    0  0.18724709668E+03  0.88742531868E+02 -0.27803608165E+02  0.20906877530E+03  0.00000000000E+00 0. -1.
          1    1    5    5  503    0  0.85768641756E+02 -0.58579232636E+02 -0.19561992456E+03  0.22148350117E+03  0.00000000000E+00 0. -1.
         -2    1    5    5    0  503  0.17307980758E+03 -0.24214042305E+03 -0.42399960011E+03  0.51803886453E+03  0.00000000000E+00 0.  1.
         -1    1    6    6    0  502  0.30348349279E+03  0.20811478807E+03  0.40000971675E+02  0.37015412079E+03  0.00000000000E+00 0.  1.
<mgrwt>
<rscale>  0 0.19808072E+04</rscale>
<asrwt>0</asrwt>
<pdfrwt beam="1">  1        2 0.30401384E+00 0.19808072E+04</pdfrwt>
<pdfrwt beam="2">  1       -2 0.76366759E-01 0.19808072E+04</pdfrwt>
<totfact> 0.98321858E+00</totfact>
</mgrwt>
</event>
<event>
12    1  0.1442183E-007  0.1696023E+04  0.7818608E-02  0.8763636E-01
         -2   -1    0    0    0  501 -0.00000000000E+00  0.00000000000E+00  0.99620132038E+03  0.99620132038E+03  0.00000000000E+00 0.  1.
          2   -1    0    0  501    0  0.00000000000E+00 -0.00000000000E+00 -0.72186586382E+03  0.72186586382E+03  0.00000000000E+00 0. -1.
         23    2    1    2    0    0 -0.25958042229E+03 -0.34683763364E+03 -0.30926892131E+03  0.53948353089E+03  0.87845743611E+02 0.  0.
        254    2    1    2    0    0  0.25958042229E+03  0.34683763364E+03  0.58360437787E+03  0.11785836533E+04  0.92778608431E+03 0.  0.
        -24    2    4    4    0    0  0.19106359677E+03  0.64850565147E+03  0.27417778468E+03  0.73417410752E+03  0.82299966813E+02 0.  0.
         24    2    4    4    0    0  0.68516825517E+02 -0.30166801784E+03  0.30942659319E+03  0.44440954579E+03  0.77825956147E+02 0.  0.
         13    1    3    3    0    0 -0.12933403257E+03 -0.19657399079E+03 -0.21767524745E+03  0.32054818544E+03  0.00000000000E+00 0. -1.
        -13    1    3    3    0    0 -0.13024638972E+03 -0.15026364284E+03 -0.91593673857E+02  0.21893534545E+03  0.00000000000E+00 0.  1.
          4    1    6    6  502    0  0.26086028255E+02 -0.20007682288E+03  0.24291266761E+03  0.31578122175E+03  0.00000000000E+00 0. -1.
          1    1    5    5  503    0  0.13848995197E+03  0.56990851835E+03  0.23533317681E+03  0.63194690457E+03  0.00000000000E+00 0. -1.
         -2    1    5    5    0  503  0.52573644804E+02  0.78597133123E+02  0.38844607872E+02  0.10222720295E+03  0.00000000000E+00 0.  1.
         -3    1    6    6    0  502  0.42430797261E+02 -0.10159119496E+03  0.66513925582E+02  0.12862832404E+03  0.00000000000E+00 0.  1.
<mgrwt>
<rscale>  0 0.16960233E+04</rscale>
<asrwt>0</asrwt>
<pdfrwt beam="1">  1        2 0.11105629E+00 0.16960233E+04</pdfrwt>
<pdfrwt beam="2">  1       -2 0.15326174E+00 0.16960233E+04</pdfrwt>
<totfact> 0.10604270E+01</totfact>
</mgrwt>
</event>
<event>
12    1  0.1442183E-007  0.3258185E+04  0.7818608E-02  0.8173617E-01
          2   -1    0    0  501    0  0.00000000000E+00  0.00000000000E+00  0.23712270617E+04  0.23712270617E+04  0.00000000000E+00 0. -1.
         -2   -1    0    0    0  501 -0.00000000000E+00 -0.00000000000E+00 -0.11192274119E+04  0.11192274119E+04  0.00000000000E+00 0.  1.
         23    2    1    2    0    0  0.25559987072E+03 -0.59728817559E+03 -0.87410065768E+03  0.10929533481E+04  0.91709338716E+02 0.  0.
        254    2    1    2    0    0 -0.25559987072E+03  0.59728817559E+03  0.21261003075E+04  0.23975011255E+04  0.89756597005E+03 0.  0.
        -24    2    4    4    0    0 -0.35780539982E+03  0.51825934875E+03  0.21522563112E+04  0.22439462807E+04  0.80437706263E+02 0.  0.
         24    2    4    4    0    0  0.10220552910E+03  0.79028826841E+02 -0.26156003719E+02  0.15355484484E+03  0.78761844774E+02 0.  0.
         11    1    3    3    0    0  0.17019356924E+02 -0.37574514559E+02 -0.24571162563E+02  0.48012963709E+02  0.00000000000E+00 0. -1.
        -11    1    3    3    0    0  0.23858051380E+03 -0.55971366103E+03 -0.84952949511E+03  0.10449403844E+04  0.00000000000E+00 0.  1.
          4    1    6    6  502    0  0.31134678337E+02 -0.68638957714E+00 -0.34445962131E+02  0.46436662594E+02  0.00000000000E+00 0. -1.
          1    1    5    5  503    0 -0.34400197617E+03  0.50932005669E+03  0.20425879950E+04  0.21330518036E+04  0.00000000000E+00 0. -1.
         -2    1    5    5    0  503 -0.13803423652E+02  0.89392920526E+01  0.10966831626E+03  0.11089447704E+03  0.00000000000E+00 0.  1.
         -3    1    6    6    0  502  0.71070850762E+02  0.79715216418E+02  0.82899584118E+01  0.10711818224E+03  0.00000000000E+00 0.  1.
<mgrwt>
<rscale>  0 0.32581850E+04</rscale>
<asrwt>0</asrwt>
<pdfrwt beam="1">  1        2 0.36480416E+00 0.32581850E+04</pdfrwt>
<pdfrwt beam="2">  1       -2 0.17218883E+00 0.32581850E+04</pdfrwt>
<totfact> 0.71158502E-01</totfact>
</mgrwt>
</event>
<event>
12    1  0.1577574E-007  0.1680602E+04  0.7818608E-02  0.8772506E-01
         -2   -1    0    0    0  501 -0.00000000000E+00  0.00000000000E+00  0.46758727356E+03  0.46758727356E+03  0.00000000000E+00 0.  1.
          2   -1    0    0  501    0  0.00000000000E+00 -0.00000000000E+00 -0.15101041119E+04  0.15101041119E+04  0.00000000000E+00 0. -1.
         23    2    1    2    0    0 -0.91082249388E+02 -0.23853070217E+03  0.26283006193E+03  0.37737693742E+03  0.90226600390E+02 0.  0.
        254    2    1    2    0    0  0.91082249388E+02  0.23853070217E+03 -0.13053469003E+04  0.16003144480E+04  0.88987804249E+03 0.  0.
        -24    2    4    4    0    0 -0.19264121280E+03  0.20179946806E+03 -0.12680288482E+04  0.13009091413E+04  0.81447970343E+02 0.  0.
         24    2    4    4    0    0  0.28372346219E+03  0.36731234111E+02 -0.37318052100E+02  0.29940530676E+03  0.80016961635E+02 0.  0.
         11    1    3    3    0    0 -0.39706289364E+02 -0.44589548677E+02  0.21309926197E+02  0.63395033092E+02  0.00000000000E+00 0. -1.
        -11    1    3    3    0    0 -0.51375960025E+02 -0.19394115349E+03  0.24152013573E+03  0.31398190433E+03  0.00000000000E+00 0.  1.
          4    1    6    6  502    0  0.24858873697E+03  0.48093606105E+02 -0.53988920766E+02  0.25889024443E+03  0.00000000000E+00 0. -1.
          3    1    5    5  503    0 -0.18976259186E+03  0.16685902981E+03 -0.11646532552E+04  0.11917503858E+04  0.00000000000E+00 0. -1.
         -4    1    5    5    0  503 -0.28786209341E+01  0.34940438248E+02 -0.10337559293E+03  0.10915875548E+03  0.00000000000E+00 0.  1.
         -3    1    6    6    0  502  0.35134725215E+02 -0.11362371994E+02  0.16670868666E+02  0.40515062327E+02  0.00000000000E+00 0.  1.
<mgrwt>
<rscale>  0 0.16806016E+04</rscale>
<asrwt>0</asrwt>
<pdfrwt beam="1">  1        2 0.23232371E+00 0.16806016E+04</pdfrwt>
<pdfrwt beam="2">  1       -2 0.71936502E-01 0.16806016E+04</pdfrwt>
<totfact> 0.20903438E+01</totfact>
</mgrwt>
</event>
<event>
12    1  0.1442183E-007  0.3685875E+04  0.7818608E-02  0.8071099E-01
          2   -1    0    0  501    0  0.00000000000E+00  0.00000000000E+00  0.21496864373E+04  0.21496864373E+04  0.00000000000E+00 0. -1.
         -2   -1    0    0    0  501 -0.00000000000E+00 -0.00000000000E+00 -0.15799596404E+04  0.15799596404E+04  0.00000000000E+00 0.  1.
         23    2    1    2    0    0 -0.26616320673E+03 -0.17500726863E+03  0.19940894415E+04  0.20214263376E+04  0.91111694375E+02 0.  0.
        254    2    1    2    0    0  0.26616320673E+03  0.17500726863E+03 -0.14243626446E+04  0.17082197401E+04  0.88754455688E+03 0.  0.
        -24    2    4    4    0    0 -0.76772534175E+01  0.15628878119E+03 -0.14123912492E+04  0.14233166885E+04  0.80599201975E+02 0.  0.
         24    2    4    4    0    0  0.27384046015E+03  0.18718487443E+02 -0.11971395410E+02  0.28490305169E+03  0.75415218403E+02 0.  0.
         13    1    3    3    0    0 -0.79102041648E+02 -0.87469760285E+01  0.40428618883E+03  0.41204485807E+03  0.00000000000E+00 0.  1.
        -13    1    3    3    0    0 -0.18706116508E+03 -0.16626029260E+03  0.15898032527E+04  0.16093814795E+04  0.00000000000E+00 0. -1.
          2    1    6    6  502    0  0.24792612717E+03  0.21719269488E+02  0.12424879093E+02  0.24918561118E+03  0.00000000000E+00 0. -1.
          3    1    5    5  503    0 -0.14600281465E+02  0.53926574922E+02 -0.83607844989E+03  0.83794296827E+03  0.00000000000E+00 0. -1.
         -4    1    5    5    0  503  0.69230280478E+01  0.10236220627E+03 -0.57631279935E+03  0.58537372018E+03  0.00000000000E+00 0.  1.
         -1    1    6    6    0  502  0.25914332979E+02 -0.30007820446E+01 -0.24396274503E+02  0.35717440505E+02  0.00000000000E+00 0.  1.
<mgrwt>
<rscale>  0 0.36858746E+04</rscale>
<asrwt>0</asrwt>
<pdfrwt beam="1">  1        2 0.33072099E+00 0.36858746E+04</pdfrwt>
<pdfrwt beam="2">  1       -2 0.24307071E+00 0.36858746E+04</pdfrwt>
<totfact> 0.31628276E-01</totfact>
</mgrwt>
</event>
<event>
12    1  0.1442183E-007  0.1565457E+04  0.7818608E-02  0.8842055E-01
          2   -1    0    0  501    0  0.00000000000E+00  0.00000000000E+00  0.49942729033E+03  0.49942729033E+03  0.00000000000E+00 0. -1.
         -2   -1    0    0    0  501 -0.00000000000E+00 -0.00000000000E+00 -0.12267329476E+04  0.12267329476E+04  0.00000000000E+00 0.  1.
         23    2    1    2    0    0 -0.37715626106E+03  0.89563515699E+02 -0.61435717516E+03  0.73390016787E+03  0.10443298872E+03 0.  0.
        254    2    1    2    0    0  0.37715626106E+03 -0.89563515699E+02 -0.11294848211E+03  0.99226007006E+03  0.90639628111E+03 0.  0.
        -24    2    4    4    0    0  0.53559585639E+03 -0.27435789731E+03  0.14986360835E+03  0.62529677194E+03  0.80011091072E+02 0.  0.
         24    2    4    4    0    0 -0.15843959533E+03  0.18479438161E+03 -0.26281209046E+03  0.36696329812E+03  0.79622851179E+02 0.  0.
         11    1    3    3    0    0 -0.37077480144E+02  0.24510006147E+02 -0.26770676898E+02  0.51885923685E+02  0.00000000000E+00 0. -1.
        -11    1    3    3    0    0 -0.34007878092E+03  0.65053509553E+02 -0.58758649826E+03  0.68201424418E+03  0.00000000000E+00 0.  1.
          2    1    6    6  502    0 -0.61461209883E+02  0.79111999786E+02 -0.16608982861E+03  0.19396396572E+03  0.00000000000E+00 0. -1.
          3    1    5    5  503    0  0.13300374859E+03 -0.97168267821E+02  0.66355313769E+02  0.17758011453E+03  0.00000000000E+00 0. -1.
         -4    1    5    5    0  503  0.40259210781E+03 -0.17718962949E+03  0.83508294581E+02  0.44771665742E+03  0.00000000000E+00 0.  1.
         -1    1    6    6    0  502 -0.96978385448E+02  0.10568238182E+03 -0.96722261848E+02  0.17299933239E+03  0.00000000000E+00 0.  1.
<mgrwt>
<rscale>  0 0.15654570E+04</rscale>
<asrwt>0</asrwt>
<pdfrwt beam="1">  1        2 0.76834967E-01 0.15654570E+04</pdfrwt>
<pdfrwt beam="2">  1       -2 0.18872815E+00 0.15654570E+04</pdfrwt>
<totfact> 0.93621323E+00</totfact>
</mgrwt>
</event>
<event>
12    1  0.1442183E-007  0.2806491E+04  0.7818608E-02  0.8301256E-01
         -2   -1    0    0    0  501 -0.00000000000E+00  0.00000000000E+00  0.16577815968E+04  0.16577815968E+04  0.00000000000E+00 0. -1.
          2   -1    0    0  501    0  0.00000000000E+00 -0.00000000000E+00 -0.11877910347E+04  0.11877910347E+04  0.00000000000E+00 0.  1.
         23    2    1    2    0    0  0.21159914489E+03  0.18023888668E+03  0.14537593141E+04  0.14830558180E+04  0.93691842865E+02 0.  0.
        254    2    1    2    0    0 -0.21159914489E+03 -0.18023888668E+03 -0.98376875203E+03  0.13625168135E+04  0.90077236596E+03 0.  0.
        -24    2    4    4    0    0 -0.17903124035E+03 -0.67748007631E+02 -0.11357416000E+04  0.11546014257E+04  0.80953645298E+02 0.  0.
         24    2    4    4    0    0 -0.32567904540E+02 -0.11249087905E+03  0.15197284794E+03  0.20791538786E+03  0.80113642543E+02 0.  0.
         13    1    3    3    0    0  0.13953867433E+03  0.17079668412E+03  0.10768173159E+04  0.10991715429E+04  0.00000000000E+00 0.  1.
        -13    1    3    3    0    0  0.72060470557E+02  0.94422025673E+01  0.37694199825E+03  0.38388427507E+03  0.00000000000E+00 0. -1.
          2    1    6    6  502    0  0.25030339399E+02 -0.32523556979E+02  0.28646235792E+02  0.50049040691E+02  0.00000000000E+00 0. -1.
          1    1    5    5  503    0 -0.10269733271E+02 -0.19484284057E+02 -0.29011037218E+03  0.29094524019E+03  0.00000000000E+00 0. -1.
         -2    1    5    5    0  503 -0.16876150708E+03 -0.48263723574E+02 -0.84563122779E+03  0.86365618547E+03  0.00000000000E+00 0.  1.
         -1    1    6    6    0  502 -0.57598243939E+02 -0.79967322075E+02  0.12332661215E+03  0.15786634717E+03  0.00000000000E+00 0.  1.
<mgrwt>
<rscale>  0 0.28064911E+04</rscale>
<asrwt>0</asrwt>
<pdfrwt beam="1">  1        2 0.18273708E+00 0.28064911E+04</pdfrwt>
<pdfrwt beam="2">  1       -2 0.25504332E+00 0.28064911E+04</pdfrwt>
<totfact> 0.10023808E+00</totfact>
</mgrwt>
</event>
<event>
12    1  0.1442183E-007  0.1543408E+04  0.7818608E-02  0.8856089E-01
         -2   -1    0    0    0  501 -0.00000000000E+00  0.00000000000E+00  0.17874940533E+03  0.17874940533E+03  0.00000000000E+00 0.  1.
          2   -1    0    0  501    0  0.00000000000E+00 -0.00000000000E+00 -0.33316325528E+04  0.33316325528E+04  0.00000000000E+00 0. -1.
         23    2    1    2    0    0  0.47940609792E+03  0.26339508505E+02 -0.13707131831E+04  0.14560740119E+04  0.10379268372E+03 0.  0.
        254    2    1    2    0    0 -0.47940609792E+03 -0.26339508505E+02 -0.17821699643E+04  0.20543079462E+04  0.90195752660E+03 0.  0.
        -24    2    4    4    0    0 -0.54966192831E+03 -0.28078823519E+03 -0.16175412611E+04  0.17327970021E+04  0.71940605214E+02 0.  0.
         24    2    4    4    0    0  0.70255830389E+02  0.25444872668E+03 -0.16462870318E+03  0.32151094409E+03  0.81158123719E+02 0.  0.
         13    1    3    3    0    0  0.41355391616E+03 -0.12392573197E+02 -0.11900899613E+04  0.12599581475E+04  0.00000000000E+00 0. -1.
        -13    1    3    3    0    0  0.65852181762E+02  0.38732081702E+02 -0.18062322185E+03  0.19611586440E+03  0.00000000000E+00 0.  1.
          2    1    6    6  502    0  0.33923003371E+02  0.16837110021E+03 -0.14776403117E+03  0.22656965033E+03  0.00000000000E+00 0. -1.
          1    1    5    5  503    0 -0.53177433173E+03 -0.28426390749E+03 -0.15770383675E+04  0.16883838193E+04  0.00000000000E+00 0. -1.
         -4    1    5    5    0  503 -0.17887596582E+02  0.34756722980E+01 -0.40502893639E+02  0.44413182756E+02  0.00000000000E+00 0.  1.
         -1    1    6    6    0  502  0.36332827018E+02  0.86077626473E+02 -0.16864672004E+02  0.94941293756E+02  0.00000000000E+00 0.  1.
<mgrwt>
<rscale>  0 0.15434084E+04</rscale>
<asrwt>0</asrwt>
<pdfrwt beam="1">  1        2 0.51255882E+00 0.15434084E+04</pdfrwt>
<pdfrwt beam="2">  1       -2 0.27499910E-01 0.15434084E+04</pdfrwt>
<totfact> 0.12443827E+01</totfact>
</mgrwt>
</event>
<event>
12    1  0.1442183E-007  0.1781840E+04  0.7818608E-02  0.8716017E-01
         -1   -1    0    0    0  501 -0.00000000000E+00  0.00000000000E+00  0.73661724916E+03  0.73661724916E+03  0.00000000000E+00 0.  1.
          1   -1    0    0  501    0  0.00000000000E+00 -0.00000000000E+00 -0.10775446999E+04  0.10775446999E+04  0.00000000000E+00 0. -1.
         23    2    1    2    0    0 -0.25511062883E+03  0.17665948722E+03 -0.74809880664E+03  0.81498149629E+03  0.90846064453E+02 0.  0.
        254    2    1    2    0    0  0.25511062883E+03 -0.17665948722E+03  0.40717135594E+03  0.99918045273E+03  0.85806937753E+03 0.  0.
        -24    2    4    4    0    0  0.23092726509E+03 -0.35252543616E+03 -0.11338827212E+03  0.44348732928E+03  0.78882989785E+02 0.  0.
         24    2    4    4    0    0  0.24183363743E+02  0.17586594893E+03  0.52055962806E+03  0.55569312346E+03  0.79365320002E+02 0.  0.
         13    1    3    3    0    0 -0.26139253703E+03  0.17675475062E+03 -0.71870360037E+03  0.78492239455E+03  0.00000000000E+00 0. -1.
        -13    1    3    3    0    0  0.62819081950E+01 -0.95263396220E-01 -0.29395206272E+02  0.30059101740E+02  0.00000000000E+00 0.  1.
          4    1    6    6  502    0  0.35332898896E+02  0.40969334840E+02  0.97455490030E+02  0.11146511866E+03  0.00000000000E+00 0. -1.
          1    1    5    5  503    0  0.16894894069E+02 -0.44989122530E+01  0.48595863559E+01  0.18146438675E+02  0.00000000000E+00 0. -1.
         -2    1    5    5    0  503  0.21403237102E+03 -0.34802652390E+03 -0.11824785847E+03  0.42534089060E+03  0.00000000000E+00 0.  1.
         -3    1    6    6    0  502 -0.11149535153E+02  0.13489661409E+03  0.42310413803E+03  0.44422800479E+03  0.00000000000E+00 0.  1.
<mgrwt>
<rscale>  0 0.17818395E+04</rscale>
<asrwt>0</asrwt>
<pdfrwt beam="1">  1        1 0.16577611E+00 0.17818395E+04</pdfrwt>
<pdfrwt beam="2">  1       -1 0.11332573E+00 0.17818395E+04</pdfrwt>
<totfact> 0.88604105E+00</totfact>
</mgrwt>
</event>
<event>
12    1  0.1442183E-007  0.1575195E+04  0.7818608E-02  0.8835933E-01
         -2   -1    0    0    0  501 -0.00000000000E+00  0.00000000000E+00  0.90952162127E+03  0.90952162127E+03  0.00000000000E+00 0.  1.
          2   -1    0    0  501    0  0.00000000000E+00 -0.00000000000E+00 -0.68201794150E+03  0.68201794150E+03  0.00000000000E+00 0. -1.
         23    2    1    2    0    0 -0.38666303660E+03 -0.39849112508E+02 -0.28041023690E+03  0.48789271502E+03  0.91176448591E+02 0.  0.
        254    2    1    2    0    0  0.38666303660E+03  0.39849112508E+02  0.50791391666E+03  0.11036468477E+04  0.89942401689E+03 0.  0.
        -24    2    4    4    0    0 -0.74528419797E+02  0.19388494567E+03  0.56519518958E+03  0.60738350467E+03  0.79518940554E+02 0.  0.
         24    2    4    4    0    0  0.46119145640E+03 -0.15403583316E+03 -0.57281272918E+02  0.49626334308E+03  0.81065184297E+02 0.  0.
         13    1    3    3    0    0 -0.19337955163E+03  0.10341748285E+02 -0.17993398298E+03  0.26434606291E+03  0.00000000000E+00 0. -1.
        -13    1    3    3    0    0 -0.19328348497E+03 -0.50190860793E+02 -0.10047625391E+03  0.22354665211E+03  0.00000000000E+00 0.  1.
          2    1    6    6  502    0  0.25072923383E+03 -0.42663182334E+02 -0.18420617940E+02  0.25499924507E+03  0.00000000000E+00 0. -1.
          3    1    5    5  503    0 -0.73253706396E+02  0.13711489248E+03  0.48361560456E+03  0.50798686224E+03  0.00000000000E+00 0. -1.
         -4    1    5    5    0  503 -0.12747134013E+01  0.56770053187E+02  0.81579585019E+02  0.99396642423E+02  0.00000000000E+00 0.  1.
         -1    1    6    6    0  502  0.21046222257E+03 -0.11137265082E+03 -0.38860654978E+02  0.24126409800E+03  0.00000000000E+00 0.  1.
<mgrwt>
<rscale>  0 0.15751953E+04</rscale>
<asrwt>0</asrwt>
<pdfrwt beam="1">  1        2 0.10492584E+00 0.15751953E+04</pdfrwt>
<pdfrwt beam="2">  1       -2 0.13992640E+00 0.15751953E+04</pdfrwt>
<totfact> 0.14623886E+01</totfact>
</mgrwt>
</event>
<event>
12    1  0.1442183E-007  0.1112255E+04  0.7818608E-02  0.9193329E-01
         -2   -1    0    0    0  501 -0.00000000000E+00  0.00000000000E+00  0.16180591481E+03  0.16180591481E+03  0.00000000000E+00 0. -1.
          2   -1    0    0  501    0  0.00000000000E+00 -0.00000000000E+00 -0.19114112616E+04  0.19114112616E+04  0.00000000000E+00 0.  1.
         23    2    1    2    0    0  0.11563140743E+03 -0.13354698272E+03 -0.33113422667E+03  0.38783535490E+03  0.97780199715E+02 0.  0.
        254    2    1    2    0    0 -0.11563140743E+03  0.13354698272E+03 -0.14184711202E+04  0.16853818216E+04  0.89288641310E+03 0.  0.
        -24    2    4    4    0    0  0.15444832640E+03 -0.11159094618E+03  0.11769718011E+02  0.20722219903E+03  0.80595835567E+02 0.  0.
         24    2    4    4    0    0 -0.27007973384E+03  0.24513792890E+03 -0.14302408382E+04  0.14781596225E+04  0.79569765947E+02 0.  0.
         11    1    3    3    0    0 -0.14950519303E+02 -0.26093576047E+02 -0.30070916452E+02  0.42528258307E+02  0.00000000000E+00 0. -1.
        -11    1    3    3    0    0  0.13058192673E+03 -0.10745340668E+03 -0.30106331022E+03  0.34530709659E+03  0.00000000000E+00 0.  1.
          4    1    6    6  502    0 -0.24881302798E+03  0.22598227289E+03 -0.13799443624E+04  0.14202895317E+04  0.00000000000E+00 0. -1.
          1    1    5    5  503    0  0.13078004073E+03 -0.12342764225E+03  0.49534665819E+01  0.17989535501E+03  0.00000000000E+00 0. -1.
         -2    1    5    5    0  503  0.23668285675E+02  0.11836696065E+02  0.68162514294E+01  0.27326844020E+02  0.00000000000E+00 0.  1.
         -3    1    6    6    0  502 -0.21266705856E+02  0.19155656019E+02 -0.50296475753E+02  0.57870090795E+02  0.00000000000E+00 0.  1.
<mgrwt>
<rscale>  0 0.11122547E+04</rscale>
<asrwt>0</asrwt>
<pdfrwt beam="1">  1        2 0.29406325E+00 0.11122547E+04</pdfrwt>
<pdfrwt beam="2">  1       -2 0.24893219E-01 0.11122547E+04</pdfrwt>
<totfact> 0.10748531E+02</totfact>
</mgrwt>
</event>
<event>
12    1  0.1442183E-007  0.3318162E+04  0.7818608E-02  0.8158289E-01
          1   -1    0    0  501    0  0.00000000000E+00  0.00000000000E+00  0.30442953345E+04  0.30442953345E+04  0.00000000000E+00 0. -1.
         -1   -1    0    0    0  501 -0.00000000000E+00 -0.00000000000E+00 -0.90416637865E+03  0.90416637865E+03  0.00000000000E+00 0.  1.
         23    2    1    2    0    0 -0.46240305022E+03 -0.75340561368E+02 -0.74694879734E+03  0.88923398139E+03  0.11537671672E+03 0.  0.
        254    2    1    2    0    0  0.46240305022E+03  0.75340561368E+02  0.28870777532E+04  0.30592277317E+04  0.89675168287E+03 0.  0.
        -24    2    4    4    0    0 -0.61427966418E+02 -0.33850173955E+02 -0.12716573742E+02  0.10945392557E+03  0.83061550916E+02 0.  0.
         24    2    4    4    0    0  0.52383101664E+03  0.10919073532E+03  0.28997943269E+04  0.29497738062E+04  0.77696965555E+02 0.  0.
         11    1    3    3    0    0 -0.18930634232E+03 -0.40165635866E+02 -0.41531608343E+03  0.45818950086E+03  0.00000000000E+00 0. -1.
        -11    1    3    3    0    0 -0.27309670790E+03 -0.35174925502E+02 -0.33163271391E+03  0.43104448052E+03  0.00000000000E+00 0.  1.
          2    1    6    6  502    0  0.44323964362E+03  0.98925897423E+02  0.22906417738E+04  0.23352274944E+04  0.00000000000E+00 0. -1.
          1    1    5    5  503    0  0.17840181894E+02  0.33747286935E+01 -0.12207526276E+02  0.21878861523E+02  0.00000000000E+00 0. -1.
         -2    1    5    5    0  503 -0.79268148312E+02 -0.37224902649E+02 -0.50904746590E+00  0.87575064050E+02  0.00000000000E+00 0.  1.
         -3    1    6    6    0  502  0.80591373022E+02  0.10264837900E+02  0.60915255316E+03  0.61454631178E+03  0.00000000000E+00 0.  1.
<mgrwt>
<rscale>  0 0.33181618E+04</rscale>
<asrwt>0</asrwt>
<pdfrwt beam="1">  1        1 0.46835312E+00 0.33181618E+04</pdfrwt>
<pdfrwt beam="2">  1       -1 0.13910252E+00 0.33181618E+04</pdfrwt>
<totfact> 0.19570229E-01</totfact>
</mgrwt>
</event>
<event>
12    1  0.1442183E-007  0.1252376E+04  0.7818608E-02  0.9068208E-01
         -1   -1    0    0    0  501 -0.00000000000E+00  0.00000000000E+00  0.15425500094E+03  0.15425500094E+03  0.00000000000E+00 0.  1.
          1   -1    0    0  501    0  0.00000000000E+00 -0.00000000000E+00 -0.25419671163E+04  0.25419671163E+04  0.00000000000E+00 0. -1.
         23    2    1    2    0    0 -0.12689931133E+03  0.21858743408E+03 -0.28524631949E+03  0.39179532253E+03  0.90852685250E+02 0.  0.
        254    2    1    2    0    0  0.12689931133E+03 -0.21858743408E+03 -0.21024657958E+04  0.23044267947E+04  0.90892052889E+03 0.  0.
        -24    2    4    4    0    0  0.23156752559E+03  0.25147236683E+03 -0.39459106039E+03  0.52806867162E+03  0.79325574796E+02 0.  0.
         24    2    4    4    0    0 -0.10466821426E+03 -0.47005980091E+03 -0.17078747354E+04  0.17763581231E+04  0.81856080319E+02 0.  0.
         11    1    3    3    0    0 -0.35345786446E+02  0.76683906860E+02 -0.16215175435E+03  0.18281941261E+03  0.00000000000E+00 0. -1.
        -11    1    3    3    0    0 -0.91553524880E+02  0.14190352722E+03 -0.12309456515E+03  0.20897590992E+03  0.00000000000E+00 0.  1.
          4    1    6    6  502    0  0.56463947288E+01 -0.79916880589E+02 -0.21624007648E+03  0.23060433702E+03  0.00000000000E+00 0. -1.
          1    1    5    5  503    0 -0.62193130589E+01  0.86591135285E+01 -0.16908950562E+02  0.19989314924E+02  0.00000000000E+00 0. -1.
         -2    1    5    5    0  503  0.23778683865E+03  0.24281325330E+03 -0.37768210983E+03  0.50807935669E+03  0.00000000000E+00 0.  1.
         -3    1    6    6    0  502 -0.11031460899E+03 -0.39014292032E+03 -0.14916346590E+04  0.15457537860E+04  0.00000000000E+00 0.  1.
<mgrwt>
<rscale>  0 0.12523756E+04</rscale>
<asrwt>0</asrwt>
<pdfrwt beam="1">  1        1 0.39107181E+00 0.12523756E+04</pdfrwt>
<pdfrwt beam="2">  1       -1 0.23731542E-01 0.12523756E+04</pdfrwt>
<totfact> 0.19237044E+01</totfact>
</mgrwt>
</event>
<event>
12    1  0.1442183E-007  0.1363957E+04  0.7818608E-02  0.8980330E-01
         -1   -1    0    0    0  501 -0.00000000000E+00  0.00000000000E+00  0.38466261889E+03  0.38466261889E+03  0.00000000000E+00 0.  1.
          1   -1    0    0  501    0  0.00000000000E+00 -0.00000000000E+00 -0.12090967965E+04  0.12090967965E+04  0.00000000000E+00 0. -1.
         23    2    1    2    0    0 -0.32510617662E+03 -0.11165009696E+03 -0.48973275933E+02  0.35817370201E+03  0.87921833600E+02 0.  0.
        254    2    1    2    0    0  0.32510617662E+03  0.11165009696E+03 -0.77546090172E+03  0.12355857134E+04  0.89842789075E+03 0.  0.
        -24    2    4    4    0    0  0.39843058445E+03 -0.22124391506E+03 -0.75448360016E+03  0.88473114419E+03  0.76209540174E+02 0.  0.
         24    2    4    4    0    0 -0.73324407823E+02  0.33289401203E+03 -0.20977301556E+02  0.35085456922E+03  0.80398939908E+02 0.  0.
         13    1    3    3    0    0 -0.48851872359E+02  0.13133960591E+01 -0.33627371120E+02  0.59321417132E+02  0.00000000000E+00 0. -1.
        -13    1    3    3    0    0 -0.27625430427E+03 -0.11296349302E+03 -0.15345904813E+02  0.29885228488E+03  0.00000000000E+00 0.  1.
          2    1    6    6  502    0 -0.32796642033E+02  0.20085742310E+03  0.25543023809E+02  0.20511404196E+03  0.00000000000E+00 0. -1.
          3    1    5    5  503    0  0.22231771096E+03 -0.13258613371E+03 -0.49761296230E+03  0.56091256690E+03  0.00000000000E+00 0. -1.
         -4    1    5    5    0  503  0.17611287349E+03 -0.88657781358E+02 -0.25687063786E+03  0.32381857729E+03  0.00000000000E+00 0.  1.
         -1    1    6    6    0  502 -0.40527765791E+02  0.13203658892E+03 -0.46520325365E+02  0.14574052726E+03  0.00000000000E+00 0.  1.
<mgrwt>
<rscale>  0 0.13639565E+04</rscale>
<asrwt>0</asrwt>
<pdfrwt beam="1">  1        1 0.18601489E+00 0.13639565E+04</pdfrwt>
<pdfrwt beam="2">  1       -1 0.59178865E-01 0.13639565E+04</pdfrwt>
<totfact> 0.29780131E+01</totfact>
</mgrwt>
</event>
<event>
12    1  0.1442183E-007  0.1531915E+04  0.7818608E-02  0.8863503E-01
         -1   -1    0    0    0  501 -0.00000000000E+00  0.00000000000E+00  0.34879612072E+03  0.34879612072E+03  0.00000000000E+00 0.  1.
          1   -1    0    0  501    0  0.00000000000E+00 -0.00000000000E+00 -0.16820458614E+04  0.16820458614E+04  0.00000000000E+00 0. -1.
         23    2    1    2    0    0  0.19758644754E+03 -0.20336899652E+03  0.85362670071E+02  0.31023854887E+03  0.92530096530E+02 0.  0.
        254    2    1    2    0    0 -0.19758644754E+03  0.20336899652E+03 -0.14186124107E+04  0.17206034332E+04  0.93145888238E+03 0.  0.
        -24    2    4    4    0    0 -0.17025567205E+03  0.53957322935E+03 -0.11396314299E+04  0.12748737774E+04  0.80106731810E+02 0.  0.
         24    2    4    4    0    0 -0.27330775490E+02 -0.33620423283E+03 -0.27898098080E+03  0.44572965585E+03  0.84049277177E+02 0.  0.
         11    1    3    3    0    0 -0.49426851542E+01 -0.33454118372E+01 -0.86085690931E+01  0.10475179174E+02  0.00000000000E+00 0. -1.
        -11    1    3    3    0    0  0.20252913269E+03 -0.20002358468E+03  0.93971239164E+02  0.29976336969E+03  0.00000000000E+00 0.  1.
          2    1    6    6  502    0 -0.50142965122E+02 -0.28905480172E+03 -0.21900148308E+03  0.36609922827E+03  0.00000000000E+00 0. -1.
          3    1    5    5  503    0 -0.12274317435E+03  0.26358184881E+03 -0.55059486329E+03  0.62265237601E+03  0.00000000000E+00 0. -1.
         -4    1    5    5    0  503 -0.47512497704E+02  0.27599138053E+03 -0.58903656664E+03  0.65222140137E+03  0.00000000000E+00 0.  1.
         -1    1    6    6    0  502  0.22812189632E+02 -0.47149431113E+02 -0.59979497721E+02  0.79630427583E+02  0.00000000000E+00 0.  1.
<mgrwt>
<rscale>  0 0.15319152E+04</rscale>
<asrwt>0</asrwt>
<pdfrwt beam="1">  1        1 0.25877628E+00 0.15319152E+04</pdfrwt>
<pdfrwt beam="2">  1       -1 0.53660942E-01 0.15319152E+04</pdfrwt>
<totfact> 0.16577964E+01</totfact>
</mgrwt>
</event>
<event>
12    1  0.1442183E-007  0.1803263E+04  0.7818608E-02  0.8704566E-01
         -2   -1    0    0    0  501 -0.00000000000E+00  0.00000000000E+00  0.20689645561E+03  0.20689645561E+03  0.00000000000E+00 0.  1.
          2   -1    0    0  501    0  0.00000000000E+00 -0.00000000000E+00 -0.39292072012E+04  0.39292072012E+04  0.00000000000E+00 0. -1.
         23    2    1    2    0    0 -0.35276910997E+03  0.16745860027E+03 -0.26532085265E+04  0.26834064614E+04  0.93093094075E+02 0.  0.
        254    2    1    2    0    0  0.35276910997E+03 -0.16745860027E+03 -0.10691022191E+04  0.14526971955E+04  0.90269660406E+03 0.  0.
        -24    2    4    4    0    0 -0.85562626178E+02 -0.37317885298E+03 -0.16604381325E+03  0.42482465742E+03  0.79511145938E+02 0.  0.
         24    2    4    4    0    0  0.43833173615E+03  0.20572025271E+03 -0.90305840588E+03  0.10278725380E+04  0.80944034464E+02 0.  0.
         13    1    3    3    0    0  0.47755047749E+01  0.92150845342E+01 -0.76638545308E+02  0.77338152652E+02  0.00000000000E+00 0.  1.
        -13    1    3    3    0    0 -0.35754461475E+03  0.15824351574E+03 -0.25765699812E+04  0.26060683087E+04  0.00000000000E+00 0. -1.
          4    1    6    6  502    0  0.11904888475E+03  0.96386990394E+02 -0.26646415932E+03  0.30735360268E+03  0.00000000000E+00 0. -1.
          3    1    5    5  503    0 -0.12161737848E+02 -0.43817145117E+02 -0.50957813292E+02  0.68297502218E+02  0.00000000000E+00 0. -1.
         -4    1    5    5    0  503 -0.73400888329E+02 -0.32936170786E+03 -0.11508599995E+03  0.35652715521E+03  0.00000000000E+00 0.  1.
         -3    1    6    6    0  502  0.31928285140E+03  0.10933326232E+03 -0.63659424656E+03  0.72051893535E+03  0.00000000000E+00 0.  1.
<mgrwt>
<rscale>  0 0.18032626E+04</rscale>
<asrwt>0</asrwt>
<pdfrwt beam="1">  1        2 0.60449340E+00 0.18032626E+04</pdfrwt>
<pdfrwt beam="2">  1       -2 0.31830225E-01 0.18032626E+04</pdfrwt>
<totfact> 0.34221855E+00</totfact>
</mgrwt>
</event>
<event>
12    1  0.1442183E-007  0.1309467E+04  0.7818608E-02  0.9022092E-01
         -1   -1    0    0    0  501 -0.00000000000E+00  0.00000000000E+00  0.16462416908E+04  0.16462416908E+04  0.00000000000E+00 0.  1.
          1   -1    0    0  501    0  0.00000000000E+00 -0.00000000000E+00 -0.26039654845E+03  0.26039654845E+03  0.00000000000E+00 0. -1.
         23    2    1    2    0    0 -0.20695309254E+03  0.22530905378E+03  0.59468292770E+03  0.67474526857E+03  0.89664043696E+02 0.  0.
        254    2    1    2    0    0  0.20695309254E+03 -0.22530905378E+03  0.79116221467E+03  0.12318929707E+04  0.89332462696E+03 0.  0.
        -24    2    4    4    0    0  0.21620963187E+02 -0.14624108882E+03 -0.17426218811E+03  0.24227600443E+03  0.80476269874E+02 0.  0.
         24    2    4    4    0    0  0.18533212935E+03 -0.79067964961E+02  0.96542440278E+03  0.98961696627E+03  0.81839606560E+02 0.  0.
         13    1    3    3    0    0 -0.76156894542E+02  0.34048800434E+02  0.11543670883E+03  0.14242481224E+03  0.00000000000E+00 0. -1.
        -13    1    3    3    0    0 -0.13079619799E+03  0.19126025334E+03  0.47924621887E+03  0.53232045632E+03  0.00000000000E+00 0.  1.
          2    1    6    6  502    0  0.19184239569E+03 -0.82022538574E+02  0.90330158177E+03  0.92708411120E+03  0.00000000000E+00 0. -1.
          3    1    5    5  503    0 -0.96798644491E+01 -0.12398148128E+03 -0.15667982196E+03  0.20003418229E+03  0.00000000000E+00 0. -1.
         -4    1    5    5    0  503  0.31300827637E+02 -0.22259607537E+02 -0.17582366147E+02  0.42241822141E+02  0.00000000000E+00 0.  1.
         -1    1    6    6    0  502 -0.65102663394E+01  0.29545736128E+01  0.62122821008E+02  0.62532855068E+02  0.00000000000E+00 0.  1.
<mgrwt>
<rscale>  0 0.13094665E+04</rscale>
<asrwt>0</asrwt>
<pdfrwt beam="1">  1        1 0.40061008E-01 0.13094665E+04</pdfrwt>
<pdfrwt beam="2">  1       -1 0.25326795E+00 0.13094665E+04</pdfrwt>
<totfact> 0.68842057E+00</totfact>
</mgrwt>
</event>
<event>
12    1  0.1442183E-007  0.2282477E+04  0.7818608E-02  0.8484862E-01
          2   -1    0    0  501    0  0.00000000000E+00  0.00000000000E+00  0.19967976400E+04  0.19967976400E+04  0.00000000000E+00 0. -1.
         -2   -1    0    0    0  501 -0.00000000000E+00 -0.00000000000E+00 -0.65225723310E+03  0.65225723310E+03  0.00000000000E+00 0.  1.
         23    2    1    2    0    0 -0.58044008640E+02 -0.68902440758E+03  0.13371851175E+04  0.15082692385E+04  0.93211138591E+02 0.  0.
        254    2    1    2    0    0  0.58044008640E+02  0.68902440758E+03  0.73552894632E+01  0.11407856346E+04  0.90731142538E+03 0.  0.
        -24    2    4    4    0    0 -0.32646639833E+02  0.89066348708E+03  0.69074104664E+02  0.89743749639E+03  0.79218543822E+02 0.  0.
         24    2    4    4    0    0  0.90690648473E+02 -0.20163907950E+03 -0.61718815201E+02  0.24334813820E+03  0.80783612883E+02 0.  0.
         11    1    3    3    0    0 -0.62205041874E+02 -0.68827603944E+03  0.13134899915E+04  0.14841998961E+04  0.00000000000E+00 0. -1.
        -11    1    3    3    0    0  0.41610332342E+01 -0.74836813393E+00  0.23695125949E+02  0.24069342454E+02  0.00000000000E+00 0.  1.
          2    1    6    6  502    0  0.61929175162E+02 -0.54038229470E+02 -0.40010951688E+02  0.91412412918E+02  0.00000000000E+00 0. -1.
          3    1    5    5  503    0 -0.25993767387E+02  0.16138731444E+03 -0.10491663318E+02  0.16380359033E+03  0.00000000000E+00 0. -1.
         -4    1    5    5    0  503 -0.66528724455E+01  0.72927617264E+03  0.79565767983E+02  0.73363390606E+03  0.00000000000E+00 0.  1.
         -1    1    6    6    0  502  0.28761473311E+02 -0.14760085003E+03 -0.21707863514E+02  0.15193572528E+03  0.00000000000E+00 0.  1.
<mgrwt>
<rscale>  0 0.22824773E+04</rscale>
<asrwt>0</asrwt>
<pdfrwt beam="1">  1        2 0.30719963E+00 0.22824773E+04</pdfrwt>
<pdfrwt beam="2">  1       -2 0.10034727E+00 0.22824773E+04</pdfrwt>
<totfact> 0.49895581E+00</totfact>
</mgrwt>
</event>
<event>
12    1  0.1442183E-007  0.2206653E+04  0.7818608E-02  0.8515664E-01
          2   -1    0    0  501    0  0.00000000000E+00  0.00000000000E+00  0.32092357222E+04  0.32092357222E+04  0.00000000000E+00 0. -1.
         -2   -1    0    0    0  501 -0.00000000000E+00 -0.00000000000E+00 -0.37932056289E+03  0.37932056289E+03  0.00000000000E+00 0.  1.
         23    2    1    2    0    0 -0.29646201124E+03 -0.20440825624E+03  0.25744765918E+04  0.26025527399E+04  0.12521414844E+03 0.  0.
        254    2    1    2    0    0  0.29646201124E+03  0.20440825624E+03  0.25543856754E+03  0.98600354521E+03  0.88163579218E+03 0.  0.
        -24    2    4    4    0    0  0.59749691869E+03  0.86572852792E+02  0.96142257812E+02  0.61700293903E+03  0.83377852863E+02 0.  0.
         24    2    4    4    0    0 -0.30103490745E+03  0.11783540345E+03  0.15929630972E+03  0.36900060618E+03  0.79239732830E+02 0.  0.
         11    1    3    3    0    0 -0.84570549751E+02  0.31598964412E+01  0.57427287352E+03  0.58047523297E+03  0.00000000000E+00 0.  1.
        -11    1    3    3    0    0 -0.21189146149E+03 -0.20756815268E+03  0.20002037183E+04  0.20220775069E+04  0.00000000000E+00 0. -1.
          2    1    6    6  502    0 -0.22676594169E+03  0.10779911667E+03  0.15245556516E+03  0.29374502755E+03  0.00000000000E+00 0. -1.
          3    1    5    5  503    0  0.10096187748E+03 -0.99660481917E+00 -0.10945138054E+02  0.10155830824E+03  0.00000000000E+00 0. -1.
         -2    1    5    5    0  503  0.49653504121E+03  0.87569457611E+02  0.10708739587E+03  0.51544463079E+03  0.00000000000E+00 0.  1.
         -1    1    6    6    0  502 -0.74268965767E+02  0.10036286780E+02  0.68407445619E+01  0.75255578628E+02  0.00000000000E+00 0.  1.
<mgrwt>
<rscale>  0 0.22066528E+04</rscale>
<asrwt>0</asrwt>
<pdfrwt beam="1">  1        2 0.49372855E+00 0.22066528E+04</pdfrwt>
<pdfrwt beam="2">  1       -2 0.58357012E-01 0.22066528E+04</pdfrwt>
<totfact> 0.32148789E+00</totfact>
</mgrwt>
</event>
<event>
12    1  0.1442183E-007  0.1797755E+04  0.7818608E-02  0.8707494E-01
         -2   -1    0    0    0  501 -0.00000000000E+00  0.00000000000E+00  0.47099646681E+03  0.47099646681E+03  0.00000000000E+00 0.  1.
          2   -1    0    0  501    0  0.00000000000E+00 -0.00000000000E+00 -0.17154711046E+04  0.17154711046E+04  0.00000000000E+00 0. -1.
         23    2    1    2    0    0  0.61959006206E+03  0.20203801703E+03 -0.26511460980E+03  0.70988532676E+03  0.94552712708E+02 0.  0.
        254    2    1    2    0    0 -0.61959006206E+03 -0.20203801703E+03 -0.97936002797E+03  0.14765822446E+04  0.89243367005E+03 0.  0.
        -24    2    4    4    0    0 -0.60672301801E+03 -0.48321064502E+03 -0.85950291299E+03  0.11605222474E+04  0.80382094821E+02 0.  0.
         24    2    4    4    0    0 -0.12867044051E+02  0.28117262799E+03 -0.11985711498E+03  0.31605999725E+03  0.79401425049E+02 0.  0.
         13    1    3    3    0    0  0.61420742984E+03  0.19654105507E+03 -0.24765429913E+03  0.69080518605E+03  0.00000000000E+00 0.  1.
        -13    1    3    3    0    0  0.53826322198E+01  0.54969619655E+01 -0.17460310673E+02  0.19080140703E+02  0.00000000000E+00 0. -1.
          4    1    6    6  502    0 -0.44347454726E+02  0.18755173749E+03 -0.67023334496E+02  0.20404528503E+03  0.00000000000E+00 0. -1.
          1    1    5    5  503    0 -0.37929389915E+03 -0.32582244124E+03 -0.50220054632E+03  0.70868153206E+03  0.00000000000E+00 0. -1.
         -4    1    5    5    0  503 -0.22742911886E+03 -0.15738820378E+03 -0.35730236666E+03  0.45184071531E+03  0.00000000000E+00 0.  1.
         -3    1    6    6    0  502  0.31480410675E+02  0.93620890495E+02 -0.52833780486E+02  0.11201471222E+03  0.00000000000E+00 0.  1.
<mgrwt>
<rscale>  0 0.17977551E+04</rscale>
<asrwt>0</asrwt>
<pdfrwt beam="1">  1        2 0.26391863E+00 0.17977551E+04</pdfrwt>
<pdfrwt beam="2">  1       -2 0.72460996E-01 0.17977551E+04</pdfrwt>
<totfact> 0.15641733E+01</totfact>
</mgrwt>
</event>
<event>
12    1  0.1442183E-007  0.3701848E+04  0.7818608E-02  0.8067552E-01
         -2   -1    0    0    0  501 -0.00000000000E+00  0.00000000000E+00  0.15948219185E+04  0.15948219185E+04  0.00000000000E+00 0.  1.
          2   -1    0    0  501    0  0.00000000000E+00 -0.00000000000E+00 -0.21481519722E+04  0.21481519722E+04  0.00000000000E+00 0. -1.
         23    2    1    2    0    0 -0.89386737225E+03  0.62862936739E+03  0.11102858229E+04  0.15606910316E+04  0.94064482013E+02 0.  0.
        254    2    1    2    0    0  0.89386737225E+03 -0.62862936739E+03 -0.16636158766E+04  0.21822828591E+04  0.89474405921E+03 0.  0.
        -24    2    4    4    0    0  0.13180532247E+03 -0.55672743608E+03 -0.10482023577E+04  0.11968104344E+04  0.79428912537E+02 0.  0.
         24    2    4    4    0    0  0.76206204978E+03 -0.71901931313E+02 -0.61541351889E+03  0.98547242466E+03  0.80707156361E+02 0.  0.
         13    1    3    3    0    0 -0.15203648921E+03  0.77970872711E+02  0.20973968606E+03  0.27052779331E+03  0.00000000000E+00 0. -1.
        -13    1    3    3    0    0 -0.74183088305E+03  0.55065849468E+03  0.90054613687E+03  0.12901632383E+04  0.00000000000E+00 0.  1.
          4    1    6    6  502    0  0.71836856366E+03 -0.61851629801E+02 -0.55324187399E+03  0.90882098815E+03  0.00000000000E+00 0. -1.
          3    1    5    5  503    0  0.42133471906E+02 -0.26200890747E+03 -0.55723945916E+03  0.61720313665E+03  0.00000000000E+00 0. -1.
         -4    1    5    5    0  503  0.89671850565E+02 -0.29471852861E+03 -0.49096289854E+03  0.57960729777E+03  0.00000000000E+00 0.  1.
         -3    1    6    6    0  502  0.43693486126E+02 -0.10050301512E+02 -0.62171644892E+02  0.76651436509E+02  0.00000000000E+00 0.  1.
<mgrwt>
<rscale>  0 0.37018481E+04</rscale>
<asrwt>0</asrwt>
<pdfrwt beam="1">  1        2 0.33048492E+00 0.37018481E+04</pdfrwt>
<pdfrwt beam="2">  1       -2 0.24535722E+00 0.37018481E+04</pdfrwt>
<totfact> 0.30637741E-01</totfact>
</mgrwt>
</event>
<event>
12    1  0.1442183E-007  0.1501033E+04  0.7818608E-02  0.8883766E-01
          1   -1    0    0  501    0  0.00000000000E+00  0.00000000000E+00  0.94071352717E+03  0.94071352717E+03  0.00000000000E+00 0. -1.
         -1   -1    0    0    0  501 -0.00000000000E+00 -0.00000000000E+00 -0.59877440613E+03  0.59877440613E+03  0.00000000000E+00 0.  1.
         23    2    1    2    0    0  0.77353447811E+02 -0.45976715365E+03  0.19714880360E+03  0.51377334515E+03  0.87897713096E+02 0.  0.
        254    2    1    2    0    0 -0.77353447811E+02  0.45976715365E+03  0.14479031744E+03  0.10257145881E+04  0.90208469050E+03 0.  0.
        -24    2    4    4    0    0 -0.35886200320E+03  0.19263897421E+02 -0.17557106801E+03  0.40794505028E+03  0.80255398808E+02 0.  0.
         24    2    4    4    0    0  0.28150855539E+03  0.44050325622E+03  0.32036138544E+03  0.61776953786E+03  0.75614807597E+02 0.  0.
         11    1    3    3    0    0  0.69549059592E+02 -0.32359020262E+03  0.98127353624E+02  0.34521973937E+03  0.00000000000E+00 0. -1.
        -11    1    3    3    0    0  0.78043882194E+01 -0.13617695102E+03  0.99021449979E+02  0.16855360578E+03  0.00000000000E+00 0.  1.
          2    1    6    6  502    0  0.74695334766E+02  0.91375118567E+02  0.10702793754E+03  0.15932289460E+03  0.00000000000E+00 0. -1.
          1    1    5    5  503    0 -0.80539412803E+02  0.38064195052E+02 -0.36889921013E+02  0.96417561844E+02  0.00000000000E+00 0. -1.
         -4    1    5    5    0  503 -0.27832259040E+03 -0.18800297630E+02 -0.13868114700E+03  0.31152748843E+03  0.00000000000E+00 0.  1.
         -1    1    6    6    0  502  0.20681322062E+03  0.34912813766E+03  0.21333344791E+03  0.45844664327E+03  0.00000000000E+00 0.  1.
<mgrwt>
<rscale>  0 0.15010332E+04</rscale>
<asrwt>0</asrwt>
<pdfrwt beam="1">  1        1 0.14472516E+00 0.15010332E+04</pdfrwt>
<pdfrwt beam="2">  1       -1 0.92119139E-01 0.15010332E+04</pdfrwt>
<totfact> 0.18715355E+01</totfact>
</mgrwt>
</event>
<event>
12    1  0.2095814E-007  0.2539768E+04  0.7818608E-02  0.8388954E-01
         -2   -1    0    0    0  501 -0.00000000000E+00  0.00000000000E+00  0.96423317427E+03  0.96423317427E+03  0.00000000000E+00 0. -1.
          2   -1    0    0  501    0  0.00000000000E+00 -0.00000000000E+00 -0.16724219675E+04  0.16724219675E+04  0.00000000000E+00 0.  1.
         23    2    1    2    0    0 -0.24969909602E+03  0.57983463524E+03  0.63601538650E+03  0.90072929665E+03  0.90773626193E+02 0.  0.
        254    2    1    2    0    0  0.24969909602E+03 -0.57983463524E+03 -0.13442041797E+04  0.17359258451E+04  0.89888587716E+03 0.  0.
        -24    2    4    4    0    0 -0.17121582399E+02 -0.61310688281E+03 -0.13159725392E+04  0.14540950006E+04  0.80095870438E+02 0.  0.
         24    2    4    4    0    0  0.26682067842E+03  0.33272247572E+02 -0.28231640508E+02  0.28183084452E+03  0.79569356567E+02 0.  0.
         11    1    3    3    0    0 -0.13909531537E+03  0.37960549637E+03  0.35200198255E+03  0.53605338852E+03  0.00000000000E+00 0. -1.
        -11    1    3    3    0    0 -0.11060378065E+03  0.20022913887E+03  0.28401340395E+03  0.36467590813E+03  0.00000000000E+00 0.  1.
          4    1    6    6  502    0  0.41341768373E+02 -0.18948174685E+02  0.11714970017E+02  0.46961853228E+02  0.00000000000E+00 0. -1.
          1    1    5    5  503    0 -0.75033820193E+01 -0.32411230695E+02 -0.12060092185E+03  0.12510543940E+03  0.00000000000E+00 0. -1.
         -2    1    5    5    0  503 -0.96182003800E+01 -0.58069565212E+03 -0.11953716173E+04  0.13289895612E+04  0.00000000000E+00 0.  1.
         -3    1    6    6    0  502  0.22547891005E+03  0.52220422258E+02 -0.39946610525E+02  0.23486899129E+03  0.00000000000E+00 0.  1.
<mgrwt>
<rscale>  0 0.25397675E+04</rscale>
<asrwt>0</asrwt>
<pdfrwt beam="1">  1        2 0.25729568E+00 0.25397675E+04</pdfrwt>
<pdfrwt beam="2">  1       -2 0.14834357E+00 0.25397675E+04</pdfrwt>
<totfact> 0.27873685E+00</totfact>
</mgrwt>
</event>
<event>
12    1  0.1442183E-007  0.1197624E+04  0.7818608E-02  0.9114939E-01
         -2   -1    0    0    0  501 -0.00000000000E+00  0.00000000000E+00  0.10312653969E+04  0.10312653969E+04  0.00000000000E+00 0.  1.
          2   -1    0    0  501    0  0.00000000000E+00 -0.00000000000E+00 -0.34770451831E+03  0.34770451831E+03  0.00000000000E+00 0. -1.
         23    2    1    2    0    0 -0.15487659499E+03 -0.13874437563E+03  0.29080784002E+03  0.36835311442E+03  0.88758411629E+02 0.  0.
        254    2    1    2    0    0  0.15487659499E+03  0.13874437563E+03  0.39275303858E+03  0.10106168008E+04  0.90766436931E+03 0.  0.
        -24    2    4    4    0    0  0.17314087032E+03  0.50985104995E+03  0.29036885970E+03  0.61587764344E+03  0.71171222336E+02 0.  0.
         24    2    4    4    0    0 -0.18264275329E+02 -0.37110667432E+03  0.10238417888E+03  0.39473915737E+03  0.85338940696E+02 0.  0.
         13    1    3    3    0    0 -0.15724215709E+02  0.90302174706E+01  0.51258751760E+02  0.54371457763E+02  0.00000000000E+00 0. -1.
        -13    1    3    3    0    0 -0.13915237928E+03 -0.14777459311E+03  0.23954908826E+03  0.31398165666E+03  0.00000000000E+00 0.  1.
          4    1    6    6  502    0 -0.91480434614E+00 -0.13968788353E+02 -0.12918724488E+02  0.19048815119E+02  0.00000000000E+00 0. -1.
          1    1    5    5  503    0  0.53987266985E+01  0.10184853123E+03  0.54182544467E+02  0.11549033591E+03  0.00000000000E+00 0. -1.
         -2    1    5    5    0  503  0.16774214362E+03  0.40800251873E+03  0.23618631523E+03  0.50038730753E+03  0.00000000000E+00 0.  1.
         -3    1    6    6    0  502 -0.17349470983E+02 -0.35713788596E+03  0.11530290337E+03  0.37569034225E+03  0.00000000000E+00 0.  1.
<mgrwt>
<rscale>  0 0.11976237E+04</rscale>
<asrwt>0</asrwt>
<pdfrwt beam="1">  1        2 0.53493004E-01 0.11976237E+04</pdfrwt>
<pdfrwt beam="2">  1       -2 0.15865621E+00 0.11976237E+04</pdfrwt>
<totfact> 0.23651810E+01</totfact>
</mgrwt>
</event>
<event>
12    1  0.1442183E-007  0.1271342E+04  0.7818608E-02  0.9052605E-01
         -2   -1    0    0    0  501 -0.00000000000E+00  0.00000000000E+00  0.15260660156E+03  0.15260660156E+03  0.00000000000E+00 0.  1.
          2   -1    0    0  501    0  0.00000000000E+00 -0.00000000000E+00 -0.26478395182E+04  0.26478395182E+04  0.00000000000E+00 0. -1.
         23    2    1    2    0    0 -0.22463889109E+03  0.78547742682E+02 -0.20565320320E+03  0.32814935367E+03  0.93575525934E+02 0.  0.
        254    2    1    2    0    0  0.22463889109E+03 -0.78547742682E+02 -0.22895797135E+04  0.24722967661E+04  0.90191111326E+03 0.  0.
        -24    2    4    4    0    0  0.65658177243E+02 -0.22609092312E+03 -0.22150773209E+04  0.22290575008E+04  0.81863928592E+02 0.  0.
         24    2    4    4    0    0  0.15898071385E+03  0.14754318044E+03 -0.74502392598E+02  0.24323926530E+03  0.81060941362E+02 0.  0.
         13    1    3    3    0    0 -0.17898211148E+03  0.30539127153E+02 -0.11166685888E+03  0.21315891229E+03  0.00000000000E+00 0.  1.
        -13    1    3    3    0    0 -0.45656779615E+02  0.48008615529E+02 -0.93986344317E+02  0.11499044138E+03  0.00000000000E+00 0. -1.
          2    1    6    6  502    0  0.10758677835E+03  0.69184369728E+02 -0.77361298528E+02  0.14948632847E+03  0.00000000000E+00 0. -1.
          1    1    5    5  503    0  0.89172103193E+01 -0.16391667637E+03 -0.15525246745E+04  0.15611793806E+04  0.00000000000E+00 0. -1.
         -2    1    5    5    0  503  0.56740966924E+02 -0.62174246751E+02 -0.66255264638E+03  0.66787812025E+03  0.00000000000E+00 0.  1.
         -1    1    6    6    0  502  0.51393935496E+02  0.78358810707E+02  0.28589059297E+01  0.93752936830E+02  0.00000000000E+00 0.  1.
<mgrwt>
<rscale>  0 0.12713423E+04</rscale>
<asrwt>0</asrwt>
<pdfrwt beam="1">  1        2 0.40735990E+00 0.12713423E+04</pdfrwt>
<pdfrwt beam="2">  1       -2 0.23477940E-01 0.12713423E+04</pdfrwt>
<totfact> 0.45324670E+01</totfact>
</mgrwt>
</event>
<event>
12    1  0.1442183E-007  0.1338932E+04  0.7818608E-02  0.8999249E-01
          1   -1    0    0  501    0  0.00000000000E+00  0.00000000000E+00  0.32127862715E+04  0.32127862715E+04  0.00000000000E+00 0.  1.
         -1   -1    0    0    0  501 -0.00000000000E+00 -0.00000000000E+00 -0.13950023660E+03  0.13950023660E+03  0.00000000000E+00 0. -1.
         23    2    1    2    0    0 -0.21425929454E+03 -0.12807113006E+03  0.15058629112E+04  0.15291178583E+04  0.90934358776E+02 0.  0.
        254    2    1    2    0    0  0.21425929454E+03  0.12807113006E+03  0.15674231237E+04  0.18231686498E+04  0.89711728179E+03 0.  0.
        -24    2    4    4    0    0  0.34001098925E+03 -0.30220804682E+03  0.62754155562E+03  0.77894388460E+03  0.77511256967E+02 0.  0.
         24    2    4    4    0    0 -0.12575169472E+03  0.43027917687E+03  0.93988156810E+03  0.10442247652E+04  0.77938048959E+02 0.  0.
         13    1    3    3    0    0 -0.82196567918E+02 -0.70323541412E+02  0.41897642944E+03  0.43271575506E+03  0.00000000000E+00 0. -1.
        -13    1    3    3    0    0 -0.13206272662E+03 -0.57747588646E+02  0.10868864817E+04  0.10964021032E+04  0.00000000000E+00 0.  1.
          4    1    6    6  502    0 -0.34485772450E+02  0.17612066803E+03  0.45675554416E+03  0.49074778179E+03  0.00000000000E+00 0. -1.
          3    1    5    5  503    0  0.56770424278E+02 -0.68641205448E+02  0.17367460537E+03  0.19518546234E+03  0.00000000000E+00 0. -1.
         -4    1    5    5    0  503  0.28324056497E+03 -0.23356684137E+03  0.45386695025E+03  0.58375842226E+03  0.00000000000E+00 0.  1.
         -3    1    6    6    0  502 -0.91265922265E+02  0.25415850884E+03  0.48312602394E+03  0.55347698343E+03  0.00000000000E+00 0.  1.
<mgrwt>
<rscale>  0 0.13389316E+04</rscale>
<asrwt>0</asrwt>
<pdfrwt beam="1">  1        1 0.49427476E+00 0.13389316E+04</pdfrwt>
<pdfrwt beam="2">  1       -1 0.21461577E-01 0.13389316E+04</pdfrwt>
<totfact> 0.74883546E+00</totfact>
</mgrwt>
</event>
<event>
12    1  0.1442183E-007  0.1641101E+04  0.7818608E-02  0.8795689E-01
         -2   -1    0    0    0  501 -0.00000000000E+00  0.00000000000E+00  0.70542684819E+03  0.70542684819E+03  0.00000000000E+00 0.  1.
          2   -1    0    0  501    0  0.00000000000E+00 -0.00000000000E+00 -0.95446162063E+03  0.95446162063E+03  0.00000000000E+00 0. -1.
         23    2    1    2    0    0  0.26313500969E+02  0.12148765968E+03 -0.64906520276E+03  0.66704502515E+03  0.90618852082E+02 0.  0.
        254    2    1    2    0    0 -0.26313500969E+02 -0.12148765968E+03  0.40003043032E+03  0.99284344368E+03  0.90014560305E+03 0.  0.
        -24    2    4    4    0    0 -0.42830565132E+03  0.62627897086E+02  0.30034244171E+03  0.53280592077E+03  0.79426585363E+02 0.  0.
         24    2    4    4    0    0  0.40199215036E+03 -0.18411555676E+03  0.99687988607E+02  0.46003752291E+03  0.78743890048E+02 0.  0.
         13    1    3    3    0    0  0.11881802638E+02  0.13383053663E+03 -0.54970301933E+03  0.56588443981E+03  0.00000000000E+00 0. -1.
        -13    1    3    3    0    0  0.14431698331E+02 -0.12342876950E+02 -0.99362183435E+02  0.10116058533E+03  0.00000000000E+00 0.  1.
          2    1    6    6  502    0  0.31416607694E+03 -0.16706317076E+03  0.10324821747E+03  0.37050050113E+03  0.00000000000E+00 0. -1.
          1    1    5    5  503    0 -0.42548481145E+03  0.51748037369E+02  0.28980625190E+03  0.51740008483E+03  0.00000000000E+00 0. -1.
         -2    1    5    5    0  503 -0.28208398758E+01  0.10879859718E+02  0.10536189818E+02  0.15405835939E+02  0.00000000000E+00 0.  1.
         -1    1    6    6    0  502  0.87826073413E+02 -0.17052386005E+02 -0.35602288599E+01  0.89537021780E+02  0.00000000000E+00 0.  1.
<mgrwt>
<rscale>  0 0.16411007E+04</rscale>
<asrwt>0</asrwt>
<pdfrwt beam="1">  1        2 0.14684025E+00 0.16411007E+04</pdfrwt>
<pdfrwt beam="2">  1       -2 0.10852721E+00 0.16411007E+04</pdfrwt>
<totfact> 0.17500733E+01</totfact>
</mgrwt>
</event>
<event>
12    1  0.1442183E-007  0.2393864E+04  0.7818608E-02  0.8441805E-01
         -2   -1    0    0    0  501 -0.00000000000E+00  0.00000000000E+00  0.42431251325E+03  0.42431251325E+03  0.00000000000E+00 0.  1.
          2   -1    0    0  501    0  0.00000000000E+00 -0.00000000000E+00 -0.33763926745E+04  0.33763926745E+04  0.00000000000E+00 0. -1.
         23    2    1    2    0    0  0.55705565645E+03  0.30620399719E+03 -0.25491746298E+04  0.26288703944E+04  0.92716584718E+02 0.  0.
        254    2    1    2    0    0 -0.55705565645E+03 -0.30620399719E+03 -0.40290553144E+03  0.11718347933E+04  0.89821602265E+03 0.  0.
        -24    2    4    4    0    0 -0.36837388380E+03  0.20144879127E+03 -0.45263699960E+03  0.62241280280E+03  0.78971576607E+02 0.  0.
         24    2    4    4    0    0 -0.18868177265E+03 -0.50765278846E+03  0.49731468166E+02  0.54942199054E+03  0.77968838671E+02 0.  0.
         11    1    3    3    0    0  0.35739704851E+03  0.19069198748E+03 -0.17984961344E+04  0.18435521229E+04  0.00000000000E+00 0.  1.
        -11    1    3    3    0    0  0.19965860793E+03  0.11551200972E+03 -0.75067849535E+03  0.78531827146E+03  0.00000000000E+00 0. -1.
          2    1    6    6  502    0 -0.36210464395E+02 -0.15169029313E+03  0.44373468652E+02  0.16214236794E+03  0.00000000000E+00 0. -1.
          1    1    5    5  503    0 -0.21328348719E+03  0.15899052453E+03 -0.29507682840E+03  0.39728851916E+03  0.00000000000E+00 0. -1.
         -2    1    5    5    0  503 -0.15509039661E+03  0.42458266737E+02 -0.15756017120E+03  0.22512428364E+03  0.00000000000E+00 0.  1.
         -1    1    6    6    0  502 -0.15247130826E+03 -0.35596249533E+03  0.53579995140E+01  0.38727962260E+03  0.00000000000E+00 0.  1.
<mgrwt>
<rscale>  0 0.23938635E+04</rscale>
<asrwt>0</asrwt>
<pdfrwt beam="1">  1        2 0.51944502E+00 0.23938635E+04</pdfrwt>
<pdfrwt beam="2">  1       -2 0.65278848E-01 0.23938635E+04</pdfrwt>
<totfact> 0.19284179E+00</totfact>
</mgrwt>
</event>
<event>
12    1  0.1442183E-007  0.2869591E+04  0.7818608E-02  0.8281983E-01
         -1   -1    0    0    0  501 -0.00000000000E+00  0.00000000000E+00  0.11299975824E+04  0.11299975824E+04  0.00000000000E+00 0.  1.
          1   -1    0    0  501    0  0.00000000000E+00 -0.00000000000E+00 -0.18218072180E+04  0.18218072180E+04  0.00000000000E+00 0. -1.
         23    2    1    2    0    0 -0.84545122248E+03  0.51739220072E+02  0.69078586841E+03  0.10968431807E+04  0.91734021066E+02 0.  0.
        254    2    1    2    0    0  0.84545122248E+03 -0.51739220072E+02 -0.13825955039E+04  0.18549616197E+04  0.90102584120E+03 0.  0.
        -24    2    4    4    0    0  0.54643337275E+03  0.25299418316E+03 -0.12683614123E+04  0.14064030294E+04  0.81445204059E+02 0.  0.
         24    2    4    4    0    0  0.29901784973E+03 -0.30473340323E+03 -0.11423409161E+03  0.44855859029E+03  0.76689371695E+02 0.  0.
         13    1    3    3    0    0 -0.12214916539E+03 -0.13417014603E+02  0.69859637671E+02  0.14135347134E+03  0.00000000000E+00 0. -1.
        -13    1    3    3    0    0 -0.72330205709E+03  0.65156234675E+02  0.62092623074E+03  0.95548970938E+03  0.00000000000E+00 0.  1.
          2    1    6    6  502    0  0.27407314060E+03 -0.24194025725E+03 -0.10500642108E+03  0.38036498649E+03  0.00000000000E+00 0. -1.
          1    1    5    5  503    0  0.29932470325E+03  0.14080623699E+03 -0.60193762993E+03  0.68684101849E+03  0.00000000000E+00 0. -1.
         -2    1    5    5    0  503  0.24710866950E+03  0.11218794616E+03 -0.66642378239E+03  0.71956201090E+03  0.00000000000E+00 0.  1.
         -1    1    6    6    0  502  0.24944709130E+02 -0.62793145981E+02 -0.92276705347E+01  0.68193603801E+02  0.00000000000E+00 0.  1.
<mgrwt>
<rscale>  0 0.28695907E+04</rscale>
<asrwt>0</asrwt>
<pdfrwt beam="1">  1        1 0.28027803E+00 0.28695907E+04</pdfrwt>
<pdfrwt beam="2">  1       -1 0.17384578E+00 0.28695907E+04</pdfrwt>
<totfact> 0.78142716E-01</totfact>
</mgrwt>
</event>
<event>
12    1  0.1442183E-007  0.1638262E+04  0.7818608E-02  0.8797381E-01
         -2   -1    0    0    0  501 -0.00000000000E+00  0.00000000000E+00  0.23098678529E+03  0.23098678529E+03  0.00000000000E+00 0.  1.
          2   -1    0    0  501    0  0.00000000000E+00 -0.00000000000E+00 -0.29048231421E+04  0.29048231421E+04  0.00000000000E+00 0. -1.
         23    2    1    2    0    0  0.47105715871E+03 -0.18607816900E+03 -0.44708543878E+03  0.68201252880E+03  0.93465331167E+02 0.  0.
        254    2    1    2    0    0 -0.47105715871E+03  0.18607816900E+03 -0.22267509181E+04  0.24537973986E+04  0.89787643395E+03 0.  0.
        -24    2    4    4    0    0  0.78191681850E+02  0.91555216267E+02 -0.16191516746E+04  0.16255046771E+04  0.78211335259E+02 0.  0.
         24    2    4    4    0    0 -0.54924884056E+03  0.94522952733E+02 -0.60759924344E+03  0.82829272157E+03  0.79266099438E+02 0.  0.
         11    1    3    3    0    0  0.29140299871E+03 -0.13616467096E+03 -0.33520529644E+03  0.46456336063E+03  0.00000000000E+00 0. -1.
        -11    1    3    3    0    0  0.17965416000E+03 -0.49913498035E+02 -0.11188014233E+03  0.21744916817E+03  0.00000000000E+00 0.  1.
          4    1    6    6  502    0 -0.25549081825E+03  0.83820998283E+02 -0.29764437287E+03  0.40111555775E+03  0.00000000000E+00 0. -1.
          1    1    5    5  503    0  0.41609122897E+02  0.53142391077E+01 -0.78275848158E+03  0.78388162418E+03  0.00000000000E+00 0. -1.
         -2    1    5    5    0  503  0.36582558953E+02  0.86240977159E+02 -0.83639319306E+03  0.84162305289E+03  0.00000000000E+00 0.  1.
         -3    1    6    6    0  502 -0.29375802231E+03  0.10701954450E+02 -0.30995487057E+03  0.42717716382E+03  0.00000000000E+00 0.  1.
<mgrwt>
<rscale>  0 0.16382622E+04</rscale>
<asrwt>0</asrwt>
<pdfrwt beam="1">  1        2 0.44689588E+00 0.16382622E+04</pdfrwt>
<pdfrwt beam="2">  1       -2 0.35536428E-01 0.16382622E+04</pdfrwt>
<totfact> 0.14261914E+01</totfact>
</mgrwt>
</event>
<event>
12    1  0.1442183E-007  0.1827962E+04  0.7818608E-02  0.8691569E-01
          1   -1    0    0  501    0  0.00000000000E+00  0.00000000000E+00  0.41812598018E+03  0.41812598018E+03  0.00000000000E+00 0. -1.
         -1   -1    0    0    0  501 -0.00000000000E+00 -0.00000000000E+00 -0.19978704582E+04  0.19978704582E+04  0.00000000000E+00 0.  1.
         23    2    1    2    0    0  0.44821117104E+03  0.49478895470E+03 -0.39591473616E+03  0.78149326565E+03  0.90960883914E+02 0.  0.
        254    2    1    2    0    0 -0.44821117104E+03 -0.49478895470E+03 -0.11838297419E+04  0.16345031728E+04  0.90798590324E+03 0.  0.
        -24    2    4    4    0    0 -0.76438030519E+02 -0.68955892657E+03 -0.77451074509E+03  0.10427943688E+04  0.78860102060E+02 0.  0.
         24    2    4    4    0    0 -0.37177314052E+03  0.19476997187E+03 -0.40931899680E+03  0.59170880393E+03  0.80166436609E+02 0.  0.
         11    1    3    3    0    0  0.19893341146E+03  0.20733144348E+03 -0.22219299445E+03  0.36322246136E+03  0.00000000000E+00 0. -1.
        -11    1    3    3    0    0  0.24927775958E+03  0.28745751122E+03 -0.17372174171E+03  0.41827080429E+03  0.00000000000E+00 0.  1.
          4    1    6    6  502    0 -0.18942356644E+03  0.10217357389E+03 -0.15432592107E+03  0.26483431922E+03  0.00000000000E+00 0. -1.
          1    1    5    5  503    0 -0.65617908442E+02 -0.65492549754E+03 -0.75489009046E+03  0.10015448896E+04  0.00000000000E+00 0. -1.
         -2    1    5    5    0  503 -0.10820122077E+02 -0.34633429030E+02 -0.19620654631E+02  0.41249479225E+02  0.00000000000E+00 0.  1.
         -3    1    6    6    0  502 -0.18234957408E+03  0.92596397984E+02 -0.25499307573E+03  0.32687448471E+03  0.00000000000E+00 0.  1.
<mgrwt>
<rscale>  0 0.18279623E+04</rscale>
<asrwt>0</asrwt>
<pdfrwt beam="1">  1        1 0.64327075E-01 0.18279623E+04</pdfrwt>
<pdfrwt beam="2">  1       -1 0.30736468E+00 0.18279623E+04</pdfrwt>
<totfact> 0.15764420E+00</totfact>
</mgrwt>
</event>
<event>
12    1  0.1442183E-007  0.1069790E+04  0.7818608E-02  0.9235147E-01
         -2   -1    0    0    0  501 -0.00000000000E+00  0.00000000000E+00  0.88357224565E+02  0.88357224565E+02  0.00000000000E+00 0.  1.
          2   -1    0    0  501    0  0.00000000000E+00 -0.00000000000E+00 -0.32381380326E+04  0.32381380326E+04  0.00000000000E+00 0. -1.
         23    2    1    2    0    0  0.46668002522E+02  0.83220220831E+02 -0.60457359829E+03  0.61904136722E+03  0.92733332534E+02 0.  0.
        254    2    1    2    0    0 -0.46668002522E+02 -0.83220220831E+02 -0.25452072098E+04  0.27074538900E+04  0.91821746773E+03 0.  0.
        -24    2    4    4    0    0  0.11821797856E+03 -0.58425023327E+02 -0.25147421551E+04  0.25193630303E+04  0.76635486299E+02 0.  0.
         24    2    4    4    0    0 -0.16488598108E+03 -0.24795197504E+02 -0.30465054650E+02  0.18809085970E+03  0.81534430597E+02 0.  0.
         11    1    3    3    0    0  0.34652042356E+02 -0.47012930102E+01 -0.29293358872E+03  0.29501348036E+03  0.00000000000E+00 0. -1.
        -11    1    3    3    0    0  0.12015960166E+02  0.87921513841E+02 -0.31164000957E+03  0.32402788685E+03  0.00000000000E+00 0.  1.
          4    1    6    6  502    0 -0.77240508352E+02  0.28367202160E+02 -0.48341850009E+01  0.82426716746E+02  0.00000000000E+00 0. -1.
          3    1    5    5  503    0  0.70339529748E+02 -0.48760906354E+02 -0.94688267566E+03  0.95074290788E+03  0.00000000000E+00 0. -1.
         -4    1    5    5    0  503  0.47878448807E+02 -0.96641169729E+01 -0.15678594795E+04  0.15686201224E+04  0.00000000000E+00 0.  1.
         -3    1    6    6    0  502 -0.87645472726E+02 -0.53162399664E+02 -0.25630869649E+02  0.10566414295E+03  0.00000000000E+00 0.  1.
<mgrwt>
<rscale>  0 0.10697904E+04</rscale>
<asrwt>0</asrwt>
<pdfrwt beam="1">  1        2 0.49817514E+00 0.10697904E+04</pdfrwt>
<pdfrwt beam="2">  1       -2 0.13593418E-01 0.10697904E+04</pdfrwt>
<totfact> 0.51821803E+01</totfact>
</mgrwt>
</event>
<event>
12    1  0.1442183E-007  0.1647991E+04  0.7818608E-02  0.8791596E-01
         -2   -1    0    0    0  501 -0.00000000000E+00  0.00000000000E+00  0.26490020746E+03  0.26490020746E+03  0.00000000000E+00 0.  1.
          2   -1    0    0  501    0  0.00000000000E+00 -0.00000000000E+00 -0.25631114725E+04  0.25631114725E+04  0.00000000000E+00 0. -1.
         23    2    1    2    0    0  0.16395063688E+02  0.49050407334E+03 -0.29987363235E+03  0.58235183146E+03  0.91358722397E+02 0.  0.
        254    2    1    2    0    0 -0.16395063688E+02 -0.49050407334E+03 -0.19983376327E+04  0.22456598485E+04  0.89931741718E+03 0.  0.
        -24    2    4    4    0    0 -0.39209229299E+03 -0.26093692699E+03 -0.15079934093E+04  0.15818203653E+04  0.79291232808E+02 0.  0.
         24    2    4    4    0    0  0.37569722930E+03 -0.22956714634E+03 -0.49034422345E+03  0.66383948322E+03  0.79974491068E+02 0.  0.
         11    1    3    3    0    0  0.27193253817E+02  0.33218644261E+03 -0.24786632451E+03  0.41536131324E+03  0.00000000000E+00 0. -1.
        -11    1    3    3    0    0 -0.10798190129E+02  0.15831763073E+03 -0.52007307836E+02  0.16699051823E+03  0.00000000000E+00 0.  1.
          2    1    6    6  502    0  0.20321307568E+03 -0.77530491905E+02 -0.24385777172E+03  0.32676160137E+03  0.00000000000E+00 0. -1.
          3    1    5    5  503    0 -0.35675828811E+03 -0.25964713873E+03 -0.13662736898E+04  0.14357565630E+04  0.00000000000E+00 0. -1.
         -4    1    5    5    0  503 -0.35334004875E+02 -0.12897882676E+01 -0.14171971943E+03  0.14606380226E+03  0.00000000000E+00 0.  1.
         -1    1    6    6    0  502  0.17248415363E+03 -0.15203665444E+03 -0.24648645173E+03  0.33707788185E+03  0.00000000000E+00 0.  1.
<mgrwt>
<rscale>  0 0.16479912E+04</rscale>
<asrwt>0</asrwt>
<pdfrwt beam="1">  1        2 0.39432484E+00 0.16479912E+04</pdfrwt>
<pdfrwt beam="2">  1       -2 0.40753878E-01 0.16479912E+04</pdfrwt>
<totfact> 0.17462040E+01</totfact>
</mgrwt>
</event>
<event>
12    1  0.1442183E-007  0.2132475E+04  0.7818608E-02  0.8547071E-01
         -1   -1    0    0    0  501 -0.00000000000E+00  0.00000000000E+00  0.41956121195E+03  0.41956121195E+03  0.00000000000E+00 0.  1.
          1   -1    0    0  501    0  0.00000000000E+00 -0.00000000000E+00 -0.27096455481E+04  0.27096455481E+04  0.00000000000E+00 0. -1.
         23    2    1    2    0    0 -0.56346024206E+03 -0.52275776436E+03 -0.33462798343E+03  0.84328735076E+03  0.91621744516E+02 0.  0.
        254    2    1    2    0    0  0.56346024206E+03  0.52275776436E+03 -0.19554563527E+04  0.22859194093E+04  0.90047480461E+03 0.  0.
        -24    2    4    4    0    0  0.69785484171E+03  0.37449452721E+03 -0.19014744136E+04  0.20613275909E+04  0.78860385551E+02 0.  0.
         24    2    4    4    0    0 -0.13439459964E+03  0.14826323715E+03 -0.53981939104E+02  0.22459181837E+03  0.86507451849E+02 0.  0.
         11    1    3    3    0    0 -0.35872515832E+03 -0.30246811072E+03 -0.16128943645E+03  0.49617031302E+03  0.00000000000E+00 0.  1.
        -11    1    3    3    0    0 -0.20473508374E+03 -0.22028965364E+03 -0.17333854698E+03  0.34711703773E+03  0.00000000000E+00 0. -1.
          4    1    6    6  502    0 -0.28191775290E+02  0.92975119519E+02 -0.12901368781E+02  0.98008134152E+02  0.00000000000E+00 0. -1.
          1    1    5    5  503    0  0.23811637579E+03  0.14103827722E+03 -0.75926337877E+03  0.80812875360E+03  0.00000000000E+00 0. -1.
         -2    1    5    5    0  503  0.45973846591E+03  0.23345624999E+03 -0.11422110348E+04  0.12531988373E+04  0.00000000000E+00 0.  1.
         -3    1    6    6    0  502 -0.10620282435E+03  0.55288117630E+02 -0.41080570322E+02  0.12658368422E+03  0.00000000000E+00 0.  1.
<mgrwt>
<rscale>  0 0.21324748E+04</rscale>
<asrwt>0</asrwt>
<pdfrwt beam="1">  1        1 0.41686855E+00 0.21324748E+04</pdfrwt>
<pdfrwt beam="2">  1       -1 0.64547879E-01 0.21324748E+04</pdfrwt>
<totfact> 0.21573925E+00</totfact>
</mgrwt>
</event>
<event>
12    1  0.1442183E-007  0.1790379E+04  0.7818608E-02  0.8711433E-01
         -2   -1    0    0    0  501 -0.00000000000E+00  0.00000000000E+00  0.19081954095E+04  0.19081954095E+04  0.00000000000E+00 0. -1.
          2   -1    0    0  501    0  0.00000000000E+00 -0.00000000000E+00 -0.41995905258E+03  0.41995905258E+03  0.00000000000E+00 0.  1.
         23    2    1    2    0    0 -0.16546875378E+03  0.28336957075E+03 -0.19511670327E+03  0.39291041133E+03  0.92896939282E+02 0.  0.
        254    2    1    2    0    0  0.16546875378E+03 -0.28336957075E+03  0.16833530602E+04  0.19352440508E+04  0.89655662881E+03 0.  0.
        -24    2    4    4    0    0  0.52223114020E+03 -0.10843889131E+03  0.81450115732E+03  0.97701821844E+03  0.81658477430E+02 0.  0.
         24    2    4    4    0    0 -0.35676238642E+03 -0.17493067944E+03  0.86885190291E+03  0.95822583237E+03  0.73572913768E+02 0.  0.
         13    1    3    3    0    0 -0.98420045344E+02  0.21098904083E+03 -0.17732619290E+03  0.29265587191E+03  0.00000000000E+00 0.  1.
        -13    1    3    3    0    0 -0.67048708433E+02  0.72380529924E+02 -0.17790510377E+02  0.10025453942E+03  0.00000000000E+00 0. -1.
          4    1    6    6  502    0 -0.86808318795E+02 -0.78129186842E+02  0.27396022961E+03  0.29781548223E+03  0.00000000000E+00 0. -1.
          1    1    5    5  503    0  0.25304816744E+03 -0.25433849811E+02  0.33068577104E+03  0.41717302757E+03  0.00000000000E+00 0. -1.
         -4    1    5    5    0  503  0.26918297276E+03 -0.83005041503E+02  0.48381538628E+03  0.55984519087E+03  0.00000000000E+00 0.  1.
         -3    1    6    6    0  502 -0.26995406763E+03 -0.96801492593E+02  0.59489167330E+03  0.66041035013E+03  0.00000000000E+00 0.  1.
<mgrwt>
<rscale>  0 0.17903787E+04</rscale>
<asrwt>0</asrwt>
<pdfrwt beam="1">  1        2 0.64609086E-01 0.17903787E+04</pdfrwt>
<pdfrwt beam="2">  1       -2 0.29356852E+00 0.17903787E+04</pdfrwt>
<totfact> 0.24776981E+00</totfact>
</mgrwt>
</event>
<event>
12    1  0.1442183E-007  0.1649184E+04  0.7818608E-02  0.8790889E-01
          1   -1    0    0  501    0  0.00000000000E+00  0.00000000000E+00  0.19549561367E+04  0.19549561367E+04  0.00000000000E+00 0. -1.
         -1   -1    0    0    0  501 -0.00000000000E+00 -0.00000000000E+00 -0.34780944820E+03  0.34780944820E+03  0.00000000000E+00 0.  1.
         23    2    1    2    0    0  0.22309976382E+03  0.24594940548E+03 -0.87690471827E+02  0.35513072268E+03  0.90352624046E+02 0.  0.
        254    2    1    2    0    0 -0.22309976382E+03 -0.24594940548E+03  0.16948371603E+04  0.19476348622E+04  0.90030213916E+03 0.  0.
        -24    2    4    4    0    0 -0.21905080617E+03 -0.13589666347E+03  0.23784134813E+02  0.27081170518E+03  0.79511859287E+02 0.  0.
         24    2    4    4    0    0 -0.40489576534E+01 -0.11005274201E+03  0.16710530255E+04  0.16768231570E+04  0.84792014899E+02 0.  0.
         13    1    3    3    0    0  0.35608254586E+02  0.50203942822E+01 -0.24106724944E+02  0.43293028780E+02  0.00000000000E+00 0. -1.
        -13    1    3    3    0    0  0.18749150924E+03  0.24092901120E+03 -0.63583746883E+02  0.31183769390E+03  0.00000000000E+00 0.  1.
          2    1    6    6  502    0  0.34239047687E+02 -0.88854068195E+02  0.11425138465E+04  0.11464751403E+04  0.00000000000E+00 0. -1.
          3    1    5    5  503    0 -0.17451442709E+03 -0.67022252119E+02  0.26127557855E+02  0.18875888541E+03  0.00000000000E+00 0. -1.
         -4    1    5    5    0  503 -0.44536379081E+02 -0.68874411355E+02 -0.23434230417E+01  0.82052819773E+02  0.00000000000E+00 0.  1.
         -1    1    6    6    0  502 -0.38288005340E+02 -0.21198673811E+02  0.52853917898E+03  0.53034801672E+03  0.00000000000E+00 0.  1.
<mgrwt>
<rscale>  0 0.16491843E+04</rscale>
<asrwt>0</asrwt>
<pdfrwt beam="1">  1        1 0.30076248E+00 0.16491843E+04</pdfrwt>
<pdfrwt beam="2">  1       -1 0.53509147E-01 0.16491843E+04</pdfrwt>
<totfact> 0.10770212E+01</totfact>
</mgrwt>
</event>
<event>
12    1  0.1442183E-007  0.2073476E+04  0.7818608E-02  0.8573018E-01
         -1   -1    0    0    0  501 -0.00000000000E+00  0.00000000000E+00  0.50941455742E+03  0.50941455742E+03  0.00000000000E+00 0.  1.
          1   -1    0    0  501    0  0.00000000000E+00 -0.00000000000E+00 -0.21099225461E+04  0.21099225461E+04  0.00000000000E+00 0. -1.
         23    2    1    2    0    0  0.15627343299E+03  0.18166619925E+03 -0.16669684363E+04  0.16866400907E+04  0.92450170879E+02 0.  0.
        254    2    1    2    0    0 -0.15627343299E+03 -0.18166619925E+03  0.66460447607E+02  0.93269701284E+03  0.89893422054E+03 0.  0.
        -24    2    4    4    0    0 -0.38839206402E+03 -0.16052871818E+03 -0.27775640525E+03  0.51007940112E+03  0.80090636383E+02 0.  0.
         24    2    4    4    0    0  0.23211863103E+03 -0.21137481071E+02  0.34421685286E+03  0.42261761172E+03  0.76121954557E+02 0.  0.
         11    1    3    3    0    0  0.60216145830E+02  0.13579795967E+03 -0.86941276636E+03  0.88201226090E+03  0.00000000000E+00 0. -1.
        -11    1    3    3    0    0  0.96057287163E+02  0.45868239578E+02 -0.79755566996E+03  0.80462782981E+03  0.00000000000E+00 0.  1.
          2    1    6    6  502    0  0.79103425904E+02  0.27779265195E+02  0.10307995708E+03  0.13287030186E+03  0.00000000000E+00 0. -1.
          3    1    5    5  503    0 -0.23986315017E+02 -0.30505089610E+02 -0.11732120721E+02  0.40540676571E+02  0.00000000000E+00 0. -1.
         -4    1    5    5    0  503 -0.36440574900E+03 -0.13002362857E+03 -0.26602428453E+03  0.46953872455E+03  0.00000000000E+00 0.  1.
         -1    1    6    6    0  502  0.15301520512E+03 -0.48916746266E+02  0.24113689578E+03  0.28974730986E+03  0.00000000000E+00 0.  1.
<mgrwt>
<rscale>  0 0.20734756E+04</rscale>
<asrwt>0</asrwt>
<pdfrwt beam="1">  1        1 0.32460348E+00 0.20734756E+04</pdfrwt>
<pdfrwt beam="2">  1       -1 0.78371469E-01 0.20734756E+04</pdfrwt>
<totfact> 0.37689509E+00</totfact>
</mgrwt>
</event>
<event>
12    1  0.1442183E-007  0.1206806E+04  0.7818608E-02  0.9106920E-01
          2   -1    0    0  501    0  0.00000000000E+00  0.00000000000E+00  0.51090832260E+03  0.51090832260E+03  0.00000000000E+00 0.  1.
         -2   -1    0    0    0  501 -0.00000000000E+00 -0.00000000000E+00 -0.71264265901E+03  0.71264265901E+03  0.00000000000E+00 0. -1.
         23    2    1    2    0    0 -0.19206222050E+03 -0.15783712773E+03 -0.95345504840E+02  0.28089268198E+03  0.89495687427E+02 0.  0.
        254    2    1    2    0    0  0.19206222050E+03  0.15783712773E+03 -0.10638883157E+03  0.94265829963E+03  0.90304243031E+03 0.  0.
        -24    2    4    4    0    0 -0.42272211984E+02  0.44908367332E+03 -0.26434300914E+03  0.52898848604E+03  0.80551265222E+02 0.  0.
         24    2    4    4    0    0  0.23433443248E+03 -0.29124654560E+03  0.15795417756E+03  0.41366981359E+03  0.80224783564E+02 0.  0.
         11    1    3    3    0    0 -0.16711995586E+03 -0.14652977596E+03 -0.49837769707E+02  0.22778028488E+03  0.00000000000E+00 0.  1.
        -11    1    3    3    0    0 -0.24942264632E+02 -0.11307351762E+02 -0.45507735133E+02  0.53112397101E+02  0.00000000000E+00 0. -1.
          4    1    6    6  502    0  0.43435573588E+02 -0.24692863752E+02  0.51577712065E+00  0.49966514780E+02  0.00000000000E+00 0. -1.
          3    1    5    5  503    0  0.13167486695E+02  0.25276954597E+02 -0.30658987118E+02  0.41860251201E+02  0.00000000000E+00 0. -1.
         -4    1    5    5    0  503 -0.55439698679E+02  0.42380671872E+03 -0.23368402202E+03  0.48712823483E+03  0.00000000000E+00 0.  1.
         -3    1    6    6    0  502  0.19089885889E+03 -0.26655368184E+03  0.15743840044E+03  0.36370329881E+03  0.00000000000E+00 0.  1.
<mgrwt>
<rscale>  0 0.12068058E+04</rscale>
<asrwt>0</asrwt>
<pdfrwt beam="1">  1        2 0.78601280E-01 0.12068058E+04</pdfrwt>
<pdfrwt beam="2">  1       -2 0.10963733E+00 0.12068058E+04</pdfrwt>
<totfact> 0.39224746E+01</totfact>
</mgrwt>
</event>
<event>
12    1  0.1442183E-007  0.1573820E+04  0.7818608E-02  0.8836795E-01
          1   -1    0    0  501    0  0.00000000000E+00  0.00000000000E+00  0.76360814803E+03  0.76360814803E+03  0.00000000000E+00 0. -1.
         -1   -1    0    0    0  501 -0.00000000000E+00 -0.00000000000E+00 -0.81092321846E+03  0.81092321846E+03  0.00000000000E+00 0.  1.
         23    2    1    2    0    0 -0.31842023307E+03  0.14807338100E+03  0.35259208054E+03  0.50633382463E+03  0.93464408820E+02 0.  0.
        254    2    1    2    0    0  0.31842023307E+03 -0.14807338100E+03 -0.39990715097E+03  0.10681975419E+04  0.92617659659E+03 0.  0.
        -24    2    4    4    0    0 -0.13033437027E+03 -0.29474825613E+03 -0.47917133205E+03  0.58314741168E+03  0.81192091482E+02 0.  0.
         24    2    4    4    0    0  0.44875460333E+03  0.14667487513E+03  0.79264181084E+02  0.48505013019E+03  0.78080761961E+02 0.  0.
         11    1    3    3    0    0 -0.24572884624E+03  0.10113708794E+03  0.31467267170E+03  0.41186195108E+03  0.00000000000E+00 0. -1.
        -11    1    3    3    0    0 -0.72691386822E+02  0.46936293059E+02  0.37919408834E+02  0.94471873543E+02  0.00000000000E+00 0.  1.
          2    1    6    6  502    0  0.10157695178E+03  0.84706808733E+01  0.39304434351E+02  0.10924499131E+03  0.00000000000E+00 0. -1.
          3    1    5    5  503    0 -0.82515710251E+02 -0.14451859774E+03 -0.31038304086E+03  0.35218191263E+03  0.00000000000E+00 0. -1.
         -4    1    5    5    0  503 -0.47818660017E+02 -0.15022965839E+03 -0.16878829120E+03  0.23096549905E+03  0.00000000000E+00 0.  1.
         -3    1    6    6    0  502  0.34717765156E+03  0.13820419426E+03  0.39959746733E+02  0.37580513888E+03  0.00000000000E+00 0.  1.
<mgrwt>
<rscale>  0 0.15738203E+04</rscale>
<asrwt>0</asrwt>
<pdfrwt beam="1">  1        1 0.11747818E+00 0.15738203E+04</pdfrwt>
<pdfrwt beam="2">  1       -1 0.12475742E+00 0.15738203E+04</pdfrwt>
<totfact> 0.12878912E+01</totfact>
</mgrwt>
</event>
<event>
12    1  0.1442183E-007  0.1490457E+04  0.7818608E-02  0.8890824E-01
          2   -1    0    0  501    0  0.00000000000E+00  0.00000000000E+00  0.21429732765E+04  0.21429732765E+04  0.00000000000E+00 0.  1.
         -2   -1    0    0    0  501 -0.00000000000E+00 -0.00000000000E+00 -0.25915646142E+03  0.25915646142E+03  0.00000000000E+00 0. -1.
         23    2    1    2    0    0 -0.26198276124E+03  0.77380950915E+01  0.12159469952E+04  0.12474174370E+04  0.93959150227E+02 0.  0.
        254    2    1    2    0    0  0.26198276124E+03 -0.77380950915E+01  0.66786981988E+03  0.11547123008E+04  0.90477375960E+03 0.  0.
        -24    2    4    4    0    0  0.32064175193E+02  0.22732112674E+03 -0.13860783624E+03  0.28014384360E+03  0.81027370977E+02 0.  0.
         24    2    4    4    0    0  0.22991858605E+03 -0.23505922183E+03  0.80647765612E+03  0.87456845722E+03  0.79676737949E+02 0.  0.
         11    1    3    3    0    0 -0.11587977264E+03  0.49385308153E+02  0.51265494000E+03  0.52790351190E+03  0.00000000000E+00 0.  1.
        -11    1    3    3    0    0 -0.14610298861E+03 -0.41647213061E+02  0.70329205515E+03  0.71951392514E+03  0.00000000000E+00 0. -1.
          2    1    6    6  502    0  0.19903818825E+03 -0.15731552872E+03  0.57670577106E+03  0.63004279405E+03  0.00000000000E+00 0. -1.
          1    1    5    5  503    0  0.29450220043E+01  0.10930750566E+03 -0.11034680453E+03  0.15534870845E+03  0.00000000000E+00 0. -1.
         -2    1    5    5    0  503  0.29119153189E+02  0.11801362108E+03 -0.28261031707E+02  0.12479513515E+03  0.00000000000E+00 0.  1.
         -1    1    6    6    0  502  0.30880397797E+02 -0.77743693113E+02  0.22977188506E+03  0.24452566317E+03  0.00000000000E+00 0.  1.
<mgrwt>
<rscale>  0 0.14904568E+04</rscale>
<asrwt>0</asrwt>
<pdfrwt beam="1">  1        2 0.32968818E+00 0.14904568E+04</pdfrwt>
<pdfrwt beam="2">  1       -2 0.39870226E-01 0.14904568E+04</pdfrwt>
<totfact> 0.32020946E+01</totfact>
</mgrwt>
</event>
<event>
12    1  0.1442183E-007  0.2053639E+04  0.7818608E-02  0.8581945E-01
         -2   -1    0    0    0  501 -0.00000000000E+00  0.00000000000E+00  0.62224867112E+03  0.62224867112E+03  0.00000000000E+00 0.  1.
          2   -1    0    0  501    0  0.00000000000E+00 -0.00000000000E+00 -0.16944323912E+04  0.16944323912E+04  0.00000000000E+00 0. -1.
         23    2    1    2    0    0 -0.46315463810E+03 -0.69669500225E+03 -0.38737873406E+03  0.92625867333E+03  0.89424277339E+02 0.  0.
        254    2    1    2    0    0  0.46315463810E+03  0.69669500225E+03 -0.68480498601E+03  0.13904223890E+04  0.87431138959E+03 0.  0.
        -24    2    4    4    0    0  0.55389979170E+03  0.62965451687E+02 -0.28246096157E+03  0.62996230823E+03  0.79364271710E+02 0.  0.
         24    2    4    4    0    0 -0.90745153598E+02  0.63372955056E+03 -0.40234402444E+03  0.76046008076E+03  0.81061669540E+02 0.  0.
         13    1    3    3    0    0 -0.13822176888E+03 -0.22749396901E+03 -0.16825789115E+03  0.31491186269E+03  0.00000000000E+00 0. -1.
        -13    1    3    3    0    0 -0.32493286922E+03 -0.46920103323E+03 -0.21912084291E+03  0.61134681065E+03  0.00000000000E+00 0.  1.
          2    1    6    6  502    0 -0.11818285835E+02  0.17090091967E+02 -0.16458922277E+01  0.20843514213E+02  0.00000000000E+00 0. -1.
          1    1    5    5  503    0  0.81252214777E+02  0.32479932900E+02 -0.63808271526E+02  0.10829757136E+03  0.00000000000E+00 0. -1.
         -2    1    5    5    0  503  0.47264757692E+03  0.30485518787E+02 -0.21865269004E+03  0.52166473687E+03  0.00000000000E+00 0.  1.
         -1    1    6    6    0  502 -0.78926867763E+02  0.61663945859E+03 -0.40069813221E+03  0.73961656654E+03  0.00000000000E+00 0.  1.
<mgrwt>
<rscale>  0 0.20536390E+04</rscale>
<asrwt>0</asrwt>
<pdfrwt beam="1">  1        2 0.26068191E+00 0.20536390E+04</pdfrwt>
<pdfrwt beam="2">  1       -2 0.95730564E-01 0.20536390E+04</pdfrwt>
<totfact> 0.83643013E+00</totfact>
</mgrwt>
</event>
<event>
12    1  0.1442183E-007  0.1832363E+04  0.7818608E-02  0.8689276E-01
         -1   -1    0    0    0  501 -0.00000000000E+00  0.00000000000E+00  0.16307125147E+04  0.16307125147E+04  0.00000000000E+00 0.  1.
          1   -1    0    0  501    0  0.00000000000E+00 -0.00000000000E+00 -0.51473754538E+03  0.51473754538E+03  0.00000000000E+00 0. -1.
         23    2    1    2    0    0  0.42127370865E+03 -0.41055411683E+03  0.24030745392E+01  0.59582384037E+03  0.94731481261E+02 0.  0.
        254    2    1    2    0    0 -0.42127370865E+03  0.41055411683E+03  0.11135718948E+04  0.15496262197E+04  0.90292460125E+03 0.  0.
        -24    2    4    4    0    0  0.13388131868E+03  0.33908251145E+03  0.95601361039E+02  0.38519894582E+03  0.79608106167E+02 0.  0.
         24    2    4    4    0    0 -0.55515502733E+03  0.71471605380E+02  0.10179705338E+04  0.11644272739E+04  0.79508325798E+02 0.  0.
         11    1    3    3    0    0  0.27052073911E+03 -0.22612958243E+03 -0.36498574834E+02  0.35446890457E+03  0.00000000000E+00 0. -1.
        -11    1    3    3    0    0  0.15075296953E+03 -0.18442453440E+03  0.38901649373E+02  0.24135493580E+03  0.00000000000E+00 0.  1.
          4    1    6    6  502    0 -0.50790573245E+03  0.56480730526E+02  0.87744714654E+03  0.10154170576E+04  0.00000000000E+00 0. -1.
          3    1    5    5  503    0  0.90115496601E+02  0.12519441038E+03  0.29099535998E+02  0.15697524044E+03  0.00000000000E+00 0. -1.
         -4    1    5    5    0  503  0.43765822082E+02  0.21388810107E+03  0.66501825041E+02  0.22822370538E+03  0.00000000000E+00 0.  1.
         -3    1    6    6    0  502 -0.47249294874E+02  0.14990874854E+02  0.14052338724E+03  0.14901021628E+03  0.00000000000E+00 0.  1.
<mgrwt>
<rscale>  0 0.18323635E+04</rscale>
<asrwt>0</asrwt>
<pdfrwt beam="1">  1        1 0.79190392E-01 0.18323635E+04</pdfrwt>
<pdfrwt beam="2">  1       -1 0.25087885E+00 0.18323635E+04</pdfrwt>
<totfact> 0.27564686E+00</totfact>
</mgrwt>
</event>
<event>
12    1  0.1442183E-007  0.1887520E+04  0.7818608E-02  0.8661094E-01
         -2   -1    0    0    0  501 -0.00000000000E+00  0.00000000000E+00  0.39663753388E+03  0.39663753388E+03  0.00000000000E+00 0.  1.
          2   -1    0    0  501    0  0.00000000000E+00 -0.00000000000E+00 -0.22455832695E+04  0.22455832695E+04  0.00000000000E+00 0. -1.
         23    2    1    2    0    0  0.48902293572E+03  0.29304623867E+02  0.35202627122E+02  0.49951971125E+03  0.90986396375E+02 0.  0.
        254    2    1    2    0    0 -0.48902293572E+03 -0.29304623867E+02 -0.18841483627E+04  0.21427010921E+04  0.89507023454E+03 0.  0.
        -24    2    4    4    0    0 -0.55044189772E+03 -0.35375935449E+03 -0.10233157892E+04  0.12173206628E+04  0.81008814838E+02 0.  0.
         24    2    4    4    0    0  0.61418961993E+02  0.32445473063E+03 -0.86083257349E+03  0.92538042925E+03  0.79076280572E+02 0.  0.
         11    1    3    3    0    0  0.22281115287E+03  0.58275671153E+01 -0.28736928112E+02  0.22473224383E+03  0.00000000000E+00 0. -1.
        -11    1    3    3    0    0  0.26621178285E+03  0.23477056752E+02  0.63939555234E+02  0.27478746741E+03  0.00000000000E+00 0.  1.
          4    1    6    6  502    0  0.26210892627E+02  0.51153166819E+02 -0.22842046445E+03  0.23554100694E+03  0.00000000000E+00 0. -1.
          1    1    5    5  503    0 -0.61661567704E+02 -0.36935806595E+02 -0.71262404717E+02  0.10121626878E+03  0.00000000000E+00 0. -1.
         -2    1    5    5    0  503 -0.48878033001E+03 -0.31682354790E+03 -0.95205338448E+03  0.11161043940E+04  0.00000000000E+00 0.  1.
         -3    1    6    6    0  502  0.35208069366E+02  0.27330156381E+03 -0.63241210904E+03  0.68983942232E+03  0.00000000000E+00 0.  1.
<mgrwt>
<rscale>  0 0.18875197E+04</rscale>
<asrwt>0</asrwt>
<pdfrwt beam="1">  1        2 0.34547435E+00 0.18875197E+04</pdfrwt>
<pdfrwt beam="2">  1       -2 0.61021160E-01 0.18875197E+04</pdfrwt>
<totfact> 0.11404579E+01</totfact>
</mgrwt>
</event>
<event>
12    1  0.1442183E-007  0.1534271E+04  0.7818608E-02  0.8861978E-01
          2   -1    0    0  501    0  0.00000000000E+00  0.00000000000E+00  0.18498664897E+04  0.18498664897E+04  0.00000000000E+00 0. -1.
         -2   -1    0    0    0  501 -0.00000000000E+00 -0.00000000000E+00 -0.31812940914E+03  0.31812940914E+03  0.00000000000E+00 0.  1.
         23    2    1    2    0    0  0.29284039956E+03  0.30638233183E+03  0.12858454405E+03  0.45295762323E+03  0.94926237695E+02 0.  0.
        254    2    1    2    0    0 -0.29284039956E+03 -0.30638233183E+03  0.14031525365E+04  0.17150382756E+04  0.89044573851E+03 0.  0.
        -24    2    4    4    0    0 -0.37070765789E+03 -0.81399332967E+02  0.14113740697E+04  0.14636220523E+04  0.78503046320E+02 0.  0.
         24    2    4    4    0    0  0.77867258325E+02 -0.22498299886E+03 -0.82215332116E+01  0.25141622331E+03  0.80385720382E+02 0.  0.
         13    1    3    3    0    0  0.73976319134E+02  0.12940988351E+03  0.73333921149E+02  0.16612428400E+03  0.00000000000E+00 0. -1.
        -13    1    3    3    0    0  0.21886408043E+03  0.17697244832E+03  0.55250622905E+02  0.28683333924E+03  0.00000000000E+00 0.  1.
          4    1    6    6  502    0  0.84461559156E+02 -0.12694690402E+03 -0.13090697874E+02  0.15303802725E+03  0.00000000000E+00 0. -1.
          3    1    5    5  503    0 -0.14985457350E+03 -0.52185746731E+02  0.46312529914E+03  0.48955570476E+03  0.00000000000E+00 0. -1.
         -4    1    5    5    0  503 -0.22085308439E+03 -0.29213586236E+02  0.94824877057E+03  0.97406634753E+03  0.00000000000E+00 0.  1.
         -3    1    6    6    0  502 -0.65943008307E+01 -0.98036094843E+02  0.48691646627E+01  0.98378196060E+02  0.00000000000E+00 0.  1.
<mgrwt>
<rscale>  0 0.15342711E+04</rscale>
<asrwt>0</asrwt>
<pdfrwt beam="1">  1        2 0.28459484E+00 0.15342711E+04</pdfrwt>
<pdfrwt beam="2">  1       -2 0.48942987E-01 0.15342711E+04</pdfrwt>
<totfact> 0.30840778E+01</totfact>
</mgrwt>
</event>
<event>
12    1  0.1442183E-007  0.2983480E+04  0.7818608E-02  0.8248464E-01
         -1   -1    0    0    0  501 -0.00000000000E+00  0.00000000000E+00  0.12048402483E+04  0.12048402483E+04  0.00000000000E+00 0.  1.
          1   -1    0    0  501    0  0.00000000000E+00 -0.00000000000E+00 -0.18469571723E+04  0.18469571723E+04  0.00000000000E+00 0. -1.
         23    2    1    2    0    0  0.12917798485E+03  0.45241178225E+03 -0.15918883742E+04  0.16624367383E+04  0.90685943845E+02 0.  0.
        254    2    1    2    0    0 -0.12917798485E+03 -0.45241178225E+03  0.94977145017E+03  0.13893606823E+04  0.89827274566E+03 0.  0.
        -24    2    4    4    0    0 -0.35003298665E+03 -0.43947514581E+03  0.19691157997E+03  0.60055627406E+03  0.78944109696E+02 0.  0.
         24    2    4    4    0    0  0.22085500179E+03 -0.12936636437E+02  0.75285987020E+03  0.78880440829E+03  0.80437068563E+02 0.  0.
         13    1    3    3    0    0  0.73508292903E+02  0.11639591988E+03 -0.50539976468E+03  0.52381332689E+03  0.00000000000E+00 0.  1.
        -13    1    3    3    0    0  0.55669691951E+02  0.33601586237E+03 -0.10864886095E+04  0.11386234114E+04  0.00000000000E+00 0. -1.
          4    1    6    6  502    0  0.62601037082E+02 -0.37842714521E+02  0.19017735777E+03  0.20376061517E+03  0.00000000000E+00 0. -1.
          3    1    5    5  503    0 -0.64476262267E+02 -0.43134039244E+02  0.41241254512E+02  0.87855419931E+02  0.00000000000E+00 0. -1.
         -4    1    5    5    0  503 -0.28555672438E+03 -0.39634110657E+03  0.15567032546E+03  0.51270085413E+03  0.00000000000E+00 0.  1.
         -3    1    6    6    0  502  0.15825396471E+03  0.24906078084E+02  0.56268251243E+03  0.58504379311E+03  0.00000000000E+00 0.  1.
<mgrwt>
<rscale>  0 0.29834801E+04</rscale>
<asrwt>0</asrwt>
<pdfrwt beam="1">  1        1 0.28414726E+00 0.29834801E+04</pdfrwt>
<pdfrwt beam="2">  1       -1 0.18536004E+00 0.29834801E+04</pdfrwt>
<totfact> 0.61474803E-01</totfact>
</mgrwt>
</event>
<event>
12    1  0.1442183E-007  0.1779771E+04  0.7818608E-02  0.8717132E-01
          2   -1    0    0  501    0  0.00000000000E+00  0.00000000000E+00  0.20194304383E+04  0.20194304383E+04  0.00000000000E+00 0. -1.
         -2   -1    0    0    0  501 -0.00000000000E+00 -0.00000000000E+00 -0.39213832317E+03  0.39213832317E+03  0.00000000000E+00 0.  1.
         23    2    1    2    0    0  0.31716446504E+03 -0.56431012800E+03  0.44626107104E+03  0.79176476478E+03  0.93291375628E+02 0.  0.
        254    2    1    2    0    0 -0.31716446504E+03  0.56431012800E+03  0.11810310441E+04  0.16198039967E+04  0.89993968804E+03 0.  0.
        -24    2    4    4    0    0 -0.40422769653E+03  0.60857871985E+03  0.41729701268E+03  0.84493935379E+03  0.77573358084E+02 0.  0.
         24    2    4    4    0    0  0.87063231485E+02 -0.44268591855E+02  0.76373403137E+03  0.77486464287E+03  0.87096668060E+02 0.  0.
         13    1    3    3    0    0  0.20836781265E+03 -0.40146381149E+03  0.35847766412E+03  0.57714519227E+03  0.00000000000E+00 0. -1.
        -13    1    3    3    0    0  0.10879665240E+03 -0.16284631651E+03  0.87783406916E+02  0.21461957251E+03  0.00000000000E+00 0.  1.
          2    1    6    6  502    0  0.10976676721E+01 -0.42932109103E+02  0.32097687914E+03  0.32383719337E+03  0.00000000000E+00 0. -1.
          1    1    5    5  503    0 -0.24114829759E+03  0.39324265008E+03  0.22415147023E+03  0.51287051473E+03  0.00000000000E+00 0. -1.
         -2    1    5    5    0  503 -0.16307939894E+03  0.21533606977E+03  0.19314554245E+03  0.33206883906E+03  0.00000000000E+00 0.  1.
         -1    1    6    6    0  502  0.85965563813E+02 -0.13364827514E+01  0.44275715224E+03  0.45102744950E+03  0.00000000000E+00 0.  1.
<mgrwt>
<rscale>  0 0.17797708E+04</rscale>
<asrwt>0</asrwt>
<pdfrwt beam="1">  1        2 0.31068160E+00 0.17797708E+04</pdfrwt>
<pdfrwt beam="2">  1       -2 0.60328974E-01 0.17797708E+04</pdfrwt>
<totfact> 0.15776659E+01</totfact>
</mgrwt>
</event>
<event>
12    1  0.1442183E-007  0.2435333E+04  0.7818608E-02  0.8426392E-01
         -2   -1    0    0    0  501 -0.00000000000E+00  0.00000000000E+00  0.18005940703E+04  0.18005940703E+04  0.00000000000E+00 0.  1.
          2   -1    0    0  501    0  0.00000000000E+00 -0.00000000000E+00 -0.82345725444E+03  0.82345725444E+03  0.00000000000E+00 0. -1.
         23    2    1    2    0    0  0.86597700331E+02 -0.56457169729E+03 -0.52902524819E+03  0.78425578010E+03  0.94599430897E+02 0.  0.
        254    2    1    2    0    0 -0.86597700331E+02  0.56457169729E+03  0.15061620640E+04  0.18397955446E+04  0.88886619902E+03 0.  0.
        -24    2    4    4    0    0 -0.97569292602E+02  0.42575462202E+02 -0.89321197879E+02  0.15917808475E+03  0.77633429870E+02 0.  0.
         24    2    4    4    0    0  0.10971592271E+02  0.52199623508E+03  0.15954832619E+04  0.16806174598E+04  0.79421420853E+02 0.  0.
         13    1    3    3    0    0  0.61790525088E+02 -0.52309632712E+03 -0.50718723188E+03  0.73122275992E+03  0.00000000000E+00 0. -1.
        -13    1    3    3    0    0  0.24807175243E+02 -0.41475370163E+02 -0.21838016308E+02  0.53033020185E+02  0.00000000000E+00 0.  1.
          2    1    6    6  502    0  0.97741008600E+01  0.90655345204E+01  0.68532430096E+02  0.69816981735E+02  0.00000000000E+00 0. -1.
          3    1    5    5  503    0 -0.45138683768E+01 -0.10812245355E+02  0.81151724005E+01  0.14252567503E+02  0.00000000000E+00 0. -1.
         -4    1    5    5    0  503 -0.93055424226E+02  0.53387707557E+02 -0.97436370279E+02  0.14492551725E+03  0.00000000000E+00 0.  1.
         -1    1    6    6    0  502  0.11974914110E+01  0.51293070056E+03  0.15269508318E+04  0.16108004781E+04  0.00000000000E+00 0.  1.
<mgrwt>
<rscale>  0 0.24353334E+04</rscale>
<asrwt>0</asrwt>
<pdfrwt beam="1">  1        2 0.12668573E+00 0.24353334E+04</pdfrwt>
<pdfrwt beam="2">  1       -2 0.27701447E+00 0.24353334E+04</pdfrwt>
<totfact> 0.13048388E+00</totfact>
</mgrwt>
</event>
<event>
12    1  0.1442183E-007  0.1718424E+04  0.7818608E-02  0.8750926E-01
         -2   -1    0    0    0  501 -0.00000000000E+00  0.00000000000E+00  0.32783783874E+03  0.32783783874E+03  0.00000000000E+00 0.  1.
          2   -1    0    0  501    0  0.00000000000E+00 -0.00000000000E+00 -0.22518618968E+04  0.22518618968E+04  0.00000000000E+00 0. -1.
         23    2    1    2    0    0  0.30262584271E+03 -0.25540040152E+03 -0.14189301159E+04  0.14760392763E+04  0.92290333152E+02 0.  0.
        254    2    1    2    0    0 -0.30262584271E+03  0.25540040152E+03 -0.50509394220E+03  0.11036604593E+04  0.89785007275E+03 0.  0.
        -24    2    4    4    0    0 -0.30072512489E+03  0.10599216339E+03  0.19575660884E+03  0.38253791984E+03  0.79653441642E+02 0.  0.
         24    2    4    4    0    0 -0.19007178186E+01  0.14940823813E+03 -0.70085055104E+03  0.72112253944E+03  0.80621260490E+02 0.  0.
         11    1    3    3    0    0  0.22758835577E+03 -0.17622924136E+03 -0.87014255163E+03  0.91651582930E+03  0.00000000000E+00 0.  1.
        -11    1    3    3    0    0  0.75037486939E+02 -0.79171160159E+02 -0.54878756428E+03  0.55952344701E+03  0.00000000000E+00 0. -1.
          4    1    6    6  502    0  0.38396108480E+02  0.69327179042E+02 -0.29237990206E+03  0.30292990283E+03  0.00000000000E+00 0. -1.
          1    1    5    5  503    0 -0.16491294175E+03  0.36556194314E+02  0.62864970231E+02  0.18023495272E+03  0.00000000000E+00 0. -1.
         -2    1    5    5    0  503 -0.13581218314E+03  0.69435969079E+02  0.13289163861E+03  0.20230296712E+03  0.00000000000E+00 0.  1.
         -3    1    6    6    0  502 -0.40296826299E+02  0.80081059084E+02 -0.40847064898E+03  0.41819263660E+03  0.00000000000E+00 0.  1.
<mgrwt>
<rscale>  0 0.17184243E+04</rscale>
<asrwt>0</asrwt>
<pdfrwt beam="1">  1        2 0.34644029E+00 0.17184243E+04</pdfrwt>
<pdfrwt beam="2">  1       -2 0.50436591E-01 0.17184243E+04</pdfrwt>
<totfact> 0.17062650E+01</totfact>
</mgrwt>
</event>
<event>
12    1  0.1442183E-007  0.1459309E+04  0.7818608E-02  0.8911972E-01
          2   -1    0    0  501    0  0.00000000000E+00  0.00000000000E+00  0.13112503009E+04  0.13112503009E+04  0.00000000000E+00 0. -1.
         -2   -1    0    0    0  501 -0.00000000000E+00 -0.00000000000E+00 -0.40602152528E+03  0.40602152528E+03  0.00000000000E+00 0.  1.
         23    2    1    2    0    0 -0.17663622605E+03 -0.62771670055E+02 -0.19516047990E+03  0.28555272927E+03  0.91170770328E+02 0.  0.
        254    2    1    2    0    0  0.17663622605E+03  0.62771670055E+02  0.11003892555E+04  0.14317190969E+04  0.89656144234E+03 0.  0.
        -24    2    4    4    0    0  0.52560204585E+03 -0.43382313341E+02  0.54714578799E+03  0.76419376357E+03  0.80523656504E+02 0.  0.
         24    2    4    4    0    0 -0.34896581980E+03  0.10615398340E+03  0.55324346750E+03  0.66752533332E+03  0.80410973772E+02 0.  0.
         13    1    3    3    0    0 -0.14753729275E+03 -0.31355635263E+02 -0.99361785080E+02  0.18061891636E+03  0.00000000000E+00 0.  1.
        -13    1    3    3    0    0 -0.29098933305E+02 -0.31416034792E+02 -0.95798694821E+02  0.10493381291E+03  0.00000000000E+00 0. -1.
          2    1    6    6  502    0 -0.26522186731E+03  0.43480879187E+02  0.38962096963E+03  0.47332623605E+03  0.00000000000E+00 0. -1.
          3    1    5    5  503    0  0.30410049146E+03 -0.94901144593E+01  0.26180482057E+03  0.40138377552E+03  0.00000000000E+00 0. -1.
         -4    1    5    5    0  503  0.22150155439E+03 -0.33892198881E+02  0.28534096742E+03  0.36280998805E+03  0.00000000000E+00 0.  1.
         -1    1    6    6    0  502 -0.83743952492E+02  0.62673104209E+02  0.16362249787E+03  0.19419909727E+03  0.00000000000E+00 0.  1.
<mgrwt>
<rscale>  0 0.14593092E+04</rscale>
<asrwt>0</asrwt>
<pdfrwt beam="1">  1        2 0.20173081E+00 0.14593092E+04</pdfrwt>
<pdfrwt beam="2">  1       -2 0.62464851E-01 0.14593092E+04</pdfrwt>
<totfact> 0.37516682E+01</totfact>
</mgrwt>
</event>
<event>
12    1  0.1442183E-007  0.2125504E+04  0.7818608E-02  0.8550091E-01
          2   -1    0    0  501    0  0.00000000000E+00  0.00000000000E+00  0.14227636372E+04  0.14227636372E+04  0.00000000000E+00 0.  1.
         -2   -1    0    0    0  501 -0.00000000000E+00 -0.00000000000E+00 -0.79383625180E+03  0.79383625180E+03  0.00000000000E+00 0. -1.
         23    2    1    2    0    0 -0.53675357897E+03  0.57554063476E+03 -0.12363906696E+03  0.80176487486E+03  0.90492369204E+02 0.  0.
        254    2    1    2    0    0  0.53675357897E+03 -0.57554063476E+03  0.75256645231E+03  0.14148350141E+04  0.90335509363E+03 0.  0.
        -24    2    4    4    0    0  0.47562124622E+03 -0.44080615340E+03  0.95158346841E+03  0.11543795027E+04  0.80964832663E+02 0.  0.
         24    2    4    4    0    0  0.61132332752E+02 -0.13473448136E+03 -0.19901701609E+03  0.26045551142E+03  0.79616318429E+02 0.  0.
         13    1    3    3    0    0 -0.92205736507E+02  0.13212143607E+03 -0.54494107963E+02  0.17008109688E+03  0.00000000000E+00 0. -1.
        -13    1    3    3    0    0 -0.44454784247E+03  0.44341919869E+03 -0.69144958992E+02  0.63168377798E+03  0.00000000000E+00 0.  1.
          2    1    6    6  502    0  0.56306970825E+02 -0.70682949575E+02 -0.16411978444E+03  0.18735489843E+03  0.00000000000E+00 0. -1.
          3    1    5    5  503    0  0.46364065493E+03 -0.42028818726E+03  0.88671302382E+03  0.10852948004E+04  0.00000000000E+00 0. -1.
         -4    1    5    5    0  503  0.11980591291E+02 -0.20517966133E+02  0.64870444588E+02  0.69084702236E+02  0.00000000000E+00 0.  1.
         -1    1    6    6    0  502  0.48253619263E+01 -0.64051531785E+02 -0.34897231658E+02  0.73100612987E+02  0.00000000000E+00 0.  1.
<mgrwt>
<rscale>  0 0.21255036E+04</rscale>
<asrwt>0</asrwt>
<pdfrwt beam="1">  1        2 0.21888671E+00 0.21255036E+04</pdfrwt>
<pdfrwt beam="2">  1       -2 0.12212865E+00 0.21255036E+04</pdfrwt>
<totfact> 0.65646979E+00</totfact>
</mgrwt>
</event>
<event>
12    1  0.1442183E-007  0.2529930E+04  0.7818608E-02  0.8392400E-01
          2   -1    0    0  501    0  0.00000000000E+00  0.00000000000E+00  0.36121794662E+04  0.36121794662E+04  0.00000000000E+00 0. -1.
         -2   -1    0    0    0  501 -0.00000000000E+00 -0.00000000000E+00 -0.44298357754E+03  0.44298357754E+03  0.00000000000E+00 0.  1.
         23    2    1    2    0    0 -0.66994016038E+03 -0.39152332741E+03  0.26750817766E+04  0.27868253788E+04  0.90679907346E+02 0.  0.
        254    2    1    2    0    0  0.66994016038E+03  0.39152332741E+03  0.49411411206E+03  0.12683376650E+04  0.87316741945E+03 0.  0.
        -24    2    4    4    0    0  0.78887978212E+03  0.54053768740E+03  0.37829263691E+03  0.10314144236E+04  0.78727962057E+02 0.  0.
         24    2    4    4    0    0 -0.11893962174E+03 -0.14901435999E+03  0.11582147515E+03  0.23692324139E+03  0.79787812973E+02 0.  0.
         13    1    3    3    0    0 -0.15481952962E+03 -0.66128925237E+02  0.69640020733E+03  0.71646030614E+03  0.00000000000E+00 0. -1.
        -13    1    3    3    0    0 -0.51512063077E+03 -0.32539440217E+03  0.19786815693E+04  0.20703650726E+04  0.00000000000E+00 0.  1.
          4    1    6    6  502    0 -0.12272188026E+03 -0.12651525393E+03  0.12065935017E+03  0.21360114268E+03  0.00000000000E+00 0. -1.
          3    1    5    5  503    0  0.74854021100E+03  0.51995578868E+03  0.37643912703E+03  0.98608969471E+03  0.00000000000E+00 0. -1.
         -2    1    5    5    0  503  0.40339571124E+02  0.20581898723E+02  0.18535098850E+01  0.45324728928E+02  0.00000000000E+00 0.  1.
         -3    1    6    6    0  502  0.37822585221E+01 -0.22499106065E+02 -0.48378750193E+01  0.23322098704E+02  0.00000000000E+00 0.  1.
<mgrwt>
<rscale>  0 0.25299298E+04</rscale>
<asrwt>0</asrwt>
<pdfrwt beam="1">  1        2 0.55571990E+00 0.25299298E+04</pdfrwt>
<pdfrwt beam="2">  1       -2 0.68151322E-01 0.25299298E+04</pdfrwt>
<totfact> 0.11879822E+00</totfact>
</mgrwt>
</event>
<event>
12    1  0.1442183E-007  0.1465417E+04  0.7818608E-02  0.8907781E-01
         -1   -1    0    0    0  501 -0.00000000000E+00  0.00000000000E+00  0.55900018043E+03  0.55900018043E+03  0.00000000000E+00 0.  1.
          1   -1    0    0  501    0  0.00000000000E+00 -0.00000000000E+00 -0.96039692161E+03  0.96039692161E+03  0.00000000000E+00 0. -1.
         23    2    1    2    0    0 -0.55471880441E+02  0.31375571063E+03 -0.46024294882E+03  0.56697405982E+03  0.90090160930E+02 0.  0.
        254    2    1    2    0    0  0.55471880441E+02 -0.31375571063E+03  0.58846207643E+02  0.95242304222E+03  0.89561543071E+03 0.  0.
        -24    2    4    4    0    0 -0.11455617902E+03 -0.59437820629E+03 -0.30459548118E+00  0.61044670768E+03  0.78971639694E+02 0.  0.
         24    2    4    4    0    0  0.17002805946E+03  0.28062249566E+03  0.59150803125E+02  0.34197633454E+03  0.76095136482E+02 0.  0.
         11    1    3    3    0    0 -0.46832890172E+02  0.13190017929E+03 -0.13625410199E+03  0.19533601104E+03  0.00000000000E+00 0.  1.
        -11    1    3    3    0    0 -0.86389902685E+01  0.18185553134E+03 -0.32398884683E+03  0.37163804878E+03  0.00000000000E+00 0. -1.
          2    1    6    6  502    0  0.11499025472E-02  0.10191035821E+02  0.16925821469E+02  0.19757040386E+02  0.00000000000E+00 0. -1.
          1    1    5    5  503    0 -0.77973179325E+02 -0.29124558257E+03 -0.33304645675E+02  0.30333645591E+03  0.00000000000E+00 0. -1.
         -2    1    5    5    0  503 -0.36582999697E+02 -0.30313262372E+03  0.33000050194E+02  0.30711025177E+03  0.00000000000E+00 0.  1.
         -1    1    6    6    0  502  0.17002690956E+03  0.27043145984E+03  0.42224981655E+02  0.32221929415E+03  0.00000000000E+00 0.  1.
<mgrwt>
<rscale>  0 0.14654174E+04</rscale>
<asrwt>0</asrwt>
<pdfrwt beam="1">  1        1 0.14775337E+00 0.14654174E+04</pdfrwt>
<pdfrwt beam="2">  1       -1 0.86000029E-01 0.14654174E+04</pdfrwt>
<totfact> 0.21058815E+01</totfact>
</mgrwt>
</event>
<event>
12    1  0.1442183E-007  0.1270768E+04  0.7818608E-02  0.9053073E-01
         -1   -1    0    0    0  501 -0.00000000000E+00  0.00000000000E+00  0.40926096779E+03  0.40926096779E+03  0.00000000000E+00 0.  1.
          1   -1    0    0  501    0  0.00000000000E+00 -0.00000000000E+00 -0.98644408030E+03  0.98644408030E+03  0.00000000000E+00 0. -1.
         23    2    1    2    0    0 -0.21525116612E+03  0.15615656809E+01 -0.37308751194E+03  0.43998893658E+03  0.89780118855E+02 0.  0.
        254    2    1    2    0    0  0.21525116612E+03 -0.15615656809E+01 -0.20409560056E+03  0.95571611150E+03  0.90851679600E+03 0.  0.
        -24    2    4    4    0    0 -0.18444941593E+03 -0.31008265292E+03  0.69253600411E+02  0.37598207635E+03  0.79960126854E+02 0.  0.
         24    2    4    4    0    0  0.39970058206E+03  0.30852108724E+03 -0.27334920097E+03  0.57973403515E+03  0.80162018873E+02 0.  0.
         11    1    3    3    0    0 -0.95270129593E+02  0.28272750107E+02 -0.10236720263E+03  0.14267021471E+03  0.00000000000E+00 0.  1.
        -11    1    3    3    0    0 -0.11998103653E+03 -0.26711184426E+02 -0.27072030932E+03  0.29731872187E+03  0.00000000000E+00 0. -1.
          4    1    6    6  502    0  0.73443847147E+02  0.97438768541E+02 -0.77887287402E+02  0.14475752774E+03  0.00000000000E+00 0. -1.
          1    1    5    5  503    0 -0.75971527816E+02 -0.16607708963E+03 -0.60379168532E+00  0.18262978208E+03  0.00000000000E+00 0. -1.
         -2    1    5    5    0  503 -0.10847788812E+03 -0.14400556330E+03  0.69857392096E+02  0.19335229427E+03  0.00000000000E+00 0.  1.
         -3    1    6    6    0  502  0.32625673491E+03  0.21108231870E+03 -0.19546191357E+03  0.43497650741E+03  0.00000000000E+00 0.  1.
<mgrwt>
<rscale>  0 0.12707684E+04</rscale>
<asrwt>0</asrwt>
<pdfrwt beam="1">  1        1 0.15176063E+00 0.12707684E+04</pdfrwt>
<pdfrwt beam="2">  1       -1 0.62963227E-01 0.12707684E+04</pdfrwt>
<totfact> 0.39066399E+01</totfact>
</mgrwt>
</event>
<event>
12    1  0.1442183E-007  0.1533465E+04  0.7818608E-02  0.8862499E-01
          1   -1    0    0  501    0  0.00000000000E+00  0.00000000000E+00  0.10923408768E+04  0.10923408768E+04  0.00000000000E+00 0. -1.
         -1   -1    0    0    0  501 -0.00000000000E+00 -0.00000000000E+00 -0.53818263930E+03  0.53818263930E+03  0.00000000000E+00 0.  1.
         23    2    1    2    0    0 -0.34982841274E+03 -0.30224839484E+03 -0.99731990442E+01  0.47208864807E+03  0.95048494949E+02 0.  0.
        254    2    1    2    0    0  0.34982841274E+03  0.30224839484E+03  0.56413143650E+03  0.11584348680E+04  0.89999614176E+03 0.  0.
        -24    2    4    4    0    0  0.43460012361E+03  0.26997240783E+03 -0.60641376647E+02  0.52188313316E+03  0.83200118329E+02 0.  0.
         24    2    4    4    0    0 -0.84771710872E+02  0.32275987011E+02  0.62477281314E+03  0.63655173482E+03  0.81419044230E+02 0.  0.
         11    1    3    3    0    0 -0.18323802761E+03 -0.11644269541E+03 -0.39922197129E+02  0.22074613904E+03  0.00000000000E+00 0.  1.
        -11    1    3    3    0    0 -0.16659038512E+03 -0.18580569943E+03  0.29948998085E+02  0.25134250903E+03  0.00000000000E+00 0. -1.
          2    1    6    6  502    0 -0.89062002304E+02  0.38921952731E+02  0.39998508438E+03  0.41162486123E+03  0.00000000000E+00 0. -1.
          1    1    5    5  503    0  0.28453228655E+03  0.14614616426E+03 -0.68668013622E+02  0.32715840126E+03  0.00000000000E+00 0. -1.
         -2    1    5    5    0  503  0.15006783706E+03  0.12382624357E+03  0.80266369752E+01  0.19472473191E+03  0.00000000000E+00 0.  1.
         -1    1    6    6    0  502  0.42902914319E+01 -0.66459657200E+01  0.22478772877E+03  0.22492687360E+03  0.00000000000E+00 0.  1.
<mgrwt>
<rscale>  0 0.15334652E+04</rscale>
<asrwt>0</asrwt>
<pdfrwt beam="1">  1        1 0.16805244E+00 0.15334652E+04</pdfrwt>
<pdfrwt beam="2">  1       -1 0.82797330E-01 0.15334652E+04</pdfrwt>
<totfact> 0.17965494E+01</totfact>
</mgrwt>
</event>
<event>
12    1  0.1442183E-007  0.1315474E+04  0.7818608E-02  0.9017383E-01
          4   -1    0    0  501    0  0.00000000000E+00  0.00000000000E+00  0.15796000343E+04  0.15796000343E+04  0.00000000000E+00 0. -1.
         -4   -1    0    0    0  501 -0.00000000000E+00 -0.00000000000E+00 -0.27387817138E+03  0.27387817138E+03  0.00000000000E+00 0.  1.
         23    2    1    2    0    0  0.28168988888E+03  0.38005134956E+02  0.66456858546E+03  0.72857256900E+03  0.91504096859E+02 0.  0.
        254    2    1    2    0    0 -0.28168988888E+03 -0.38005134956E+02  0.64115327741E+03  0.11249056366E+04  0.87951212750E+03 0.  0.
        -24    2    4    4    0    0  0.98195644494E+02 -0.33642650502E+02  0.71741303870E+03  0.72910503906E+03  0.78348435561E+02 0.  0.
         24    2    4    4    0    0 -0.37988553338E+03 -0.43624844541E+01 -0.76259761295E+02  0.39580059757E+03  0.80687744448E+02 0.  0.
         13    1    3    3    0    0  0.64029161989E+02  0.33064390944E+02  0.25175193339E+03  0.26186260424E+03  0.00000000000E+00 0. -1.
        -13    1    3    3    0    0  0.21766072689E+03  0.49407440116E+01  0.41281665207E+03  0.46670996476E+03  0.00000000000E+00 0.  1.
          2    1    6    6  502    0 -0.64746241825E+02  0.11891495578E+01  0.17283924638E+02  0.67024055070E+02  0.00000000000E+00 0. -1.
          1    1    5    5  503    0  0.40566588637E+02  0.10771534343E+02  0.11702096841E+03  0.12432047745E+03  0.00000000000E+00 0. -1.
         -2    1    5    5    0  503  0.57629055857E+02 -0.44414184845E+02  0.60039207029E+03  0.60478456161E+03  0.00000000000E+00 0.  1.
         -1    1    6    6    0  502 -0.31513929155E+03 -0.55516340119E+01 -0.93543685933E+02  0.32877654250E+03  0.00000000000E+00 0.  1.
<mgrwt>
<rscale>  0 0.13154740E+04</rscale>
<asrwt>0</asrwt>
<pdfrwt beam="1">  1        4 0.24301539E+00 0.13154740E+04</pdfrwt>
<pdfrwt beam="2">  1       -4 0.42135104E-01 0.13154740E+04</pdfrwt>
<totfact> 0.75243127E-01</totfact>
</mgrwt>
</event>
<event>
12    1  0.1442183E-007  0.1540234E+04  0.7818608E-02  0.8858130E-01
          2   -1    0    0  501    0  0.00000000000E+00  0.00000000000E+00  0.23065024506E+04  0.23065024506E+04  0.00000000000E+00 0. -1.
         -2   -1    0    0    0  501 -0.00000000000E+00 -0.00000000000E+00 -0.25713387989E+03  0.25713387989E+03  0.00000000000E+00 0.  1.
         23    2    1    2    0    0 -0.44340380103E+03 -0.72793144055E+02  0.28087740571E+03  0.53757443913E+03  0.90489712033E+02 0.  0.
        254    2    1    2    0    0  0.44340380103E+03  0.72793144055E+02  0.17684911650E+04  0.20260618913E+04  0.88060207490E+03 0.  0.
        -24    2    4    4    0    0  0.65095499385E+03  0.25196904330E+03  0.12232501476E+04  0.14110269702E+04  0.86170668451E+02 0.  0.
         24    2    4    4    0    0 -0.20755119282E+03 -0.17917589925E+03  0.54524101736E+03  0.61503492116E+03  0.76149108491E+02 0.  0.
         13    1    3    3    0    0 -0.21575646803E+03 -0.59154122648E+01  0.17448823283E+03  0.27754637270E+03  0.00000000000E+00 0.  1.
        -13    1    3    3    0    0 -0.22764733300E+03 -0.66877731790E+02  0.10638917288E+03  0.26002806644E+03  0.00000000000E+00 0. -1.
          4    1    6    6  502    0 -0.13167417465E+03 -0.63667857391E+02  0.28890412890E+03  0.32381673834E+03  0.00000000000E+00 0. -1.
          1    1    5    5  503    0  0.44436612059E+03  0.21304158644E+03  0.83846428662E+03  0.97255864945E+03  0.00000000000E+00 0. -1.
         -2    1    5    5    0  503  0.20658887326E+03  0.38927456862E+02  0.38478586100E+03  0.43846832073E+03  0.00000000000E+00 0.  1.
         -3    1    6    6    0  502 -0.75877018173E+02 -0.11550804186E+03  0.25633688846E+03  0.29121818282E+03  0.00000000000E+00 0.  1.
<mgrwt>
<rscale>  0 0.15402336E+04</rscale>
<asrwt>0</asrwt>
<pdfrwt beam="1">  1        2 0.35484652E+00 0.15402336E+04</pdfrwt>
<pdfrwt beam="2">  1       -2 0.39559060E-01 0.15402336E+04</pdfrwt>
<totfact> 0.26208747E+01</totfact>
</mgrwt>
</event>
<event>
12    1  0.1442183E-007  0.1649123E+04  0.7818608E-02  0.8790925E-01
         -2   -1    0    0    0  501 -0.00000000000E+00  0.00000000000E+00  0.37282301876E+03  0.37282301876E+03  0.00000000000E+00 0.  1.
          2   -1    0    0  501    0  0.00000000000E+00 -0.00000000000E+00 -0.18236585805E+04  0.18236585805E+04  0.00000000000E+00 0. -1.
         23    2    1    2    0    0 -0.13936292877E+03 -0.44797386503E+03 -0.67197102401E+02  0.48269146175E+03  0.91504027262E+02 0.  0.
        254    2    1    2    0    0  0.13936292877E+03  0.44797386503E+03 -0.13836384594E+04  0.17137901375E+04  0.89583404692E+03 0.  0.
        -24    2    4    4    0    0  0.12006179631E+03  0.62300854291E+03 -0.50684287728E+03  0.81598512351E+03  0.79922087446E+02 0.  0.
         24    2    4    4    0    0  0.19301132459E+02 -0.17503467788E+03 -0.87679558208E+03  0.89780501403E+03  0.79206554519E+02 0.  0.
         11    1    3    3    0    0 -0.14139725706E+03 -0.40860698109E+03 -0.82906449992E+02  0.44025711664E+03  0.00000000000E+00 0.  1.
        -11    1    3    3    0    0  0.20343282983E+01 -0.39366883946E+02  0.15709347591E+02  0.42434345111E+02  0.00000000000E+00 0. -1.
          2    1    6    6  502    0  0.47160783035E+02 -0.14264618418E+03 -0.66883727886E+03  0.68550374099E+03  0.00000000000E+00 0. -1.
          3    1    5    5  503    0  0.85693206358E+02  0.28067208373E+03 -0.20156489891E+03  0.35601762973E+03  0.00000000000E+00 0. -1.
         -4    1    5    5    0  503  0.34368589950E+02  0.34233645918E+03 -0.30527797837E+03  0.45996749378E+03  0.00000000000E+00 0.  1.
         -1    1    6    6    0  502 -0.27859650577E+02 -0.32388493700E+02 -0.20795830322E+03  0.21230127304E+03  0.00000000000E+00 0.  1.
<mgrwt>
<rscale>  0 0.16491233E+04</rscale>
<asrwt>0</asrwt>
<pdfrwt beam="1">  1        2 0.28056286E+00 0.16491233E+04</pdfrwt>
<pdfrwt beam="2">  1       -2 0.57357387E-01 0.16491233E+04</pdfrwt>
<totfact> 0.22774995E+01</totfact>
</mgrwt>
</event>
<event>
12    1  0.1442183E-007  0.2081667E+04  0.7818608E-02  0.8569362E-01
         -2   -1    0    0    0  501 -0.00000000000E+00  0.00000000000E+00  0.51309013508E+03  0.51309013508E+03  0.00000000000E+00 0.  1.
          2   -1    0    0  501    0  0.00000000000E+00 -0.00000000000E+00 -0.21113925314E+04  0.21113925314E+04  0.00000000000E+00 0. -1.
         23    2    1    2    0    0  0.59526473494E+03 -0.41510934003E+03 -0.91239525848E+02  0.73707893550E+03  0.91130879748E+02 0.  0.
        254    2    1    2    0    0 -0.59526473494E+03  0.41510934003E+03 -0.15070628704E+04  0.18874037310E+04  0.87429885013E+03 0.  0.
        -24    2    4    4    0    0 -0.71068357055E+02  0.49720259874E+03 -0.36488749461E+03  0.62578956078E+03  0.78794384905E+02 0.  0.
         24    2    4    4    0    0 -0.52419637788E+03 -0.82093258714E+02 -0.11421753758E+04  0.12616141702E+04  0.74730044324E+02 0.  0.
         13    1    3    3    0    0  0.30396213811E+03 -0.26093765926E+03 -0.28830582279E+02  0.40163745580E+03  0.00000000000E+00 0.  1.
        -13    1    3    3    0    0  0.29130259682E+03 -0.15417168077E+03 -0.62408943569E+02  0.33544147970E+03  0.00000000000E+00 0. -1.
          2    1    6    6  502    0 -0.16626589088E+03 -0.16133996893E+02 -0.44160486062E+03  0.47214352188E+03  0.00000000000E+00 0. -1.
          1    1    5    5  503    0 -0.21796512048E+02  0.18156904679E+03 -0.18045010005E+03  0.25691369231E+03  0.00000000000E+00 0. -1.
         -2    1    5    5    0  503 -0.49271845006E+02  0.31563355195E+03 -0.18443739457E+03  0.36887586848E+03  0.00000000000E+00 0.  1.
         -1    1    6    6    0  502 -0.35793048700E+03 -0.65959261821E+02 -0.70057051521E+03  0.78947064830E+03  0.00000000000E+00 0.  1.
<mgrwt>
<rscale>  0 0.20816673E+04</rscale>
<asrwt>0</asrwt>
<pdfrwt beam="1">  1        2 0.32482962E+00 0.20816673E+04</pdfrwt>
<pdfrwt beam="2">  1       -2 0.78936944E-01 0.20816673E+04</pdfrwt>
<totfact> 0.76118636E+00</totfact>
</mgrwt>
</event>
<event>
12    1  0.1442183E-007  0.1625892E+04  0.7818608E-02  0.8804798E-01
         -2   -1    0    0    0  501 -0.00000000000E+00  0.00000000000E+00  0.16493071549E+04  0.16493071549E+04  0.00000000000E+00 0.  1.
          2   -1    0    0  501    0  0.00000000000E+00 -0.00000000000E+00 -0.40070237249E+03  0.40070237249E+03  0.00000000000E+00 0. -1.
         23    2    1    2    0    0  0.14767224516E+03  0.36741805667E+03 -0.67741250854E+02  0.40782837090E+03  0.70228076197E+02 0.  0.
        254    2    1    2    0    0 -0.14767224516E+03 -0.36741805667E+03  0.13163460333E+04  0.16421811565E+04  0.89843694889E+03 0.  0.
        -24    2    4    4    0    0 -0.13143125786E+03  0.21125385544E+03  0.78240687683E+02  0.27306930771E+03  0.80888037565E+02 0.  0.
         24    2    4    4    0    0 -0.16240987301E+02 -0.57867191211E+03  0.12381053456E+04  0.13691118488E+04  0.80233759860E+02 0.  0.
         13    1    3    3    0    0  0.11236413618E+03  0.27484232949E+03 -0.19328424708E+02  0.29755267295E+03  0.00000000000E+00 0. -1.
        -13    1    3    3    0    0  0.35308108983E+02  0.92575727178E+02 -0.48412826146E+02  0.11027569795E+03  0.00000000000E+00 0.  1.
          2    1    6    6  502    0 -0.27390297648E+02 -0.49853499101E+03  0.10015440622E+04  0.11190969012E+04  0.00000000000E+00 0. -1.
          1    1    5    5  503    0 -0.45779649997E+02  0.14214318352E+03  0.62531739886E+02  0.16189712619E+03  0.00000000000E+00 0. -1.
         -2    1    5    5    0  503 -0.85651607862E+02  0.69110671923E+02  0.15708947798E+02  0.11117218152E+03  0.00000000000E+00 0.  1.
         -1    1    6    6    0  502  0.11149310346E+02 -0.80136921104E+02  0.23656128338E+03  0.25001494763E+03  0.00000000000E+00 0.  1.
<mgrwt>
<rscale>  0 0.16258921E+04</rscale>
<asrwt>0</asrwt>
<pdfrwt beam="1">  1        2 0.61646520E-01 0.16258921E+04</pdfrwt>
<pdfrwt beam="2">  1       -2 0.25373956E+00 0.16258921E+04</pdfrwt>
<totfact> 0.46308572E+00</totfact>
</mgrwt>
</event>
<event>
12    1  0.1442183E-007  0.1141497E+04  0.7818608E-02  0.9165664E-01
         -2   -1    0    0    0  501 -0.00000000000E+00  0.00000000000E+00  0.93768878067E+02  0.93768878067E+02  0.00000000000E+00 0.  1.
          2   -1    0    0  501    0  0.00000000000E+00 -0.00000000000E+00 -0.34740081873E+04  0.34740081873E+04  0.00000000000E+00 0. -1.
         23    2    1    2    0    0  0.14813907707E+03  0.95347272967E+02 -0.90783439708E+03  0.92927847773E+03  0.91427063961E+02 0.  0.
        254    2    1    2    0    0 -0.14813907707E+03 -0.95347272967E+02 -0.24724049121E+04  0.26384985876E+04  0.90435195511E+03 0.  0.
        -24    2    4    4    0    0 -0.19073445813E+03  0.33626489683E+03 -0.62599957511E+03  0.74001268266E+03  0.79306923400E+02 0.  0.
         24    2    4    4    0    0  0.42595381054E+02 -0.43161216980E+03 -0.18464053370E+04  0.18984859049E+04  0.83262423394E+02 0.  0.
         11    1    3    3    0    0  0.12292291243E+03  0.10795762736E+03 -0.84059920550E+03  0.85637136570E+03  0.00000000000E+00 0. -1.
        -11    1    3    3    0    0  0.25216164640E+02 -0.12610354391E+02 -0.67235191584E+02  0.72907112029E+02  0.00000000000E+00 0.  1.
          2    1    6    6  502    0  0.28441178596E+02 -0.42488082132E+03 -0.17887126454E+04  0.18387021349E+04  0.00000000000E+00 0. -1.
          1    1    5    5  503    0 -0.59369904242E+02  0.12141302346E+03 -0.15294176736E+03  0.20410069083E+03  0.00000000000E+00 0. -1.
         -2    1    5    5    0  503 -0.13136455389E+03  0.21485187337E+03 -0.47305780775E+03  0.53591199183E+03  0.00000000000E+00 0.  1.
         -1    1    6    6    0  502  0.14154202458E+02 -0.67313484764E+01 -0.57692691557E+02  0.59783770027E+02  0.00000000000E+00 0.  1.
<mgrwt>
<rscale>  0 0.11414970E+04</rscale>
<asrwt>0</asrwt>
<pdfrwt beam="1">  1        2 0.53446278E+00 0.11414970E+04</pdfrwt>
<pdfrwt beam="2">  1       -2 0.14425982E-01 0.11414970E+04</pdfrwt>
<totfact> 0.32399584E+01</totfact>
</mgrwt>
</event>
<event>
12    1  0.1442183E-007  0.1744601E+04  0.7818608E-02  0.8736328E-01
          1   -1    0    0  501    0  0.00000000000E+00  0.00000000000E+00  0.18901587829E+04  0.18901587829E+04  0.00000000000E+00 0. -1.
         -1   -1    0    0    0  501 -0.00000000000E+00 -0.00000000000E+00 -0.40256330524E+03  0.40256330524E+03  0.00000000000E+00 0.  1.
         23    2    1    2    0    0 -0.50304225926E+03  0.13257939568E+03  0.12053982467E+04  0.13163318598E+04  0.95476809780E+02 0.  0.
        254    2    1    2    0    0  0.50304225926E+03 -0.13257939568E+03  0.28219723105E+03  0.97639022843E+03  0.77657825761E+03 0.  0.
        -24    2    4    4    0    0  0.34255328588E+03  0.26657260390E+03  0.30742175840E+03  0.53780202927E+03  0.79493259712E+02 0.  0.
         24    2    4    4    0    0  0.16048897338E+03 -0.39915199958E+03 -0.25224527353E+02  0.43858819915E+03  0.81512589874E+02 0.  0.
         13    1    3    3    0    0 -0.35560185711E+03  0.60447019344E+02  0.90058895731E+03  0.97013761547E+03  0.00000000000E+00 0. -1.
        -13    1    3    3    0    0 -0.14744040215E+03  0.72132376341E+02  0.30480928935E+03  0.34619424428E+03  0.00000000000E+00 0.  1.
          2    1    6    6  502    0  0.67637410857E+02 -0.89321253420E+02 -0.26538545682E+02  0.11514078368E+03  0.00000000000E+00 0. -1.
          3    1    5    5  503    0  0.17223427851E+01  0.21240396522E+02  0.13781374945E+02  0.25378085122E+02  0.00000000000E+00 0. -1.
         -4    1    5    5    0  503  0.34083094309E+03  0.24533220738E+03  0.29364038346E+03  0.51242394415E+03  0.00000000000E+00 0.  1.
         -1    1    6    6    0  502  0.92851562528E+02 -0.30983074616E+03  0.13140183284E+01  0.32344741547E+03  0.00000000000E+00 0.  1.
<mgrwt>
<rscale>  0 0.17446015E+04</rscale>
<asrwt>0</asrwt>
<pdfrwt beam="1">  1        1 0.29079365E+00 0.17446015E+04</pdfrwt>
<pdfrwt beam="2">  1       -1 0.61932817E-01 0.17446015E+04</pdfrwt>
<totfact> 0.88705536E+00</totfact>
</mgrwt>
</event>
<event>
12    1  0.1442183E-007  0.1763416E+04  0.7818608E-02  0.8726000E-01
         -1   -1    0    0    0  501 -0.00000000000E+00  0.00000000000E+00  0.51295032791E+03  0.51295032791E+03  0.00000000000E+00 0.  1.
          1   -1    0    0  501    0  0.00000000000E+00 -0.00000000000E+00 -0.15155631577E+04  0.15155631577E+04  0.00000000000E+00 0. -1.
         23    2    1    2    0    0 -0.59596423299E+03  0.25643514336E+03 -0.27108949374E+03  0.70908689160E+03  0.91555209931E+02 0.  0.
        254    2    1    2    0    0  0.59596423299E+03 -0.25643514336E+03 -0.73152333605E+03  0.13194265940E+04  0.88590507170E+03 0.  0.
        -24    2    4    4    0    0  0.70450699419E+03 -0.37213617830E+03 -0.79651907041E+03  0.11294280606E+04  0.79684844355E+02 0.  0.
         24    2    4    4    0    0 -0.10854276120E+03  0.11570103494E+03  0.64995734362E+02  0.18999853345E+03  0.81894668532E+02 0.  0.
         13    1    3    3    0    0 -0.44239852413E+03  0.14962111604E+03 -0.21230458243E+03  0.51300698654E+03  0.00000000000E+00 0. -1.
        -13    1    3    3    0    0 -0.15356570886E+03  0.10681402732E+03 -0.58784911309E+02  0.19607990505E+03  0.00000000000E+00 0.  1.
          2    1    6    6  502    0 -0.74919836853E+02  0.90015255987E+02  0.58284880785E+01  0.11725911281E+03  0.00000000000E+00 0. -1.
          1    1    5    5  503    0  0.35395024074E+03 -0.18294236395E+03 -0.34232601727E+03  0.52529590094E+03  0.00000000000E+00 0. -1.
         -2    1    5    5    0  503  0.35055675344E+03 -0.18919381435E+03 -0.45419305314E+03  0.60413215963E+03  0.00000000000E+00 0.  1.
         -1    1    6    6    0  502 -0.33622924344E+02  0.25685778951E+02  0.59167246284E+02  0.72739420636E+02  0.00000000000E+00 0.  1.
<mgrwt>
<rscale>  0 0.17634156E+04</rscale>
<asrwt>0</asrwt>
<pdfrwt beam="1">  1        1 0.23316356E+00 0.17634156E+04</pdfrwt>
<pdfrwt beam="2">  1       -1 0.78915435E-01 0.17634156E+04</pdfrwt>
<totfact> 0.96991709E+00</totfact>
</mgrwt>
</event>
<event>
12    1  0.1442183E-007  0.2003672E+04  0.7818608E-02  0.8604906E-01
          1   -1    0    0  501    0  0.00000000000E+00  0.00000000000E+00  0.18006671471E+04  0.18006671471E+04  0.00000000000E+00 0. -1.
         -1   -1    0    0    0  501 -0.00000000000E+00 -0.00000000000E+00 -0.55739074552E+03  0.55739074552E+03  0.00000000000E+00 0.  1.
         23    2    1    2    0    0  0.48066217087E+03 -0.37133672927E+03  0.10805869988E+04  0.12431008875E+04  0.93297725260E+02 0.  0.
        254    2    1    2    0    0 -0.48066217087E+03  0.37133672927E+03  0.16268940279E+03  0.11149570051E+04  0.92072481909E+03 0.  0.
        -24    2    4    4    0    0 -0.70933833212E+03  0.41079209135E+03  0.53502805327E+01  0.82352042826E+03  0.79033274866E+02 0.  0.
         24    2    4    4    0    0  0.22867616125E+03 -0.39455362079E+02  0.15733912225E+03  0.29143657686E+03  0.79562344227E+02 0.  0.
         13    1    3    3    0    0  0.12618089102E+03 -0.77180151542E+02  0.19362394163E+03  0.24365677463E+03  0.00000000000E+00 0.  1.
        -13    1    3    3    0    0  0.35448127985E+03 -0.29415657773E+03  0.88696305719E+03  0.99944411290E+03  0.00000000000E+00 0. -1.
          4    1    6    6  502    0  0.82174559613E+02  0.57323250438E+01  0.18115419958E+02  0.84342671514E+02  0.00000000000E+00 0. -1.
          1    1    5    5  503    0 -0.40264496428E+03  0.19549084452E+03 -0.19124108316E+02  0.44800152798E+03  0.00000000000E+00 0. -1.
         -2    1    5    5    0  503 -0.30669336784E+03  0.21530124683E+03  0.24474388848E+02  0.37551890029E+03  0.00000000000E+00 0.  1.
         -3    1    6    6    0  502  0.14650160164E+03 -0.45187687123E+02  0.13922370230E+03  0.20709390534E+03  0.00000000000E+00 0.  1.
<mgrwt>
<rscale>  0 0.20036718E+04</rscale>
<asrwt>0</asrwt>
<pdfrwt beam="1">  1        1 0.27702571E+00 0.20036718E+04</pdfrwt>
<pdfrwt beam="2">  1       -1 0.85752423E-01 0.20036718E+04</pdfrwt>
<totfact> 0.50684685E+00</totfact>
</mgrwt>
</event>
<event>
12    1  0.1442183E-007  0.1869115E+04  0.7818608E-02  0.8670384E-01
          2   -1    0    0  501    0  0.00000000000E+00  0.00000000000E+00  0.16289557909E+04  0.16289557909E+04  0.00000000000E+00 0. -1.
         -2   -1    0    0    0  501 -0.00000000000E+00 -0.00000000000E+00 -0.53617033387E+03  0.53617033387E+03  0.00000000000E+00 0.  1.
         23    2    1    2    0    0  0.21870339682E+03  0.23145090927E+03 -0.32003435432E+03  0.46080223937E+03  0.92282266357E+02 0.  0.
        254    2    1    2    0    0 -0.21870339682E+03 -0.23145090927E+03  0.14128198113E+04  0.17043238854E+04  0.89847614761E+03 0.  0.
        -24    2    4    4    0    0  0.31113101500E+01  0.29929259091E+03  0.22669591032E+03  0.38370259533E+03  0.79062700935E+02 0.  0.
         24    2    4    4    0    0 -0.22181470697E+03 -0.53074350018E+03  0.11861239010E+04  0.13206212900E+04  0.79121779670E+02 0.  0.
         13    1    3    3    0    0  0.59981440825E+02  0.11606321276E+03 -0.16653508089E+03  0.21166571703E+03  0.00000000000E+00 0. -1.
        -13    1    3    3    0    0  0.15872195599E+03  0.11538769651E+03 -0.15349927342E+03  0.24913652234E+03  0.00000000000E+00 0.  1.
          2    1    6    6  502    0 -0.14837409928E+03 -0.27905535755E+03  0.70774006525E+03  0.77510177775E+03  0.00000000000E+00 0. -1.
          3    1    5    5  503    0  0.17285607610E+02  0.20442362774E+03  0.11046770307E+03  0.23300413136E+03  0.00000000000E+00 0. -1.
         -4    1    5    5    0  503 -0.14174297461E+02  0.94868963170E+02  0.11622820725E+03  0.15069846397E+03  0.00000000000E+00 0.  1.
         -1    1    6    6    0  502 -0.73440607683E+02 -0.25168814263E+03  0.47838383573E+03  0.54551951228E+03  0.00000000000E+00 0.  1.
<mgrwt>
<rscale>  0 0.18691151E+04</rscale>
<asrwt>0</asrwt>
<pdfrwt beam="1">  1        2 0.25060858E+00 0.18691151E+04</pdfrwt>
<pdfrwt beam="2">  1       -2 0.82487744E-01 0.18691151E+04</pdfrwt>
<totfact> 0.13010868E+01</totfact>
</mgrwt>
</event>
<event>
12    1  0.1487483E-007  0.1716979E+04  0.7818608E-02  0.8751739E-01
          1   -1    0    0  501    0  0.00000000000E+00  0.00000000000E+00  0.14957382327E+04  0.14957382327E+04  0.00000000000E+00 0. -1.
         -1   -1    0    0    0  501 -0.00000000000E+00 -0.00000000000E+00 -0.49273609798E+03  0.49273609798E+03  0.00000000000E+00 0.  1.
         23    2    1    2    0    0 -0.36897689384E+03 -0.44501968112E+03  0.11054173904E+03  0.59587259545E+03  0.93049498528E+02 0.  0.
        254    2    1    2    0    0  0.36897689384E+03  0.44501968112E+03  0.89246039572E+03  0.13926017353E+04  0.89925945666E+03 0.  0.
        -24    2    4    4    0    0 -0.12709551872E+03  0.49700153853E+03  0.25329668961E+03  0.57814388459E+03  0.83230632222E+02 0.  0.
         24    2    4    4    0    0  0.49607241255E+03 -0.51981857414E+02  0.63916370611E+03  0.81445785068E+03  0.77597650291E+02 0.  0.
         13    1    3    3    0    0 -0.28405105869E+02 -0.16241887596E+02  0.26033483063E+02  0.41813767978E+02  0.00000000000E+00 0. -1.
        -13    1    3    3    0    0 -0.34057178797E+03 -0.42877779352E+03  0.84508255977E+02  0.55405882748E+03  0.00000000000E+00 0.  1.
          2    1    6    6  502    0  0.49134846312E+03 -0.59408412472E+02  0.63380725358E+03  0.80415440456E+03  0.00000000000E+00 0. -1.
          1    1    5    5  503    0 -0.93458347587E+02  0.44744404910E+03  0.20393615672E+03  0.50053031459E+03  0.00000000000E+00 0. -1.
         -2    1    5    5    0  503 -0.33637171131E+02  0.49557489430E+02  0.49360532889E+02  0.77613569995E+02  0.00000000000E+00 0.  1.
         -1    1    6    6    0  502  0.47239494357E+01  0.74265550579E+01  0.53564525324E+01  0.10303446124E+02  0.00000000000E+00 0.  1.
<mgrwt>
<rscale>  0 0.17169790E+04</rscale>
<asrwt>0</asrwt>
<pdfrwt beam="1">  1        1 0.23011357E+00 0.17169790E+04</pdfrwt>
<pdfrwt beam="2">  1       -1 0.75805554E-01 0.17169790E+04</pdfrwt>
<totfact> 0.10941583E+01</totfact>
</mgrwt>
</event>
<event>
12    1  0.1442183E-007  0.1237334E+04  0.7818608E-02  0.9080792E-01
         -1   -1    0    0    0  501 -0.00000000000E+00  0.00000000000E+00  0.55033434816E+03  0.55033434816E+03  0.00000000000E+00 0.  1.
          1   -1    0    0  501    0  0.00000000000E+00 -0.00000000000E+00 -0.69548418624E+03  0.69548418624E+03  0.00000000000E+00 0. -1.
         23    2    1    2    0    0  0.15211315637E+03  0.17282769670E+03 -0.26186380930E+03  0.36098572812E+03  0.93435625936E+02 0.  0.
        254    2    1    2    0    0 -0.15211315637E+03 -0.17282769670E+03  0.11671397122E+03  0.88483280628E+03  0.84634456275E+03 0.  0.
        -24    2    4    4    0    0 -0.37102234140E+03  0.10045461708E+03 -0.16860583962E+03  0.42719381665E+03  0.79485344071E+02 0.  0.
         24    2    4    4    0    0  0.21890918503E+03 -0.27328231378E+03  0.28531981084E+03  0.45763898962E+03  0.73631488185E+02 0.  0.
         11    1    3    3    0    0  0.77133423670E+02  0.95173961317E+02 -0.20541700959E+03  0.23917315022E+03  0.00000000000E+00 0. -1.
        -11    1    3    3    0    0  0.74979732702E+02  0.77653735385E+02 -0.56446799714E+02  0.12181257789E+03  0.00000000000E+00 0.  1.
          2    1    6    6  502    0  0.69308346210E+02 -0.44317701272E+02  0.87446309852E+02  0.12006066220E+03  0.00000000000E+00 0. -1.
          3    1    5    5  503    0 -0.16226143705E+03  0.17838391171E+02 -0.10405983195E+03  0.19358571946E+03  0.00000000000E+00 0. -1.
         -4    1    5    5    0  503 -0.20876090435E+03  0.82616225904E+02 -0.64546007668E+02  0.23360809719E+03  0.00000000000E+00 0.  1.
         -1    1    6    6    0  502  0.14960083882E+03 -0.22896461251E+03  0.19787350098E+03  0.33757832743E+03  0.00000000000E+00 0.  1.
<mgrwt>
<rscale>  0 0.12373340E+04</rscale>
<asrwt>0</asrwt>
<pdfrwt beam="1">  1        1 0.10699757E+00 0.12373340E+04</pdfrwt>
<pdfrwt beam="2">  1       -1 0.84666822E-01 0.12373340E+04</pdfrwt>
<totfact> 0.37519200E+01</totfact>
</mgrwt>
</event>
<event>
12    1  0.1442183E-007  0.9803336E+03  0.7818608E-02  0.9330381E-01
         -1   -1    0    0    0  501 -0.00000000000E+00  0.00000000000E+00  0.35690916825E+03  0.35690916825E+03  0.00000000000E+00 0.  1.
          1   -1    0    0  501    0  0.00000000000E+00 -0.00000000000E+00 -0.67317830630E+03  0.67317830630E+03  0.00000000000E+00 0. -1.
         23    2    1    2    0    0 -0.26681551894E+02  0.49629159205E+02 -0.49910716486E+02  0.11889710174E+03  0.92035224377E+02 0.  0.
        254    2    1    2    0    0  0.26681551894E+02 -0.49629159205E+02 -0.26635842155E+03  0.91119037281E+03  0.86956663236E+03 0.  0.
        -24    2    4    4    0    0  0.42863266981E+03  0.19841537627E+02 -0.23080937336E+03  0.49384165243E+03  0.80541657561E+02 0.  0.
         24    2    4    4    0    0 -0.40195111792E+03 -0.69470696832E+02 -0.35549048191E+02  0.41734872038E+03  0.80779580721E+02 0.  0.
         11    1    3    3    0    0  0.12134557857E+02  0.29654430426E+02 -0.65196256142E+02  0.72644232760E+02  0.00000000000E+00 0. -1.
        -11    1    3    3    0    0 -0.38816109751E+02  0.19974728779E+02  0.15285539656E+02  0.46252868976E+02  0.00000000000E+00 0.  1.
          4    1    6    6  502    0 -0.22617005255E+03 -0.17134279520E+02 -0.53570673691E+02  0.23305856192E+03  0.00000000000E+00 0. -1.
          3    1    5    5  503    0  0.72627746016E+02  0.31765243283E+02 -0.55991208188E+02  0.97050685554E+02  0.00000000000E+00 0. -1.
         -4    1    5    5    0  503  0.35600492380E+03 -0.11923705656E+02 -0.17481816518E+03  0.39679096688E+03  0.00000000000E+00 0.  1.
         -3    1    6    6    0  502 -0.17578106537E+03 -0.52336417312E+02  0.18021625500E+02  0.18429015846E+03  0.00000000000E+00 0.  1.
<mgrwt>
<rscale>  0 0.98033364E+03</rscale>
<asrwt>0</asrwt>
<pdfrwt beam="1">  1        1 0.10356589E+00 0.98033364E+03</pdfrwt>
<pdfrwt beam="2">  1       -1 0.54909103E-01 0.98033364E+03</pdfrwt>
<totfact> 0.97233714E+01</totfact>
</mgrwt>
</event>
<event>
12    1  0.1442183E-007  0.1168082E+04  0.7818608E-02  0.9141262E-01
         -1   -1    0    0    0  501 -0.00000000000E+00  0.00000000000E+00  0.49273247368E+03  0.49273247368E+03  0.00000000000E+00 0.  1.
          1   -1    0    0  501    0  0.00000000000E+00 -0.00000000000E+00 -0.69227024586E+03  0.69227024586E+03  0.00000000000E+00 0. -1.
         23    2    1    2    0    0  0.11756534697E+03 -0.16025704895E+03  0.63933295960E+02  0.22775804766E+03  0.91007304071E+02 0.  0.
        254    2    1    2    0    0 -0.11756534697E+03  0.16025704895E+03 -0.26347106813E+03  0.95724467189E+03  0.89855240558E+03 0.  0.
        -24    2    4    4    0    0  0.43484339676E+02  0.24670716166E+03 -0.54898863985E+03  0.60885793888E+03  0.81019452258E+02 0.  0.
         24    2    4    4    0    0 -0.16104968665E+03 -0.86450112711E+02  0.28551757171E+03  0.34838673301E+03  0.80264615003E+02 0.  0.
         13    1    3    3    0    0  0.13232797040E+03 -0.14278986846E+03  0.63870443202E+02  0.20488794937E+03  0.00000000000E+00 0.  1.
        -13    1    3    3    0    0 -0.14762623432E+02 -0.17467180492E+02  0.62852757863E-01  0.22870098281E+02  0.00000000000E+00 0. -1.
          4    1    6    6  502    0  0.16841421939E+01  0.10164854189E+02  0.16964555391E+02  0.19848343387E+02  0.00000000000E+00 0. -1.
          3    1    5    5  503    0 -0.11785721352E+02  0.18249958211E+02 -0.18149377523E+02  0.28308375209E+02  0.00000000000E+00 0. -1.
         -4    1    5    5    0  503  0.55270061028E+02  0.22845720345E+03 -0.53083926232E+03  0.58054956367E+03  0.00000000000E+00 0.  1.
         -3    1    6    6    0  502 -0.16273382884E+03 -0.96614966899E+02  0.26855301632E+03  0.32853838962E+03  0.00000000000E+00 0.  1.
<mgrwt>
<rscale>  0 0.11680822E+04</rscale>
<asrwt>0</asrwt>
<pdfrwt beam="1">  1        1 0.10650311E+00 0.11680822E+04</pdfrwt>
<pdfrwt beam="2">  1       -1 0.75804996E-01 0.11680822E+04</pdfrwt>
<totfact> 0.48073177E+01</totfact>
</mgrwt>
</event>
<event>
12    1  0.1939725E-007  0.2100179E+04  0.7818608E-02  0.8561165E-01
          2   -1    0    0  501    0  0.00000000000E+00  0.00000000000E+00  0.10130966927E+04  0.10130966927E+04  0.00000000000E+00 0. -1.
         -2   -1    0    0    0  501 -0.00000000000E+00 -0.00000000000E+00 -0.10884329532E+04  0.10884329532E+04  0.00000000000E+00 0.  1.
         23    2    1    2    0    0 -0.60629051015E+03  0.25546655290E+03  0.51788531183E+03  0.84227280759E+03  0.91471000052E+02 0.  0.
        254    2    1    2    0    0  0.60629051015E+03 -0.25546655290E+03 -0.59322157233E+03  0.12592568382E+04  0.89496626107E+03 0.  0.
        -24    2    4    4    0    0  0.75268617470E+03  0.14917844705E+02 -0.55637539196E+03  0.93948497415E+03  0.79494780942E+02 0.  0.
         24    2    4    4    0    0 -0.14639566455E+03 -0.27038439761E+03 -0.36846180365E+02  0.31977186410E+03  0.79730740603E+02 0.  0.
         13    1    3    3    0    0 -0.44420484127E+03  0.16731255309E+03  0.32449795411E+03  0.57498726390E+03  0.00000000000E+00 0. -1.
        -13    1    3    3    0    0 -0.16208566888E+03  0.88153999813E+02  0.19338735772E+03  0.26728554369E+03  0.00000000000E+00 0.  1.
          4    1    6    6  502    0 -0.28564896818E+02 -0.11779756968E+03 -0.37845417691E+02  0.12698226803E+03  0.00000000000E+00 0. -1.
          3    1    5    5  503    0  0.17744757918E+03  0.35297603974E+02 -0.11874369928E+03  0.21641079067E+03  0.00000000000E+00 0. -1.
         -4    1    5    5    0  503  0.57523859552E+03 -0.20379759269E+02 -0.43763169269E+03  0.72307418348E+03  0.00000000000E+00 0.  1.
         -3    1    6    6    0  502 -0.11783076773E+03 -0.15258682792E+03  0.99923732618E+00  0.19278959607E+03  0.00000000000E+00 0.  1.
<mgrwt>
<rscale>  0 0.21001789E+04</rscale>
<asrwt>0</asrwt>
<pdfrwt beam="1">  1        2 0.15586103E+00 0.21001789E+04</pdfrwt>
<pdfrwt beam="2">  1       -2 0.16745122E+00 0.21001789E+04</pdfrwt>
<totfact> 0.50596981E+00</totfact>
</mgrwt>
</event>
<event>
12    1  0.1442183E-007  0.2004850E+04  0.7818608E-02  0.8604356E-01
         -2   -1    0    0    0  501 -0.00000000000E+00  0.00000000000E+00  0.51772924115E+03  0.51772924115E+03  0.00000000000E+00 0.  1.
          2   -1    0    0  501    0  0.00000000000E+00 -0.00000000000E+00 -0.19408910800E+04  0.19408910800E+04  0.00000000000E+00 0. -1.
         23    2    1    2    0    0 -0.54615283861E+03  0.53520683193E+03 -0.85565293487E+03  0.11517108782E+04  0.97809641004E+02 0.  0.
        254    2    1    2    0    0  0.54615283861E+03 -0.53520683193E+03 -0.56750890402E+03  0.13069094430E+04  0.89510706625E+03 0.  0.
        -24    2    4    4    0    0  0.57080092112E+03 -0.72585418468E+03 -0.31335701573E+03  0.97841929739E+03  0.80210430910E+02 0.  0.
         24    2    4    4    0    0 -0.24648082508E+02  0.19064735276E+03 -0.25415188829E+03  0.32849014563E+03  0.79741158557E+02 0.  0.
         13    1    3    3    0    0 -0.39180881403E+03  0.42304768042E+03 -0.68842283777E+03  0.89800305691E+03  0.00000000000E+00 0. -1.
        -13    1    3    3    0    0 -0.15434402458E+03  0.11215915151E+03 -0.16723009710E+03  0.25370782126E+03  0.00000000000E+00 0.  1.
          4    1    6    6  502    0  0.14138904531E+01 -0.46371883506E+01 -0.28604574803E+02  0.29012485272E+02  0.00000000000E+00 0. -1.
          3    1    5    5  503    0  0.50963887899E+02 -0.70591283889E+02 -0.55097335399E+02  0.10303476888E+03  0.00000000000E+00 0. -1.
         -4    1    5    5    0  503  0.51983703322E+03 -0.65526290080E+03 -0.25825968033E+03  0.87538452850E+03  0.00000000000E+00 0.  1.
         -3    1    6    6    0  502 -0.26061972962E+02  0.19528454111E+03 -0.22554731349E+03  0.29947766036E+03  0.00000000000E+00 0.  1.
<mgrwt>
<rscale>  0 0.20048502E+04</rscale>
<asrwt>0</asrwt>
<pdfrwt beam="1">  1        2 0.29859862E+00 0.20048502E+04</pdfrwt>
<pdfrwt beam="2">  1       -2 0.79650654E-01 0.20048502E+04</pdfrwt>
<totfact> 0.93420193E+00</totfact>
</mgrwt>
</event>
<event>
12    1  0.1442183E-007  0.1536803E+04  0.7818608E-02  0.8860342E-01
         -2   -1    0    0    0  501 -0.00000000000E+00  0.00000000000E+00  0.12162075542E+04  0.12162075542E+04  0.00000000000E+00 0.  1.
          2   -1    0    0  501    0  0.00000000000E+00 -0.00000000000E+00 -0.48547693880E+03  0.48547693880E+03  0.00000000000E+00 0. -1.
         23    2    1    2    0    0  0.19395449682E+03  0.23547925212E+03 -0.19652482844E+03  0.37318635162E+03  0.87047227553E+02 0.  0.
        254    2    1    2    0    0 -0.19395449682E+03 -0.23547925212E+03  0.92725544388E+03  0.13284981414E+04  0.90113030609E+03 0.  0.
        -24    2    4    4    0    0 -0.22829754170E+02  0.33331312083E+03  0.42423952146E+03  0.54605234177E+03  0.81087324478E+02 0.  0.
         24    2    4    4    0    0 -0.17112474265E+03 -0.56879237295E+03  0.50301592242E+03  0.78244579966E+03  0.79924777907E+02 0.  0.
         11    1    3    3    0    0  0.51963770183E+02  0.83870654903E+02 -0.11110901673E+03  0.14859250911E+03  0.00000000000E+00 0.  1.
        -11    1    3    3    0    0  0.14199072664E+03  0.15160859722E+03 -0.85415811707E+02  0.22459384251E+03  0.00000000000E+00 0. -1.
          2    1    6    6  502    0 -0.10300593027E+03 -0.43242764958E+03  0.40395917560E+03  0.60065539982E+03  0.00000000000E+00 0. -1.
          1    1    5    5  503    0 -0.15119042612E+02  0.24282690022E+02  0.12580471987E+02  0.31249044140E+02  0.00000000000E+00 0. -1.
         -2    1    5    5    0  503 -0.77107115580E+01  0.30903043081E+03  0.41165904947E+03  0.51480329763E+03  0.00000000000E+00 0.  1.
         -1    1    6    6    0  502 -0.68118812382E+02 -0.13636472337E+03  0.99056746820E+02  0.18179039983E+03  0.00000000000E+00 0.  1.
<mgrwt>
<rscale>  0 0.15368028E+04</rscale>
<asrwt>0</asrwt>
<pdfrwt beam="1">  1        2 0.74688760E-01 0.15368028E+04</pdfrwt>
<pdfrwt beam="2">  1       -2 0.18710885E+00 0.15368028E+04</pdfrwt>
<totfact> 0.99434134E+00</totfact>
</mgrwt>
</event>
<event>
12    1  0.1442183E-007  0.1406210E+04  0.7818608E-02  0.8949335E-01
          1   -1    0    0  501    0  0.00000000000E+00  0.00000000000E+00  0.33644629762E+03  0.33644629762E+03  0.00000000000E+00 0. -1.
         -1   -1    0    0    0  501 -0.00000000000E+00 -0.00000000000E+00 -0.14693484282E+04  0.14693484282E+04  0.00000000000E+00 0.  1.
         23    2    1    2    0    0 -0.19086031405E+03  0.32867951640E+03 -0.87506817585E+02  0.39978204559E+03  0.87808637780E+02 0.  0.
        254    2    1    2    0    0  0.19086031405E+03 -0.32867951640E+03 -0.10453953130E+04  0.14060126802E+04  0.85997814653E+03 0.  0.
        -24    2    4    4    0    0  0.34254501347E+03 -0.55451461989E+03 -0.72573818166E+03  0.97863646977E+03  0.78802802793E+02 0.  0.
         24    2    4    4    0    0 -0.15168469941E+03  0.22583510349E+03 -0.31965713131E+03  0.42737621042E+03  0.80374135362E+02 0.  0.
         11    1    3    3    0    0 -0.15068406529E+03  0.24622164944E+03 -0.27071464797E+02  0.28993732494E+03  0.00000000000E+00 0. -1.
        -11    1    3    3    0    0 -0.40176248766E+02  0.82457866963E+02 -0.60435352788E+02  0.10984472065E+03  0.00000000000E+00 0.  1.
          2    1    6    6  502    0 -0.64634623071E+02  0.13532213844E+03 -0.12258171739E+03  0.19369045689E+03  0.00000000000E+00 0. -1.
          1    1    5    5  503    0  0.30635040028E+03 -0.49262195898E+03 -0.60478083859E+03  0.83802555149E+03  0.00000000000E+00 0. -1.
         -2    1    5    5    0  503  0.36194613184E+02 -0.61892660909E+02 -0.12095734307E+03  0.14061091828E+03  0.00000000000E+00 0.  1.
         -1    1    6    6    0  502 -0.87050076343E+02  0.90512965044E+02 -0.19707541392E+03  0.23368575353E+03  0.00000000000E+00 0.  1.
<mgrwt>
<rscale>  0 0.14062103E+04</rscale>
<asrwt>0</asrwt>
<pdfrwt beam="1">  1        1 0.51760969E-01 0.14062103E+04</pdfrwt>
<pdfrwt beam="2">  1       -1 0.22605361E+00 0.14062103E+04</pdfrwt>
<totfact> 0.73742879E+00</totfact>
</mgrwt>
</event>
<event>
12    1  0.1442183E-007  0.1675148E+04  0.7818608E-02  0.8775666E-01
         -2   -1    0    0    0  501 -0.00000000000E+00  0.00000000000E+00  0.63057720175E+03  0.63057720175E+03  0.00000000000E+00 0.  1.
          2   -1    0    0  501    0  0.00000000000E+00 -0.00000000000E+00 -0.11125212789E+04  0.11125212789E+04  0.00000000000E+00 0. -1.
         23    2    1    2    0    0  0.43808740583E+03 -0.37797978212E+03 -0.28210521030E+03  0.65014599740E+03  0.91198560376E+02 0.  0.
        254    2    1    2    0    0 -0.43808740583E+03  0.37797978212E+03 -0.19983886688E+03  0.10929524833E+04  0.90543926751E+03 0.  0.
        -24    2    4    4    0    0 -0.21653305807E+03  0.65534734720E+03 -0.21744769020E+03  0.72804870832E+03  0.80029450781E+02 0.  0.
         24    2    4    4    0    0 -0.22155434777E+03 -0.27736756509E+03  0.17608823319E+02  0.36490377496E+03  0.82617184299E+02 0.  0.
         11    1    3    3    0    0  0.29420622980E+03 -0.29968565365E+03 -0.22658099893E+03  0.47718732771E+03  0.00000000000E+00 0. -1.
        -11    1    3    3    0    0  0.14388117604E+03 -0.78294128465E+02 -0.55524211367E+02  0.17295866968E+03  0.00000000000E+00 0.  1.
          2    1    6    6  502    0 -0.38482133631E+02 -0.21632058141E+02 -0.19408499624E+02  0.48223546177E+02  0.00000000000E+00 0. -1.
          3    1    5    5  503    0  0.67487081606E+00  0.18879910462E+02  0.52791403518E+01  0.19615702703E+02  0.00000000000E+00 0. -1.
         -4    1    5    5    0  503 -0.21720792888E+03  0.63646743674E+03 -0.22272683055E+03  0.70843300562E+03  0.00000000000E+00 0.  1.
         -1    1    6    6    0  502 -0.18307221414E+03 -0.25573550695E+03  0.37017322943E+02  0.31668022878E+03  0.00000000000E+00 0.  1.
<mgrwt>
<rscale>  0 0.16751484E+04</rscale>
<asrwt>0</asrwt>
<pdfrwt beam="1">  1        2 0.17115712E+00 0.16751484E+04</pdfrwt>
<pdfrwt beam="2">  1       -2 0.97011878E-01 0.16751484E+04</pdfrwt>
<totfact> 0.18108827E+01</totfact>
</mgrwt>
</event>
<event>
12    1  0.1442183E-007  0.1688676E+04  0.7818608E-02  0.8767849E-01
         -1   -1    0    0    0  501 -0.00000000000E+00  0.00000000000E+00  0.12621613245E+04  0.12621613245E+04  0.00000000000E+00 0.  1.
          1   -1    0    0  501    0  0.00000000000E+00 -0.00000000000E+00 -0.56482991071E+03  0.56482991071E+03  0.00000000000E+00 0. -1.
         23    2    1    2    0    0 -0.34126839188E+03 -0.42097894997E+03  0.55576755391E+03  0.78157238848E+03  0.91051814053E+02 0.  0.
        254    2    1    2    0    0  0.34126839188E+03  0.42097894997E+03  0.14156385993E+03  0.10454188468E+04  0.88270767933E+03 0.  0.
        -24    2    4    4    0    0  0.61675256818E+03  0.36672727932E+03  0.19681439798E+03  0.74836211577E+03  0.80232919221E+02 0.  0.
         24    2    4    4    0    0 -0.27548417629E+03  0.54251670647E+02 -0.55250538049E+02  0.29705673100E+03  0.79720162588E+02 0.  0.
         11    1    3    3    0    0 -0.29284799797E+03 -0.38250736085E+03  0.52489594928E+03  0.71245181493E+03  0.00000000000E+00 0.  1.
        -11    1    3    3    0    0 -0.48420393914E+02 -0.38471589115E+02  0.30871604622E+02  0.69120573549E+02  0.00000000000E+00 0. -1.
          2    1    6    6  502    0 -0.26704497440E+03  0.50236956448E+02 -0.69073501088E+02  0.28037103755E+03  0.00000000000E+00 0. -1.
          3    1    5    5  503    0  0.61911083414E+03  0.36684919468E+03  0.19584533820E+03  0.74580959573E+03  0.00000000000E+00 0. -1.
         -4    1    5    5    0  503 -0.23582659674E+01 -0.12191535705E+00  0.96905977370E+00  0.25525200435E+01  0.00000000000E+00 0.  1.
         -1    1    6    6    0  502 -0.84392018892E+01  0.40147141990E+01  0.13822963038E+02  0.16685693446E+02  0.00000000000E+00 0.  1.
<mgrwt>
<rscale>  0 0.16886758E+04</rscale>
<asrwt>0</asrwt>
<pdfrwt beam="1">  1        1 0.86896910E-01 0.16886758E+04</pdfrwt>
<pdfrwt beam="2">  1       -1 0.19417866E+00 0.16886758E+04</pdfrwt>
<totfact> 0.58759821E+00</totfact>
</mgrwt>
</event>
<event>
12    1  0.1442183E-007  0.1233298E+04  0.7818608E-02  0.9084200E-01
          2   -1    0    0  501    0  0.00000000000E+00  0.00000000000E+00  0.27232451345E+03  0.27232451345E+03  0.00000000000E+00 0. -1.
         -2   -1    0    0    0  501 -0.00000000000E+00 -0.00000000000E+00 -0.13963333997E+04  0.13963333997E+04  0.00000000000E+00 0.  1.
         23    2    1    2    0    0  0.28312649690E+02 -0.47965711756E+02 -0.64475689095E+03  0.65357996796E+03  0.91394805397E+02 0.  0.
        254    2    1    2    0    0 -0.28312649690E+02  0.47965711756E+02 -0.47925199535E+03  0.10150779452E+04  0.89308367146E+03 0.  0.
        -24    2    4    4    0    0  0.31457546094E+02  0.20494680745E+03 -0.69521569456E+03  0.72989717273E+03  0.80201307426E+02 0.  0.
         24    2    4    4    0    0 -0.59770195784E+02 -0.15698109570E+03  0.21596369921E+03  0.28518077251E+03  0.80450064765E+02 0.  0.
         11    1    3    3    0    0  0.18025934979E+02  0.25719873212E+02 -0.23944866254E+03  0.24149970642E+03  0.00000000000E+00 0. -1.
        -11    1    3    3    0    0  0.10286714711E+02 -0.73685584968E+02 -0.40530822841E+03  0.41208026154E+03  0.00000000000E+00 0.  1.
          2    1    6    6  502    0 -0.17645116593E+02 -0.20182181136E+02  0.91997150146E+02  0.95823515955E+02  0.00000000000E+00 0. -1.
          3    1    5    5  503    0  0.19962922865E+02  0.13157061975E+03 -0.56032694675E+03  0.57591286974E+03  0.00000000000E+00 0. -1.
         -4    1    5    5    0  503  0.11494623229E+02  0.73376187703E+02 -0.13488874781E+03  0.15398430300E+03  0.00000000000E+00 0.  1.
         -1    1    6    6    0  502 -0.42125079192E+02 -0.13679891456E+03  0.12396654906E+03  0.18935725655E+03  0.00000000000E+00 0.  1.
<mgrwt>
<rscale>  0 0.12332977E+04</rscale>
<asrwt>0</asrwt>
<pdfrwt beam="1">  1        2 0.41896078E-01 0.12332977E+04</pdfrwt>
<pdfrwt beam="2">  1       -2 0.21482053E+00 0.12332977E+04</pdfrwt>
<totfact> 0.12841515E+01</totfact>
</mgrwt>
</event>
<event>
12    1  0.1442183E-007  0.2554838E+04  0.7818608E-02  0.8383705E-01
          2   -1    0    0  501    0  0.00000000000E+00  0.00000000000E+00  0.24754633489E+04  0.24754633489E+04  0.00000000000E+00 0. -1.
         -2   -1    0    0    0  501 -0.00000000000E+00 -0.00000000000E+00 -0.65918968593E+03  0.65918968593E+03  0.00000000000E+00 0.  1.
         23    2    1    2    0    0  0.55476174208E+03  0.80168186034E+03  0.13140461267E+03  0.98818341268E+03  0.93727739701E+02 0.  0.
        254    2    1    2    0    0 -0.55476174208E+03 -0.80168186034E+03  0.16848690503E+04  0.21464696222E+04  0.90448533789E+03 0.  0.
        -24    2    4    4    0    0 -0.49795679272E+03 -0.92875073112E+03  0.10420921408E+04  0.14845381712E+04  0.85782655275E+02 0.  0.
         24    2    4    4    0    0 -0.56804949368E+02  0.12706887078E+03  0.64277690950E+03  0.66193145092E+03  0.74951918823E+02 0.  0.
         11    1    3    3    0    0  0.13174615594E+03  0.25368325324E+03  0.15506122950E+02  0.28627378928E+03  0.00000000000E+00 0. -1.
        -11    1    3    3    0    0  0.42301558614E+03  0.54799860710E+03  0.11589848972E+03  0.70190962340E+03  0.00000000000E+00 0.  1.
          4    1    6    6  502    0 -0.22013763484E+02  0.33739270659E+02  0.35757347884E+03  0.35983570825E+03  0.00000000000E+00 0. -1.
          3    1    5    5  503    0 -0.41704649300E+03 -0.76565342847E+03  0.81498498937E+03  0.11934628116E+04  0.00000000000E+00 0. -1.
         -4    1    5    5    0  503 -0.80910299718E+02 -0.16309730265E+03  0.22710715145E+03  0.29107535961E+03  0.00000000000E+00 0.  1.
         -3    1    6    6    0  502 -0.34791185883E+02  0.93329600122E+02  0.28520343066E+03  0.30209574266E+03  0.00000000000E+00 0.  1.
<mgrwt>
<rscale>  0 0.25548385E+04</rscale>
<asrwt>0</asrwt>
<pdfrwt beam="1">  1        2 0.38084051E+00 0.25548385E+04</pdfrwt>
<pdfrwt beam="2">  1       -2 0.10141380E+00 0.25548385E+04</pdfrwt>
<totfact> 0.25507128E+00</totfact>
</mgrwt>
</event>
<event>
12    1  0.1442183E-007  0.1119673E+04  0.7818608E-02  0.9186226E-01
          1   -1    0    0  501    0  0.00000000000E+00  0.00000000000E+00  0.59906251451E+03  0.59906251451E+03  0.00000000000E+00 0. -1.
         -1   -1    0    0    0  501 -0.00000000000E+00 -0.00000000000E+00 -0.52317907501E+03  0.52317907501E+03  0.00000000000E+00 0.  1.
         23    2    1    2    0    0 -0.15216462598E+03  0.27961888842E+02 -0.74709280349E+02  0.19493375120E+03  0.92096417747E+02 0.  0.
        254    2    1    2    0    0  0.15216462598E+03 -0.27961888842E+02  0.15059271985E+03  0.92730783832E+03  0.90182355209E+03 0.  0.
        -24    2    4    4    0    0 -0.14630618787E+02  0.42041641301E+03  0.40916045539E+02  0.43022109787E+03  0.80324684456E+02 0.  0.
         24    2    4    4    0    0  0.16679524476E+03 -0.44837830185E+03  0.10967667431E+03  0.49708674045E+03  0.78755948337E+02 0.  0.
         11    1    3    3    0    0 -0.34116105708E+02 -0.22175077830E+02  0.91384582671E+01  0.41703167325E+02  0.00000000000E+00 0. -1.
        -11    1    3    3    0    0 -0.11804852027E+03  0.50136966672E+02 -0.83847738616E+02  0.15323058388E+03  0.00000000000E+00 0.  1.
          2    1    6    6  502    0  0.96542647213E+02 -0.35437947829E+03  0.77120657543E+02  0.37530373457E+03  0.00000000000E+00 0. -1.
          1    1    5    5  503    0  0.10172196606E+02  0.36825398226E+03  0.20515559980E+02  0.36896525207E+03  0.00000000000E+00 0. -1.
         -2    1    5    5    0  503 -0.24802815393E+02  0.52162430749E+02  0.20400485559E+02  0.61255845795E+02  0.00000000000E+00 0.  1.
         -1    1    6    6    0  502  0.70252597550E+02 -0.93998823564E+02  0.32556016764E+02  0.12178300588E+03  0.00000000000E+00 0.  1.
<mgrwt>
<rscale>  0 0.11196731E+04</rscale>
<asrwt>0</asrwt>
<pdfrwt beam="1">  1        1 0.92163463E-01 0.11196731E+04</pdfrwt>
<pdfrwt beam="2">  1       -1 0.80489089E-01 0.11196731E+04</pdfrwt>
<totfact> 0.52627887E+01</totfact>
</mgrwt>
</event>
<event>
12    1  0.1442183E-007  0.1881018E+04  0.7818608E-02  0.8664363E-01
         -3   -1    0    0    0  501 -0.00000000000E+00  0.00000000000E+00  0.16342683706E+04  0.16342683706E+04  0.00000000000E+00 0.  1.
          3   -1    0    0  501    0  0.00000000000E+00 -0.00000000000E+00 -0.54125575442E+03  0.54125575442E+03  0.00000000000E+00 0. -1.
         23    2    1    2    0    0  0.11852123383E+03 -0.47271105256E+03 -0.19293147232E+03  0.53199723486E+03  0.91079541110E+02 0.  0.
        254    2    1    2    0    0 -0.11852123383E+03  0.47271105256E+03  0.12859440885E+04  0.16435268902E+04  0.90001412090E+03 0.  0.
        -24    2    4    4    0    0  0.20786550788E+03 -0.39648597476E+02  0.87930685445E+03  0.90810740575E+03  0.81843970117E+02 0.  0.
         24    2    4    4    0    0 -0.32638674171E+03  0.51235965004E+03  0.40663723409E+03  0.73541948443E+03  0.80294842830E+02 0.  0.
         13    1    3    3    0    0  0.12763828175E+03 -0.44227817650E+03 -0.19550560808E+03  0.50012394380E+03  0.00000000000E+00 0. -1.
        -13    1    3    3    0    0 -0.91170479213E+01 -0.30432876066E+02  0.25741357532E+01  0.31873291065E+02  0.00000000000E+00 0.  1.
          4    1    6    6  502    0 -0.26899340379E+02  0.31817987822E+02  0.67166978012E+01  0.42202759284E+02  0.00000000000E+00 0. -1.
          3    1    5    5  503    0  0.49146295922E+02  0.21983118872E+02  0.15594613092E+03  0.16497821574E+03  0.00000000000E+00 0. -1.
         -4    1    5    5    0  503  0.15871921196E+03 -0.61631716348E+02  0.72336072353E+03  0.74312919001E+03  0.00000000000E+00 0.  1.
         -3    1    6    6    0  502 -0.29948740133E+03  0.48054166222E+03  0.39992053629E+03  0.69321672515E+03  0.00000000000E+00 0.  1.
<mgrwt>
<rscale>  0 0.18810180E+04</rscale>
<asrwt>0</asrwt>
<pdfrwt beam="1">  1        3 0.83270117E-01 0.18810180E+04</pdfrwt>
<pdfrwt beam="2">  1       -3 0.25142590E+00 0.18810180E+04</pdfrwt>
<totfact> 0.23418974E-01</totfact>
</mgrwt>
</event>
<event>
12    1  0.1442183E-007  0.1661113E+04  0.7818608E-02  0.8783859E-01
         -3   -1    0    0    0  501 -0.00000000000E+00  0.00000000000E+00  0.67437749748E+03  0.67437749748E+03  0.00000000000E+00 0. -1.
          3   -1    0    0  501    0  0.00000000000E+00 -0.00000000000E+00 -0.10229047969E+04  0.10229047969E+04  0.00000000000E+00 0.  1.
         23    2    1    2    0    0 -0.41416810579E+01 -0.26045290622E+03 -0.65441857413E+03  0.71019388424E+03  0.90878012544E+02 0.  0.
        254    2    1    2    0    0  0.41416810579E+01  0.26045290622E+03  0.30589127470E+03  0.98708841015E+03  0.90162142146E+03 0.  0.
        -24    2    4    4    0    0 -0.15020452895E+02  0.54157151697E+02 -0.31377391844E+03  0.32880401055E+03  0.80618821505E+02 0.  0.
         24    2    4    4    0    0  0.19162133953E+02  0.20629575452E+03  0.61966519314E+03  0.65828439960E+03  0.80176514387E+02 0.  0.
         13    1    3    3    0    0  0.14552999182E+02 -0.51380593079E+02 -0.23733113183E+03  0.24326491992E+03  0.00000000000E+00 0.  1.
        -13    1    3    3    0    0 -0.18694680240E+02 -0.20907231314E+03 -0.41708744230E+03  0.46692896432E+03  0.00000000000E+00 0. -1.
          2    1    6    6  502    0  0.22932201728E+02  0.13563315554E+03  0.28814020117E+03  0.31929142533E+03  0.00000000000E+00 0. -1.
          1    1    5    5  503    0  0.23326120760E+02  0.18181736000E+02 -0.21389747763E+03  0.21593243010E+03  0.00000000000E+00 0. -1.
         -2    1    5    5    0  503 -0.38346573655E+02  0.35975415697E+02 -0.99876440810E+02  0.11287158046E+03  0.00000000000E+00 0.  1.
         -1    1    6    6    0  502 -0.37700677755E+01  0.70662598978E+02  0.33152499197E+03  0.33899297427E+03  0.00000000000E+00 0.  1.
<mgrwt>
<rscale>  0 0.16611129E+04</rscale>
<asrwt>0</asrwt>
<pdfrwt beam="1">  1        3 0.15736997E+00 0.16611129E+04</pdfrwt>
<pdfrwt beam="2">  1       -3 0.10375038E+00 0.16611129E+04</pdfrwt>
<totfact> 0.57142010E-01</totfact>
</mgrwt>
</event>
<event>
12    1  0.1442183E-007  0.1870203E+04  0.7818608E-02  0.8669832E-01
          2   -1    0    0  501    0  0.00000000000E+00  0.00000000000E+00  0.36445464736E+04  0.36445464736E+04  0.00000000000E+00 0.  1.
         -2   -1    0    0    0  501 -0.00000000000E+00 -0.00000000000E+00 -0.23992419377E+03  0.23992419377E+03  0.00000000000E+00 0. -1.
         23    2    1    2    0    0  0.22996103313E+03 -0.64457820732E+03  0.16159973947E+04  0.17572262552E+04  0.89629181746E+02 0.  0.
        254    2    1    2    0    0 -0.22996103313E+03  0.64457820732E+03  0.17886248852E+04  0.21272444122E+04  0.92608135024E+03 0.  0.
        -24    2    4    4    0    0  0.24206053931E+03  0.40460493787E+03  0.13597252352E+04  0.14411634536E+04  0.76163799819E+02 0.  0.
         24    2    4    4    0    0 -0.47202157243E+03  0.23997326945E+03  0.42889964995E+03  0.68608095855E+03  0.79753602167E+02 0.  0.
         13    1    3    3    0    0  0.20058957005E+03 -0.49634195426E+03  0.11793184358E+04  0.12951384035E+04  0.00000000000E+00 0.  1.
        -13    1    3    3    0    0  0.29371463074E+02 -0.14823625307E+03  0.43667895892E+03  0.46208785175E+03  0.00000000000E+00 0. -1.
          2    1    6    6  502    0 -0.39912898288E+03  0.23305542059E+03  0.36604027135E+03  0.58957972683E+03  0.00000000000E+00 0. -1.
          1    1    5    5  503    0  0.92523002339E+02  0.16353249263E+03  0.43348565723E+03  0.47245443922E+03  0.00000000000E+00 0. -1.
         -2    1    5    5    0  503  0.14953753697E+03  0.24107244523E+03  0.92623957797E+03  0.96870901442E+03  0.00000000000E+00 0.  1.
         -1    1    6    6    0  502 -0.72892589554E+02  0.69178488664E+01  0.62859378600E+02  0.96501231716E+02  0.00000000000E+00 0.  1.
<mgrwt>
<rscale>  0 0.18702031E+04</rscale>
<asrwt>0</asrwt>
<pdfrwt beam="1">  1        2 0.56069942E+00 0.18702031E+04</pdfrwt>
<pdfrwt beam="2">  1       -2 0.36911417E-01 0.18702031E+04</pdfrwt>
<totfact> 0.41981179E+00</totfact>
</mgrwt>
</event>
<event>
12    1  0.1442183E-007  0.1302436E+04  0.7818608E-02  0.9027635E-01
         -2   -1    0    0    0  501 -0.00000000000E+00  0.00000000000E+00  0.25224856223E+03  0.25224856223E+03  0.00000000000E+00 0. -1.
          2   -1    0    0  501    0  0.00000000000E+00 -0.00000000000E+00 -0.16812189239E+04  0.16812189239E+04  0.00000000000E+00 0.  1.
         23    2    1    2    0    0  0.29987388807E+03  0.71890431074E+02 -0.60663914835E+03  0.68735401519E+03  0.96705238021E+02 0.  0.
        254    2    1    2    0    0 -0.29987388807E+03 -0.71890431074E+02 -0.82233121334E+03  0.12461134710E+04  0.88401220310E+03 0.  0.
        -24    2    4    4    0    0 -0.29796883783E+03 -0.25546209776E+03 -0.93359397327E+03  0.10155256262E+04  0.75155031655E+02 0.  0.
         24    2    4    4    0    0 -0.19050502365E+01  0.18357166669E+03  0.11126275993E+03  0.23058784478E+03  0.84197187525E+02 0.  0.
         11    1    3    3    0    0  0.27228230272E+02  0.89143663433E+01 -0.13815741180E+02  0.31807501559E+02  0.00000000000E+00 0. -1.
        -11    1    3    3    0    0  0.27264565779E+03  0.62976064731E+02 -0.59282340717E+03  0.65554651363E+03  0.00000000000E+00 0.  1.
          4    1    6    6  502    0 -0.16722472023E+02  0.15959427251E+03  0.58556554563E+02  0.17081815762E+03  0.00000000000E+00 0. -1.
          1    1    5    5  503    0 -0.22866076045E+03 -0.23139189150E+03 -0.73342703570E+03  0.80233606894E+03  0.00000000000E+00 0. -1.
         -2    1    5    5    0  503 -0.69308077377E+02 -0.24070206262E+02 -0.20016693757E+03  0.21318955724E+03  0.00000000000E+00 0.  1.
         -3    1    6    6    0  502  0.14817421787E+02  0.23977394175E+02  0.52706205362E+02  0.59769687162E+02  0.00000000000E+00 0.  1.
<mgrwt>
<rscale>  0 0.13024363E+04</rscale>
<asrwt>0</asrwt>
<pdfrwt beam="1">  1        2 0.25864906E+00 0.13024363E+04</pdfrwt>
<pdfrwt beam="2">  1       -2 0.38807472E-01 0.13024363E+04</pdfrwt>
<totfact> 0.61764818E+01</totfact>
</mgrwt>
</event>
<event>
12    1  0.1442183E-007  0.2573588E+04  0.7818608E-02  0.8377228E-01
         -1   -1    0    0    0  501 -0.00000000000E+00  0.00000000000E+00  0.50620619509E+03  0.50620619509E+03  0.00000000000E+00 0.  1.
          1   -1    0    0  501    0  0.00000000000E+00 -0.00000000000E+00 -0.32710764392E+04  0.32710764392E+04  0.00000000000E+00 0. -1.
         23    2    1    2    0    0  0.22636860393E+03 -0.22089820483E+03  0.37330948778E+03  0.49776886646E+03  0.91515621661E+02 0.  0.
        254    2    1    2    0    0 -0.22636860393E+03  0.22089820483E+03 -0.31381797319E+04  0.32795137678E+04  0.89833165478E+03 0.  0.
        -24    2    4    4    0    0 -0.29212673886E+03 -0.68293507671E+02 -0.28204437989E+04  0.28375621907E+04  0.82788459977E+02 0.  0.
         24    2    4    4    0    0  0.65758134933E+02  0.28919171250E+03 -0.31773593301E+03  0.44195157705E+03  0.80056820108E+02 0.  0.
         13    1    3    3    0    0  0.17443011048E+03 -0.17886072344E+03  0.34313934940E+03  0.42445451457E+03  0.00000000000E+00 0.  1.
        -13    1    3    3    0    0  0.51938493446E+02 -0.42037481392E+02  0.30170138380E+02  0.73314351890E+02  0.00000000000E+00 0. -1.
          2    1    6    6  502    0  0.95139293874E+01  0.16658018155E+02 -0.58757187717E+02  0.61809477669E+02  0.00000000000E+00 0. -1.
          1    1    5    5  503    0 -0.75164362944E+02  0.12509867967E+02 -0.53050542901E+03  0.53594980032E+03  0.00000000000E+00 0. -1.
         -2    1    5    5    0  503 -0.21696237592E+03 -0.80803375638E+02 -0.22899383698E+04  0.23016123904E+04  0.00000000000E+00 0.  1.
         -1    1    6    6    0  502  0.56244205545E+02  0.27253369435E+03 -0.25897874529E+03  0.38014209938E+03  0.00000000000E+00 0.  1.
<mgrwt>
<rscale>  0 0.25735883E+04</rscale>
<asrwt>0</asrwt>
<pdfrwt beam="1">  1        1 0.50324252E+00 0.25735883E+04</pdfrwt>
<pdfrwt beam="2">  1       -1 0.77877877E-01 0.25735883E+04</pdfrwt>
<totfact> 0.54780738E-01</totfact>
</mgrwt>
</event>
<event>
12    1  0.1442183E-007  0.1768769E+04  0.7818608E-02  0.8723086E-01
          1   -1    0    0  501    0  0.00000000000E+00  0.00000000000E+00  0.12129007830E+04  0.12129007830E+04  0.00000000000E+00 0. -1.
         -1   -1    0    0    0  501 -0.00000000000E+00 -0.00000000000E+00 -0.64484745748E+03  0.64484745748E+03  0.00000000000E+00 0.  1.
         23    2    1    2    0    0  0.20925705528E+03  0.61360406233E+03  0.29255426738E+03  0.71811687551E+03  0.99022154309E+02 0.  0.
        254    2    1    2    0    0 -0.20925705528E+03 -0.61360406233E+03  0.27549905814E+03  0.11396313650E+04  0.89585794439E+03 0.  0.
        -24    2    4    4    0    0 -0.50381918603E+03 -0.61512762263E+03  0.22289600751E+03  0.82962054074E+03  0.79823850553E+02 0.  0.
         24    2    4    4    0    0  0.29456213075E+03  0.15235602998E+01  0.52603050629E+02  0.31001082424E+03  0.81058374683E+02 0.  0.
         11    1    3    3    0    0  0.18939488539E+03  0.52504204814E+03  0.28587956622E+03  0.62710980004E+03  0.00000000000E+00 0.  1.
        -11    1    3    3    0    0  0.19862169889E+02  0.88562014190E+02  0.66747011563E+01  0.91007075470E+02  0.00000000000E+00 0. -1.
          2    1    6    6  502    0  0.12775378653E+03  0.26218173005E+02  0.54570151691E+02  0.14137299610E+03  0.00000000000E+00 0. -1.
          3    1    5    5  503    0 -0.26364210020E+03 -0.32595828012E+03  0.76172890807E+02  0.42609654618E+03  0.00000000000E+00 0. -1.
         -4    1    5    5    0  503 -0.24017708583E+03 -0.28916934251E+03  0.14672311671E+03  0.40352399456E+03  0.00000000000E+00 0.  1.
         -1    1    6    6    0  502  0.16680834421E+03 -0.24694612705E+02 -0.19671010619E+01  0.16863782815E+03  0.00000000000E+00 0.  1.
<mgrwt>
<rscale>  0 0.17687690E+04</rscale>
<asrwt>0</asrwt>
<pdfrwt beam="1">  1        1 0.18660012E+00 0.17687690E+04</pdfrwt>
<pdfrwt beam="2">  1       -1 0.99207302E-01 0.17687690E+04</pdfrwt>
<totfact> 0.96030582E+00</totfact>
</mgrwt>
</event>
<event>
12    1  0.1442183E-007  0.1395961E+04  0.7818608E-02  0.8956747E-01
          2   -1    0    0  501    0  0.00000000000E+00  0.00000000000E+00  0.75709288235E+03  0.75709288235E+03  0.00000000000E+00 0. -1.
         -2   -1    0    0    0  501 -0.00000000000E+00 -0.00000000000E+00 -0.64348362112E+03  0.64348362112E+03  0.00000000000E+00 0.  1.
         23    2    1    2    0    0  0.25251821631E+02 -0.36698821529E+03 -0.11284014663E+03  0.39522911824E+03  0.90305883276E+02 0.  0.
        254    2    1    2    0    0 -0.25251821631E+02  0.36698821529E+03  0.22644940786E+03  0.10053473852E+04  0.90781387189E+03 0.  0.
        -24    2    4    4    0    0 -0.27048545461E+03  0.57516429408E+03  0.90131326590E+02  0.64695420336E+03  0.80310266328E+02 0.  0.
         24    2    4    4    0    0  0.24523363298E+03 -0.20817607879E+03  0.13631808127E+03  0.35839318186E+03  0.79913947489E+02 0.  0.
         13    1    3    3    0    0  0.15268879948E+02 -0.82125113476E+02  0.11371246036E+02  0.84302895530E+02  0.00000000000E+00 0. -1.
        -13    1    3    3    0    0  0.99829416832E+01 -0.28486310182E+03 -0.12421139266E+03  0.31092622271E+03  0.00000000000E+00 0.  1.
          4    1    6    6  502    0  0.23484719049E+03 -0.19291304002E+03  0.14641418002E+03  0.33735108715E+03  0.00000000000E+00 0. -1.
          3    1    5    5  503    0 -0.20011503583E+03  0.37939044113E+03  0.28036489245E+02  0.42984785578E+03  0.00000000000E+00 0. -1.
         -4    1    5    5    0  503 -0.70370418779E+02  0.19577385295E+03  0.62094837345E+02  0.21710634759E+03  0.00000000000E+00 0.  1.
         -3    1    6    6    0  502  0.10386442489E+02 -0.15263038771E+02 -0.10096098750E+02  0.21042094717E+02  0.00000000000E+00 0.  1.
<mgrwt>
<rscale>  0 0.13959611E+04</rscale>
<asrwt>0</asrwt>
<pdfrwt beam="1">  1        2 0.11647583E+00 0.13959611E+04</pdfrwt>
<pdfrwt beam="2">  1       -2 0.98997481E-01 0.13959611E+04</pdfrwt>
<totfact> 0.30516136E+01</totfact>
</mgrwt>
</event>
<event>
12    1  0.1442183E-007  0.1620960E+04  0.7818608E-02  0.8807774E-01
         -2   -1    0    0    0  501 -0.00000000000E+00  0.00000000000E+00  0.21186279587E+03  0.21186279587E+03  0.00000000000E+00 0.  1.
          2   -1    0    0  501    0  0.00000000000E+00 -0.00000000000E+00 -0.31004884953E+04  0.31004884953E+04  0.00000000000E+00 0. -1.
         23    2    1    2    0    0 -0.29936381461E+03  0.11632365889E+03 -0.75769734782E+02  0.34233062950E+03  0.91100604111E+02 0.  0.
        254    2    1    2    0    0  0.29936381461E+03 -0.11632365889E+03 -0.28128559646E+04  0.29700206616E+04  0.89761582304E+03 0.  0.
        -24    2    4    4    0    0  0.27811740454E+03  0.36258995119E+03 -0.12241095337E+04  0.13090233228E+04  0.79228439402E+02 0.  0.
         24    2    4    4    0    0  0.21246410072E+02 -0.47891361009E+03 -0.15887464309E+04  0.16609973389E+04  0.70620692167E+02 0.  0.
         13    1    3    3    0    0 -0.28216177370E+03  0.12752038758E+03 -0.57668637995E+02  0.31496410525E+03  0.00000000000E+00 0.  1.
        -13    1    3    3    0    0 -0.17202040910E+02 -0.11196728688E+02 -0.18101096787E+02  0.27366524252E+02  0.00000000000E+00 0. -1.
          4    1    6    6  502    0  0.39389671551E+02 -0.43666872648E+03 -0.14258503405E+04  0.14917373484E+04  0.00000000000E+00 0. -1.
          3    1    5    5  503    0  0.11295237186E+03  0.15997830950E+03 -0.63525635273E+03  0.66475704698E+03  0.00000000000E+00 0. -1.
         -2    1    5    5    0  503  0.16516503268E+03  0.20261164169E+03 -0.58885318096E+03  0.64426627577E+03  0.00000000000E+00 0.  1.
         -3    1    6    6    0  502 -0.18143261479E+02 -0.42244883609E+02 -0.16289609040E+03  0.16925999053E+03  0.00000000000E+00 0.  1.
<mgrwt>
<rscale>  0 0.16209604E+04</rscale>
<asrwt>0</asrwt>
<pdfrwt beam="1">  1        2 0.47699822E+00 0.16209604E+04</pdfrwt>
<pdfrwt beam="2">  1       -2 0.32594277E-01 0.16209604E+04</pdfrwt>
<totfact> 0.12716150E+01</totfact>
</mgrwt>
</event>
<event>
12    1  0.1442183E-007  0.1674220E+04  0.7818608E-02  0.8776206E-01
         -1   -1    0    0    0  501 -0.00000000000E+00  0.00000000000E+00  0.26522971027E+03  0.26522971027E+03  0.00000000000E+00 0.  1.
          1   -1    0    0  501    0  0.00000000000E+00 -0.00000000000E+00 -0.26420612384E+04  0.26420612384E+04  0.00000000000E+00 0. -1.
         23    2    1    2    0    0 -0.15982745964E+03 -0.54643879847E+03 -0.60495073001E+03  0.83557523141E+03  0.89891068966E+02 0.  0.
        254    2    1    2    0    0  0.15982745964E+03  0.54643879847E+03 -0.17718807982E+04  0.20717157173E+04  0.91011223103E+03 0.  0.
        -24    2    4    4    0    0  0.28370439318E+03  0.41801568297E+03 -0.18018236279E+04  0.18729519263E+04  0.78455327875E+02 0.  0.
         24    2    4    4    0    0 -0.12387693354E+03  0.12842311550E+03  0.29942829718E+02  0.19876379096E+03  0.82295080564E+02 0.  0.
         11    1    3    3    0    0 -0.40528121340E+01 -0.35665941964E+02 -0.75486797073E+02  0.83586728819E+02  0.00000000000E+00 0. -1.
        -11    1    3    3    0    0 -0.15577464751E+03 -0.51077285651E+03 -0.52946393294E+03  0.75198850259E+03  0.00000000000E+00 0.  1.
          2    1    6    6  502    0 -0.78043714384E+02  0.95499904422E+02  0.57365203170E+02  0.13602139403E+03  0.00000000000E+00 0. -1.
          1    1    5    5  503    0  0.17206291631E+03  0.30168352112E+03 -0.13168410801E+04  0.13618696797E+04  0.00000000000E+00 0. -1.
         -2    1    5    5    0  503  0.11164147688E+03  0.11633216186E+03 -0.48498254776E+03  0.51108224668E+03  0.00000000000E+00 0.  1.
         -1    1    6    6    0  502 -0.45833219160E+02  0.32923211080E+02 -0.27422373452E+02  0.62742396927E+02  0.00000000000E+00 0.  1.
<mgrwt>
<rscale>  0 0.16742200E+04</rscale>
<asrwt>0</asrwt>
<pdfrwt beam="1">  1        1 0.40647097E+00 0.16742200E+04</pdfrwt>
<pdfrwt beam="2">  1       -1 0.40804570E-01 0.16742200E+04</pdfrwt>
<totfact> 0.60509746E+00</totfact>
</mgrwt>
</event>
<event>
12    1  0.1442183E-007  0.1947169E+04  0.7818608E-02  0.8631727E-01
         -1   -1    0    0    0  501 -0.00000000000E+00  0.00000000000E+00  0.24107538929E+04  0.24107538929E+04  0.00000000000E+00 0. -1.
          1   -1    0    0  501    0  0.00000000000E+00 -0.00000000000E+00 -0.39318276564E+03  0.39318276564E+03  0.00000000000E+00 0.  1.
         23    2    1    2    0    0  0.39432299288E+03  0.14389042351E+03  0.15999398760E+04  0.16565418822E+04  0.90157217218E+02 0.  0.
        254    2    1    2    0    0 -0.39432299288E+03 -0.14389042351E+03  0.41763125122E+03  0.11473947763E+04  0.98280406699E+03 0.  0.
        -24    2    4    4    0    0  0.14108354056E+03  0.26978308957E+03 -0.53555639846E+02  0.31909642056E+03  0.79163364112E+02 0.  0.
         24    2    4    4    0    0 -0.53540653344E+03 -0.41367351308E+03  0.47118689107E+03  0.82829835579E+03  0.79215834378E+02 0.  0.
         13    1    3    3    0    0  0.36808543242E+03  0.13325140551E+03  0.15542576461E+04  0.16027974460E+04  0.00000000000E+00 0. -1.
        -13    1    3    3    0    0  0.26237560464E+02  0.10639018001E+02  0.45682229950E+02  0.53744436143E+02  0.00000000000E+00 0.  1.
          4    1    6    6  502    0 -0.47322931562E+03 -0.37788950326E+03  0.44660589077E+03  0.75246480550E+03  0.00000000000E+00 0. -1.
          1    1    5    5  503    0 -0.33776551393E+01 -0.23022488771E+01 -0.61912640617E+01  0.74189389277E+01  0.00000000000E+00 0. -1.
         -4    1    5    5    0  503  0.14446119570E+03  0.27208533845E+03 -0.47364375784E+02  0.31167748163E+03  0.00000000000E+00 0.  1.
         -3    1    6    6    0  502 -0.62177217825E+02 -0.35784009816E+02  0.24581000295E+02  0.75833550296E+02  0.00000000000E+00 0.  1.
<mgrwt>
<rscale>  0 0.19471691E+04</rscale>
<asrwt>0</asrwt>
<pdfrwt beam="1">  1        1 0.60489657E-01 0.19471691E+04</pdfrwt>
<pdfrwt beam="2">  1       -1 0.37088521E+00 0.19471691E+04</pdfrwt>
<totfact> 0.64606646E-01</totfact>
</mgrwt>
</event>
<event>
12    1  0.1442183E-007  0.1180689E+04  0.7818608E-02  0.9129929E-01
          1   -1    0    0  501    0  0.00000000000E+00  0.00000000000E+00  0.20692584264E+03  0.20692584264E+03  0.00000000000E+00 0. -1.
         -1   -1    0    0    0  501 -0.00000000000E+00 -0.00000000000E+00 -0.16842111779E+04  0.16842111779E+04  0.00000000000E+00 0.  1.
         23    2    1    2    0    0  0.18333169652E+03  0.50032998838E+02 -0.64565085384E+03  0.67994399110E+03  0.96669509430E+02 0.  0.
        254    2    1    2    0    0 -0.18333169652E+03 -0.50032998838E+02 -0.83163448145E+03  0.12111930295E+04  0.85980162362E+03 0.  0.
        -24    2    4    4    0    0 -0.45978309097E+03 -0.79110922106E+02 -0.19470709024E+03  0.51169876552E+03  0.79156471022E+02 0.  0.
         24    2    4    4    0    0  0.27645139446E+03  0.29077923268E+02 -0.63692739121E+03  0.69949426395E+03  0.79654406710E+02 0.  0.
         13    1    3    3    0    0 -0.51378050411E+01  0.12999690199E+02 -0.11025211580E+03  0.11113468416E+03  0.00000000000E+00 0. -1.
        -13    1    3    3    0    0  0.18846950156E+03  0.37033308639E+02 -0.53539873804E+03  0.56880930694E+03  0.00000000000E+00 0.  1.
          2    1    6    6  502    0  0.18302151467E+02  0.15333448749E+01 -0.11615103821E+03  0.11759414770E+03  0.00000000000E+00 0. -1.
          3    1    5    5  503    0 -0.46934058879E+02 -0.10501552834E+02 -0.48711422344E+02  0.68453569385E+02  0.00000000000E+00 0. -1.
         -4    1    5    5    0  503 -0.41284903210E+03 -0.68609369272E+02 -0.14599566789E+03  0.44324519614E+03  0.00000000000E+00 0.  1.
         -1    1    6    6    0  502  0.25814924299E+03  0.27544578393E+02 -0.52077635300E+03  0.58190011626E+03  0.00000000000E+00 0.  1.
<mgrwt>
<rscale>  0 0.11806893E+04</rscale>
<asrwt>0</asrwt>
<pdfrwt beam="1">  1        1 0.31834743E-01 0.11806893E+04</pdfrwt>
<pdfrwt beam="2">  1       -1 0.25910943E+00 0.11806893E+04</pdfrwt>
<totfact> 0.86050616E+00</totfact>
</mgrwt>
</event>
<event>
12    1  0.1442183E-007  0.2280882E+04  0.7818608E-02  0.8485497E-01
         -2   -1    0    0    0  501 -0.00000000000E+00  0.00000000000E+00  0.12315532371E+04  0.12315532371E+04  0.00000000000E+00 0.  1.
          2   -1    0    0  501    0  0.00000000000E+00 -0.00000000000E+00 -0.10560694637E+04  0.10560694637E+04  0.00000000000E+00 0. -1.
         23    2    1    2    0    0  0.26990658047E+03  0.85279083509E+03  0.43154567140E+03  0.99693679250E+03  0.86888037964E+02 0.  0.
        254    2    1    2    0    0 -0.26990658047E+03 -0.85279083509E+03 -0.25606189803E+03  0.12906859083E+04  0.89453934939E+03 0.  0.
        -24    2    4    4    0    0 -0.14687744097E+03  0.79738447729E+02 -0.29282900652E+03  0.34606504355E+03  0.77980668088E+02 0.  0.
         24    2    4    4    0    0 -0.12302913950E+03 -0.93252928282E+03  0.36767108494E+02  0.94462086473E+03  0.78801810407E+02 0.  0.
         11    1    3    3    0    0  0.21821109563E+03  0.77468600221E+03  0.38006917620E+03  0.89006014570E+03  0.00000000000E+00 0.  1.
        -11    1    3    3    0    0  0.51695484840E+02  0.78104832885E+02  0.51476495197E+02  0.10687664680E+03  0.00000000000E+00 0. -1.
          4    1    6    6  502    0 -0.21769398709E+02 -0.46519566528E+03  0.21384067809E+02  0.46619544407E+03  0.00000000000E+00 0. -1.
          3    1    5    5  503    0  0.68663290620E+01 -0.50003679343E+01 -0.93596167217E+01  0.12639326701E+02  0.00000000000E+00 0. -1.
         -4    1    5    5    0  503 -0.15374377003E+03  0.84738815663E+02 -0.28346938980E+03  0.33342571685E+03  0.00000000000E+00 0.  1.
         -3    1    6    6    0  502 -0.10125974079E+03 -0.46733361754E+03  0.15383040685E+02  0.47842542065E+03  0.00000000000E+00 0.  1.
<mgrwt>
<rscale>  0 0.22808821E+04</rscale>
<asrwt>0</asrwt>
<pdfrwt beam="1">  1        2 0.16247223E+00 0.22808821E+04</pdfrwt>
<pdfrwt beam="2">  1       -2 0.18946973E+00 0.22808821E+04</pdfrwt>
<totfact> 0.32921713E+00</totfact>
</mgrwt>
</event>
<event>
12    1  0.1442183E-007  0.2080670E+04  0.7818608E-02  0.8569807E-01
         -2   -1    0    0    0  501 -0.00000000000E+00  0.00000000000E+00  0.12263720287E+04  0.12263720287E+04  0.00000000000E+00 0. -1.
          2   -1    0    0  501    0  0.00000000000E+00 -0.00000000000E+00 -0.88251913133E+03  0.88251913133E+03  0.00000000000E+00 0.  1.
         23    2    1    2    0    0 -0.94311771261E+02 -0.45436793917E+03  0.85204087167E+03  0.97483816030E+03  0.94820132059E+02 0.  0.
        254    2    1    2    0    0  0.94311771261E+02  0.45436793917E+03 -0.50818797427E+03  0.11340529997E+04  0.90137464724E+03 0.  0.
        -24    2    4    4    0    0  0.28779357488E+02 -0.53193951779E+02 -0.59971000878E+03  0.60818087230E+03  0.81080397607E+02 0.  0.
         24    2    4    4    0    0  0.65532413773E+02  0.50756189095E+03  0.91522034504E+02  0.52587212745E+03  0.79067320885E+02 0.  0.
         13    1    3    3    0    0 -0.96538040042E+02 -0.44092535740E+03  0.77716455432E+03  0.89873216726E+03  0.00000000000E+00 0. -1.
        -13    1    3    3    0    0  0.22262687809E+01 -0.13442581765E+02  0.74876317348E+02  0.76105993041E+02  0.00000000000E+00 0.  1.
          4    1    6    6  502    0  0.12044770366E+02  0.36977124962E+03  0.61446319670E+02  0.37503533666E+03  0.00000000000E+00 0. -1.
          1    1    5    5  503    0 -0.27552147427E+02 -0.10969901467E+02 -0.22127277586E+03  0.22325120582E+03  0.00000000000E+00 0. -1.
         -2    1    5    5    0  503  0.56331504915E+02 -0.42224050312E+02 -0.37843723292E+03  0.38492966647E+03  0.00000000000E+00 0.  1.
         -1    1    6    6    0  502  0.53487643406E+02  0.13779064132E+03  0.30075714833E+02  0.15083679079E+03  0.00000000000E+00 0.  1.
<mgrwt>
<rscale>  0 0.20806699E+04</rscale>
<asrwt>0</asrwt>
<pdfrwt beam="1">  1        2 0.13577217E+00 0.20806699E+04</pdfrwt>
<pdfrwt beam="2">  1       -2 0.18867262E+00 0.20806699E+04</pdfrwt>
<totfact> 0.43994030E+00</totfact>
</mgrwt>
</event>
<event>
12    1  0.1442183E-007  0.2020344E+04  0.7818608E-02  0.8597168E-01
          1   -1    0    0  501    0  0.00000000000E+00  0.00000000000E+00  0.80358976855E+03  0.80358976855E+03  0.00000000000E+00 0. -1.
         -1   -1    0    0    0  501 -0.00000000000E+00 -0.00000000000E+00 -0.12698608166E+04  0.12698608166E+04  0.00000000000E+00 0.  1.
         23    2    1    2    0    0 -0.33534796146E+03  0.64623918857E+02  0.56626869412E+03  0.66796223127E+03  0.94227396870E+02 0.  0.
        254    2    1    2    0    0  0.33534796146E+03 -0.64623918857E+02 -0.10325397421E+04  0.14054883539E+04  0.89029471952E+03 0.  0.
        -24    2    4    4    0    0 -0.28366405205E+03 -0.12795967460E+03 -0.28277016143E+03  0.42789634614E+03  0.79355819563E+02 0.  0.
         24    2    4    4    0    0  0.61901201351E+03  0.63335755741E+02 -0.74976958070E+03  0.97759200771E+03  0.79651858548E+02 0.  0.
         11    1    3    3    0    0 -0.12488910059E+03 -0.18732677335E+02  0.23418966238E+03  0.26606953718E+03  0.00000000000E+00 0.  1.
        -11    1    3    3    0    0 -0.21045886087E+03  0.83356596192E+02  0.33207903173E+03  0.40189269409E+03  0.00000000000E+00 0. -1.
          2    1    6    6  502    0  0.52644926961E+02  0.11345011201E+02 -0.35315544161E+02  0.64400196221E+02  0.00000000000E+00 0. -1.
          3    1    5    5  503    0  0.49916341119E+01  0.35356230922E+00 -0.24911588925E+01  0.55899275524E+01  0.00000000000E+00 0. -1.
         -4    1    5    5    0  503 -0.28865568616E+03 -0.12831323691E+03 -0.28027900254E+03  0.42230641859E+03  0.00000000000E+00 0.  1.
         -1    1    6    6    0  502  0.56636708655E+03  0.51990744540E+02 -0.71445403654E+03  0.91319181149E+03  0.00000000000E+00 0.  1.
<mgrwt>
<rscale>  0 0.20203437E+04</rscale>
<asrwt>0</asrwt>
<pdfrwt beam="1">  1        1 0.12362920E+00 0.20203437E+04</pdfrwt>
<pdfrwt beam="2">  1       -1 0.19536320E+00 0.20203437E+04</pdfrwt>
<totfact> 0.32940694E+00</totfact>
</mgrwt>
</event>
<event>
12    1  0.1442183E-007  0.1633896E+04  0.7818608E-02  0.8799991E-01
         -2   -1    0    0    0  501 -0.00000000000E+00  0.00000000000E+00  0.85745941974E+03  0.85745941974E+03  0.00000000000E+00 0.  1.
          2   -1    0    0  501    0  0.00000000000E+00 -0.00000000000E+00 -0.77835031067E+03  0.77835031067E+03  0.00000000000E+00 0. -1.
         23    2    1    2    0    0  0.16934148862E+03  0.52529413542E+03 -0.36960817019E+02  0.56098052772E+03  0.93394764347E+02 0.  0.
        254    2    1    2    0    0 -0.16934148862E+03 -0.52529413542E+03  0.11606992609E+03  0.10748292027E+04  0.91497274208E+03 0.  0.
        -24    2    4    4    0    0 -0.20436127930E+03 -0.71472278566E+03  0.29210765582E+03  0.80332129888E+03  0.86058316405E+02 0.  0.
         24    2    4    4    0    0  0.35019790684E+02  0.18942865024E+03 -0.17603772973E+03  0.27150790382E+03  0.74951052515E+02 0.  0.
         11    1    3    3    0    0  0.10980422892E+03  0.27907877372E+03 -0.62625944457E+02  0.30637222385E+03  0.00000000000E+00 0. -1.
        -11    1    3    3    0    0  0.59537259704E+02  0.24621536170E+03  0.25665127438E+02  0.25460830387E+03  0.00000000000E+00 0.  1.
          4    1    6    6  502    0 -0.42721009296E+00  0.83379520029E+01  0.75165598330E+01  0.11233994116E+02  0.00000000000E+00 0. -1.
          3    1    5    5  503    0 -0.60811648317E+01 -0.13303694397E+03  0.39834570842E+02  0.13900576269E+03  0.00000000000E+00 0. -1.
         -4    1    5    5    0  503 -0.19828011447E+03 -0.58168584169E+03  0.25227308498E+03  0.66431553619E+03  0.00000000000E+00 0.  1.
         -3    1    6    6    0  502  0.35447000777E+02  0.18109069824E+03 -0.18355428957E+03  0.26027390970E+03  0.00000000000E+00 0.  1.
<mgrwt>
<rscale>  0 0.16338957E+04</rscale>
<asrwt>0</asrwt>
<pdfrwt beam="1">  1        2 0.11974620E+00 0.16338957E+04</pdfrwt>
<pdfrwt beam="2">  1       -2 0.13191683E+00 0.16338957E+04</pdfrwt>
<totfact> 0.14293789E+01</totfact>
</mgrwt>
</event>
<event>
12    1  0.1442183E-007  0.1803793E+04  0.7818608E-02  0.8704285E-01
          1   -1    0    0  501    0  0.00000000000E+00  0.00000000000E+00  0.20221364604E+04  0.20221364604E+04  0.00000000000E+00 0. -1.
         -1   -1    0    0    0  501 -0.00000000000E+00 -0.00000000000E+00 -0.40225630388E+03  0.40225630388E+03  0.00000000000E+00 0.  1.
         23    2    1    2    0    0  0.50973479570E+03  0.42486677833E+03  0.48855411124E+03  0.82884442414E+03  0.89199879723E+02 0.  0.
        254    2    1    2    0    0 -0.50973479570E+03 -0.42486677833E+03  0.11313260453E+04  0.15955483401E+04  0.90858931521E+03 0.  0.
        -24    2    4    4    0    0  0.12561570829E+03  0.14365884214E+03  0.43814677855E+02  0.21141402508E+03  0.79743306356E+02 0.  0.
         24    2    4    4    0    0 -0.63535050400E+03 -0.56852562046E+03  0.10875113674E+04  0.13841343150E+04  0.79089719981E+02 0.  0.
         13    1    3    3    0    0  0.30210649801E+03  0.26962635653E+03  0.34815249966E+03  0.53401954206E+03  0.00000000000E+00 0. -1.
        -13    1    3    3    0    0  0.20762829769E+03  0.15524042179E+03  0.14040161157E+03  0.29482488208E+03  0.00000000000E+00 0.  1.
          2    1    6    6  502    0 -0.54600860434E+03 -0.46713450826E+03  0.87422215541E+03  0.11316379376E+04  0.00000000000E+00 0. -1.
          1    1    5    5  503    0  0.13132091774E+03  0.12613984622E+03  0.22871457584E+02  0.18351988397E+03  0.00000000000E+00 0. -1.
         -2    1    5    5    0  503 -0.57052094433E+01  0.17518995918E+02  0.20943220272E+02  0.27894141107E+02  0.00000000000E+00 0.  1.
         -1    1    6    6    0  502 -0.89341899661E+02 -0.10139111221E+03  0.21328921199E+03  0.25249637744E+03  0.00000000000E+00 0.  1.
<mgrwt>
<rscale>  0 0.18037928E+04</rscale>
<asrwt>0</asrwt>
<pdfrwt beam="1">  1        1 0.31109791E+00 0.18037928E+04</pdfrwt>
<pdfrwt beam="2">  1       -1 0.61885586E-01 0.18037928E+04</pdfrwt>
<totfact> 0.71923836E+00</totfact>
</mgrwt>
</event>
<event>
12    1  0.1442183E-007  0.1320605E+04  0.7818608E-02  0.9013383E-01
         -1   -1    0    0    0  501 -0.00000000000E+00  0.00000000000E+00  0.94085522642E+03  0.94085522642E+03  0.00000000000E+00 0.  1.
          1   -1    0    0  501    0  0.00000000000E+00 -0.00000000000E+00 -0.46340743528E+03  0.46340743528E+03  0.00000000000E+00 0. -1.
         23    2    1    2    0    0  0.27293597501E+03  0.21557705286E+03  0.14083811691E+03  0.38641937020E+03  0.92287823225E+02 0.  0.
        254    2    1    2    0    0 -0.27293597501E+03 -0.21557705286E+03  0.33660967422E+03  0.10178432915E+04  0.89539453935E+03 0.  0.
        -24    2    4    4    0    0 -0.32648101017E+03 -0.50162951289E+03  0.57341854811E+02  0.60651800234E+03  0.79711860169E+02 0.  0.
         24    2    4    4    0    0  0.53545035157E+02  0.28605246003E+03  0.27926781941E+03  0.41132528916E+03  0.80652947005E+02 0.  0.
         11    1    3    3    0    0  0.51007296803E+02  0.82767110514E+02  0.64809260065E+02  0.11684339562E+03  0.00000000000E+00 0.  1.
        -11    1    3    3    0    0  0.22192867821E+03  0.13280994234E+03  0.76028856850E+02  0.26957597458E+03  0.00000000000E+00 0. -1.
          2    1    6    6  502    0  0.34357074143E+02  0.27875046635E+03  0.25319920993E+03  0.37814292396E+03  0.00000000000E+00 0. -1.
          3    1    5    5  503    0 -0.25258536735E+03 -0.36038647692E+03  0.73917687157E+02  0.44625284875E+03  0.00000000000E+00 0. -1.
         -4    1    5    5    0  503 -0.73895642824E+02 -0.14124303597E+03 -0.16575832347E+02  0.16026515359E+03  0.00000000000E+00 0.  1.
         -1    1    6    6    0  502  0.19187961014E+02  0.73019936844E+01  0.26068609484E+02  0.33182365197E+02  0.00000000000E+00 0.  1.
<mgrwt>
<rscale>  0 0.13206049E+04</rscale>
<asrwt>0</asrwt>
<pdfrwt beam="1">  1        1 0.71293452E-01 0.13206049E+04</pdfrwt>
<pdfrwt beam="2">  1       -1 0.14474696E+00 0.13206049E+04</pdfrwt>
<totfact> 0.18529211E+01</totfact>
</mgrwt>
</event>
<event>
12    1  0.1442183E-007  0.1189300E+04  0.7818608E-02  0.9122274E-01
          2   -1    0    0  501    0  0.00000000000E+00  0.00000000000E+00  0.17351232110E+04  0.17351232110E+04  0.00000000000E+00 0. -1.
         -2   -1    0    0    0  501 -0.00000000000E+00 -0.00000000000E+00 -0.20379446884E+03  0.20379446884E+03  0.00000000000E+00 0.  1.
         23    2    1    2    0    0 -0.25623839666E+02 -0.23823093770E+03  0.28916490372E+03  0.38725072571E+03  0.94531593580E+02 0.  0.
        254    2    1    2    0    0  0.25623839666E+02  0.23823093770E+03  0.12421638385E+04  0.15516669541E+04  0.89849250089E+03 0.  0.
        -24    2    4    4    0    0  0.29837822752E+03  0.66521193907E+02  0.11694863420E+04  0.12114796671E+04  0.80808687046E+02 0.  0.
         24    2    4    4    0    0 -0.27275438785E+03  0.17170974379E+03  0.72677496502E+02  0.34018728703E+03  0.81031966258E+02 0.  0.
         11    1    3    3    0    0 -0.24221913531E+02 -0.93957545800E+02  0.53161657285E+02  0.11063852545E+03  0.00000000000E+00 0.  1.
        -11    1    3    3    0    0 -0.14019261346E+01 -0.14427339190E+03  0.23600324644E+03  0.27661220026E+03  0.00000000000E+00 0. -1.
          2    1    6    6  502    0  0.14108955634E+01  0.57122970296E+01  0.12871702785E+02  0.14152798177E+02  0.00000000000E+00 0. -1.
          1    1    5    5  503    0  0.28855544997E+02  0.31803658622E+02  0.12281964113E+03  0.13011064301E+03  0.00000000000E+00 0. -1.
         -2    1    5    5    0  503  0.26952268252E+03  0.34717535284E+02  0.10466667008E+04  0.10813690241E+04  0.00000000000E+00 0.  1.
         -1    1    6    6    0  502 -0.27416528341E+03  0.16599744676E+03  0.59805793717E+02  0.32603448886E+03  0.00000000000E+00 0.  1.
<mgrwt>
<rscale>  0 0.11892998E+04</rscale>
<asrwt>0</asrwt>
<pdfrwt beam="1">  1        2 0.26694202E+00 0.11892998E+04</pdfrwt>
<pdfrwt beam="2">  1       -2 0.31352996E-01 0.11892998E+04</pdfrwt>
<totfact> 0.87394349E+01</totfact>
</mgrwt>
</event>
<event>
12    1  0.1442183E-007  0.1038161E+04  0.7818608E-02  0.9267653E-01
         -1   -1    0    0    0  501 -0.00000000000E+00  0.00000000000E+00  0.38943583268E+03  0.38943583268E+03  0.00000000000E+00 0.  1.
          1   -1    0    0  501    0  0.00000000000E+00 -0.00000000000E+00 -0.69188426806E+03  0.69188426806E+03  0.00000000000E+00 0. -1.
         23    2    1    2    0    0  0.24073098793E+01 -0.21739629413E+02 -0.13867128320E+03  0.16970433422E+03  0.95348988668E+02 0.  0.
        254    2    1    2    0    0 -0.24073098793E+01  0.21739629413E+02 -0.16377715218E+03  0.91161576652E+03  0.89651656067E+03 0.  0.
        -24    2    4    4    0    0  0.36423603534E+03  0.17002774589E+03  0.10998757119E+03  0.42395719704E+03  0.77878850077E+02 0.  0.
         24    2    4    4    0    0 -0.36664334522E+03 -0.14828811647E+03 -0.27376472336E+03  0.48765856948E+03  0.80293514965E+02 0.  0.
         13    1    3    3    0    0 -0.46123667290E+02 -0.14877467926E+02 -0.61795468046E+02  0.78532869597E+02  0.00000000000E+00 0. -1.
        -13    1    3    3    0    0  0.48530977170E+02 -0.68621614868E+01 -0.76875815158E+02  0.91171464623E+02  0.00000000000E+00 0.  1.
          4    1    6    6  502    0 -0.55295102676E+02 -0.55608685070E+02 -0.60717351133E+02  0.99178984487E+02  0.00000000000E+00 0. -1.
          1    1    5    5  503    0  0.13680778702E+03  0.34823262876E+02  0.11496345666E+02  0.14163755219E+03  0.00000000000E+00 0. -1.
         -2    1    5    5    0  503  0.22742824832E+03  0.13520448301E+03  0.98491225520E+02  0.28231964485E+03  0.00000000000E+00 0.  1.
         -3    1    6    6    0  502 -0.31134824255E+03 -0.92679431403E+02 -0.21304737223E+03  0.38847958499E+03  0.00000000000E+00 0.  1.
<mgrwt>
<rscale>  0 0.10381609E+04</rscale>
<asrwt>0</asrwt>
<pdfrwt beam="1">  1        1 0.10644373E+00 0.10381609E+04</pdfrwt>
<pdfrwt beam="2">  1       -1 0.59913205E-01 0.10381609E+04</pdfrwt>
<totfact> 0.78368864E+01</totfact>
</mgrwt>
</event>
<event>
12    1  0.1442183E-007  0.2004199E+04  0.7818608E-02  0.8604660E-01
          2   -1    0    0  501    0  0.00000000000E+00  0.00000000000E+00  0.14298247048E+04  0.14298247048E+04  0.00000000000E+00 0. -1.
         -2   -1    0    0    0  501 -0.00000000000E+00 -0.00000000000E+00 -0.70232616766E+03  0.70232616766E+03  0.00000000000E+00 0.  1.
         23    2    1    2    0    0  0.10963646092E+03  0.12712147553E+03 -0.53870142583E+03  0.57191985436E+03  0.93343829536E+02 0.  0.
        254    2    1    2    0    0 -0.10963646092E+03 -0.12712147553E+03  0.12661999629E+04  0.15602310181E+04  0.89603485451E+03 0.  0.
        -24    2    4    4    0    0  0.26267131922E+03 -0.23870500608E+03  0.10439344682E+04  0.11054767099E+04  0.79393201652E+02 0.  0.
         24    2    4    4    0    0 -0.37230778014E+03  0.11158353055E+03  0.22226549478E+03  0.45475430816E+03  0.79596251013E+02 0.  0.
         11    1    3    3    0    0 -0.39209922431E+01  0.58197688688E+02 -0.19096905834E+03  0.19967855767E+03  0.00000000000E+00 0. -1.
        -11    1    3    3    0    0  0.11355745316E+03  0.68923786842E+02 -0.34773236749E+03  0.37224129669E+03  0.00000000000E+00 0.  1.
          2    1    6    6  502    0 -0.18322285051E+03  0.18484198824E+02  0.12542641512E+03  0.22280947952E+03  0.00000000000E+00 0. -1.
          3    1    5    5  503    0  0.55179621919E+02 -0.69116226611E+02  0.17375437382E+03  0.19496775599E+03  0.00000000000E+00 0. -1.
         -4    1    5    5    0  503  0.20749169731E+03 -0.16958877947E+03  0.87018009434E+03  0.91050895392E+03  0.00000000000E+00 0.  1.
         -3    1    6    6    0  502 -0.18908492963E+03  0.93099331728E+02  0.96839079657E+02  0.23194482864E+03  0.00000000000E+00 0.  1.
<mgrwt>
<rscale>  0 0.20041989E+04</rscale>
<asrwt>0</asrwt>
<pdfrwt beam="1">  1        2 0.21997303E+00 0.20041989E+04</pdfrwt>
<pdfrwt beam="2">  1       -2 0.10805018E+00 0.20041989E+04</pdfrwt>
<totfact> 0.88669175E+00</totfact>
</mgrwt>
</event>
<event>
12    1  0.1442183E-007  0.2225444E+04  0.7818608E-02  0.8507912E-01
          2   -1    0    0  501    0  0.00000000000E+00  0.00000000000E+00  0.18502626785E+04  0.18502626785E+04  0.00000000000E+00 0. -1.
         -2   -1    0    0    0  501 -0.00000000000E+00 -0.00000000000E+00 -0.66917559013E+03  0.66917559013E+03  0.00000000000E+00 0.  1.
         23    2    1    2    0    0  0.78034663383E+03  0.30057422287E+03  0.35576586331E+02  0.84208605188E+03  0.92506718146E+02 0.  0.
        254    2    1    2    0    0 -0.78034663383E+03 -0.30057422287E+03  0.11455105021E+04  0.16773522168E+04  0.89556150901E+03 0.  0.
        -24    2    4    4    0    0 -0.86581374466E+03 -0.20658253980E+03  0.51968661592E+03  0.10337726621E+04  0.79384834895E+02 0.  0.
         24    2    4    4    0    0  0.85467110830E+02 -0.93991683070E+02  0.62582388614E+03  0.64357955465E+03  0.80000269861E+02 0.  0.
         11    1    3    3    0    0  0.47034057377E+03  0.17023254150E+03  0.65477731567E+02  0.50446675495E+03  0.00000000000E+00 0. -1.
        -11    1    3    3    0    0  0.31000606006E+03  0.13034168137E+03 -0.29901145236E+02  0.33761929693E+03  0.00000000000E+00 0.  1.
          2    1    6    6  502    0  0.63135613133E+02 -0.90363962842E+02  0.59619535486E+03  0.60630079381E+03  0.00000000000E+00 0. -1.
          1    1    5    5  503    0 -0.64074779282E+03 -0.17512817481E+03  0.41784249542E+03  0.78474197199E+03  0.00000000000E+00 0. -1.
         -4    1    5    5    0  503 -0.22506595183E+03 -0.31454364985E+02  0.10184412050E+03  0.24903069014E+03  0.00000000000E+00 0.  1.
         -1    1    6    6    0  502  0.22331497697E+02 -0.36277202288E+01  0.29628531289E+02  0.37278760840E+02  0.00000000000E+00 0.  1.
<mgrwt>
<rscale>  0 0.22254443E+04</rscale>
<asrwt>0</asrwt>
<pdfrwt beam="1">  1        2 0.28465579E+00 0.22254443E+04</pdfrwt>
<pdfrwt beam="2">  1       -2 0.10295009E+00 0.22254443E+04</pdfrwt>
<totfact> 0.56881953E+00</totfact>
</mgrwt>
</event>
<event>
12    1  0.1442183E-007  0.2718466E+04  0.7818608E-02  0.8329038E-01
          2   -1    0    0  501    0  0.00000000000E+00  0.00000000000E+00  0.13019976394E+04  0.13019976394E+04  0.00000000000E+00 0. -1.
         -2   -1    0    0    0  501 -0.00000000000E+00 -0.00000000000E+00 -0.14189843185E+04  0.14189843185E+04  0.00000000000E+00 0.  1.
         23    2    1    2    0    0  0.61796234281E+03  0.26210281196E+01 -0.10953020537E+04  0.12609929746E+04  0.92370807535E+02 0.  0.
        254    2    1    2    0    0 -0.61796234281E+03 -0.26210281196E+01  0.97831537459E+03  0.14599889833E+04  0.89027104425E+03 0.  0.
        -24    2    4    4    0    0 -0.65020938425E+03 -0.13022792556E+03  0.24585874426E+03  0.71145902574E+03  0.77432985329E+02 0.  0.
         24    2    4    4    0    0  0.32247041443E+02  0.12760689744E+03  0.73245663033E+03  0.74852995754E+03  0.80504596553E+02 0.  0.
         13    1    3    3    0    0  0.35395776004E+03  0.19886598170E+00 -0.53341778838E+03  0.64017237710E+03  0.00000000000E+00 0. -1.
        -13    1    3    3    0    0  0.26400458276E+03  0.24221621379E+01 -0.56188426534E+03  0.62082059746E+03  0.00000000000E+00 0.  1.
          2    1    6    6  502    0 -0.12105392808E+02 -0.94902124510E+00  0.21572091402E+02  0.24754722859E+02  0.00000000000E+00 0. -1.
          3    1    5    5  503    0 -0.14085778423E+03 -0.12061825079E+02  0.23717341233E+02  0.14334892842E+03  0.00000000000E+00 0. -1.
         -4    1    5    5    0  503 -0.50935160002E+03 -0.11816610048E+03  0.22214140302E+03  0.56811009732E+03  0.00000000000E+00 0.  1.
         -1    1    6    6    0  502  0.44352434250E+02  0.12855591869E+03  0.71088453893E+03  0.72377523469E+03  0.00000000000E+00 0.  1.
<mgrwt>
<rscale>  0 0.27184659E+04</rscale>
<asrwt>0</asrwt>
<pdfrwt beam="1">  1        2 0.20030733E+00 0.27184659E+04</pdfrwt>
<pdfrwt beam="2">  1       -2 0.21830528E+00 0.27184659E+04</pdfrwt>
<totfact> 0.14632456E+00</totfact>
</mgrwt>
</event>
<event>
12    1  0.1442183E-007  0.2079706E+04  0.7818608E-02  0.8570236E-01
         -2   -1    0    0    0  501 -0.00000000000E+00  0.00000000000E+00  0.47167091901E+03  0.47167091901E+03  0.00000000000E+00 0. -1.
          2   -1    0    0  501    0  0.00000000000E+00 -0.00000000000E+00 -0.22924767212E+04  0.22924767212E+04  0.00000000000E+00 0.  1.
         23    2    1    2    0    0 -0.78870436113E+03  0.27368516161E+03 -0.60070611300E+03  0.10329065193E+04  0.95341000691E+02 0.  0.
        254    2    1    2    0    0  0.78870436113E+03 -0.27368516161E+03 -0.12200996892E+04  0.17312411209E+04  0.90088535912E+03 0.  0.
        -24    2    4    4    0    0  0.45087718425E+03  0.30028736472E+03 -0.44074689597E+03  0.70296004871E+03  0.80201415674E+02 0.  0.
         24    2    4    4    0    0  0.33782717688E+03 -0.57397252634E+03 -0.77935279318E+03  0.10282810722E+04  0.79997029726E+02 0.  0.
         13    1    3    3    0    0 -0.14076838774E+03  0.41899039141E+02 -0.64000536723E+02  0.16021029046E+03  0.00000000000E+00 0.  1.
        -13    1    3    3    0    0 -0.64793597339E+03  0.23178612247E+03 -0.53670557628E+03  0.87269622882E+03  0.00000000000E+00 0. -1.
          4    1    6    6  502    0  0.32648966051E+03 -0.51761219186E+03 -0.72936547395E+03  0.95209866830E+03  0.00000000000E+00 0. -1.
          1    1    5    5  503    0  0.28303703930E+03  0.14115322181E+03 -0.24955482701E+03  0.40287939800E+03  0.00000000000E+00 0. -1.
         -2    1    5    5    0  503  0.16784014495E+03  0.15913414292E+03 -0.19119206896E+03  0.30008065071E+03  0.00000000000E+00 0.  1.
         -3    1    6    6    0  502  0.11337516373E+02 -0.56360334474E+02 -0.49987319227E+02  0.76182403893E+02  0.00000000000E+00 0.  1.
<mgrwt>
<rscale>  0 0.20797063E+04</rscale>
<asrwt>0</asrwt>
<pdfrwt beam="1">  1        2 0.35268872E+00 0.20797063E+04</pdfrwt>
<pdfrwt beam="2">  1       -2 0.72564758E-01 0.20797063E+04</pdfrwt>
<totfact> 0.72597623E+00</totfact>
</mgrwt>
</event>
<event>
12    1  0.1442183E-007  0.1569063E+04  0.7818608E-02  0.8839782E-01
         -1   -1    0    0    0  501 -0.00000000000E+00  0.00000000000E+00  0.98326947823E+03  0.98326947823E+03  0.00000000000E+00 0.  1.
          1   -1    0    0  501    0  0.00000000000E+00 -0.00000000000E+00 -0.62596247725E+03  0.62596247725E+03  0.00000000000E+00 0. -1.
         23    2    1    2    0    0  0.44098630337E+03 -0.10319830228E+03  0.36454198944E+03  0.58844707880E+03  0.90886154766E+02 0.  0.
        254    2    1    2    0    0 -0.44098630337E+03  0.10319830228E+03 -0.72349884519E+01  0.10207848767E+04  0.91478446098E+03 0.  0.
        -24    2    4    4    0    0 -0.62900134491E+03 -0.18853206399E+03 -0.40400051462E+02  0.66249111632E+03  0.77944108198E+02 0.  0.
         24    2    4    4    0    0  0.18801504154E+03  0.29173036627E+03  0.33165063010E+02  0.35829376036E+03  0.82572603573E+02 0.  0.
         13    1    3    3    0    0  0.19273579738E+03 -0.12761321455E+02  0.11375616731E+03  0.22416601999E+03  0.00000000000E+00 0. -1.
        -13    1    3    3    0    0  0.24825050599E+03 -0.90436980825E+02  0.25078582213E+03  0.36428105881E+03  0.00000000000E+00 0.  1.
          4    1    6    6  502    0  0.63075814360E+02  0.16732731226E+03  0.33763797624E+02  0.18198071825E+03  0.00000000000E+00 0. -1.
          1    1    5    5  503    0 -0.38570101026E+03 -0.12239869347E+03 -0.62256020880E+02  0.40941729521E+03  0.00000000000E+00 0. -1.
         -2    1    5    5    0  503 -0.24330033464E+03 -0.66133370521E+02  0.21855969417E+02  0.25307382111E+03  0.00000000000E+00 0.  1.
         -3    1    6    6    0  502  0.12493922718E+03  0.12440305401E+03 -0.59873461398E+00  0.17631304210E+03  0.00000000000E+00 0.  1.
<mgrwt>
<rscale>  0 0.15690632E+04</rscale>
<asrwt>0</asrwt>
<pdfrwt beam="1">  1        1 0.96301920E-01 0.15690632E+04</pdfrwt>
<pdfrwt beam="2">  1       -1 0.15127223E+00 0.15690632E+04</pdfrwt>
<totfact> 0.10563072E+01</totfact>
</mgrwt>
</event>
<event>
12    1  0.1442183E-007  0.1780104E+04  0.7818608E-02  0.8716952E-01
         -2   -1    0    0    0  501 -0.00000000000E+00  0.00000000000E+00  0.13444733146E+04  0.13444733146E+04  0.00000000000E+00 0.  1.
          2   -1    0    0  501    0  0.00000000000E+00 -0.00000000000E+00 -0.58922152401E+03  0.58922152401E+03  0.00000000000E+00 0. -1.
         23    2    1    2    0    0  0.57280875836E+03  0.77526518426E+02  0.59766978988E+03  0.83673538245E+03  0.93790659352E+02 0.  0.
        254    2    1    2    0    0 -0.57280875836E+03 -0.77526518426E+02  0.15758200066E+03  0.10969594561E+04  0.91889483986E+03 0.  0.
        -24    2    4    4    0    0  0.16039493245E+03 -0.71765154235E+02  0.28810208823E+03  0.34797226698E+03  0.84882940736E+02 0.  0.
         24    2    4    4    0    0 -0.73320369081E+03 -0.57613641905E+01 -0.13052008758E+03  0.74898718914E+03  0.79532827813E+02 0.  0.
         13    1    3    3    0    0  0.14056381758E+02  0.86381296470E+01  0.44524143527E+02  0.47482612699E+02  0.00000000000E+00 0. -1.
        -13    1    3    3    0    0  0.55875237660E+03  0.68888388779E+02  0.55314564636E+03  0.78925276975E+03  0.00000000000E+00 0.  1.
          4    1    6    6  502    0 -0.27446895742E+03 -0.31433539458E+02 -0.74500405577E+02  0.28613211358E+03  0.00000000000E+00 0. -1.
          3    1    5    5  503    0  0.66081861170E+02  0.13761019650E+02  0.10958359184E+03  0.12870408555E+03  0.00000000000E+00 0. -1.
         -4    1    5    5    0  503  0.94313071277E+02 -0.85526173885E+02  0.17851849639E+03  0.21926818143E+03  0.00000000000E+00 0.  1.
         -3    1    6    6    0  502 -0.45873473338E+03  0.25672175267E+02 -0.56019682002E+02  0.46285507556E+03  0.00000000000E+00 0.  1.
<mgrwt>
<rscale>  0 0.17801041E+04</rscale>
<asrwt>0</asrwt>
<pdfrwt beam="1">  1        2 0.90649466E-01 0.17801041E+04</pdfrwt>
<pdfrwt beam="2">  1       -2 0.20684205E+00 0.17801041E+04</pdfrwt>
<totfact> 0.57482167E+00</totfact>
</mgrwt>
</event>
<event>
12    1  0.1442183E-007  0.1785528E+04  0.7818608E-02  0.8714033E-01
          2   -1    0    0  501    0  0.00000000000E+00  0.00000000000E+00  0.31378826090E+04  0.31378826090E+04  0.00000000000E+00 0. -1.
         -2   -1    0    0    0  501 -0.00000000000E+00 -0.00000000000E+00 -0.25400184058E+03  0.25400184058E+03  0.00000000000E+00 0.  1.
         23    2    1    2    0    0 -0.16391655137E+03  0.40152303545E+03  0.20419113165E+04  0.20895333676E+04  0.93050987764E+02 0.  0.
        254    2    1    2    0    0  0.16391655137E+03 -0.40152303545E+03  0.84196945193E+03  0.13023510819E+04  0.89393310644E+03 0.  0.
        -24    2    4    4    0    0  0.41763882492E+03 -0.38150776709E+03  0.86433423274E+03  0.10353542873E+04  0.70103281025E+02 0.  0.
         24    2    4    4    0    0 -0.25372227354E+03 -0.20015268358E+02 -0.22364780805E+02  0.26699679458E+03  0.77533875408E+02 0.  0.
         13    1    3    3    0    0 -0.10504682327E+03  0.19721428408E+03  0.12366468371E+04  0.12566716789E+04  0.00000000000E+00 0.  1.
        -13    1    3    3    0    0 -0.58869728102E+02  0.20430875138E+03  0.80526447942E+03  0.83286168875E+03  0.00000000000E+00 0. -1.
          2    1    6    6  502    0 -0.13129064051E+02  0.10365100417E+02 -0.17833414102E+02  0.24450731851E+02  0.00000000000E+00 0. -1.
          3    1    5    5  503    0 -0.14658447962E+01 -0.10858660859E+01 -0.38148374113E+00  0.18636888066E+01  0.00000000000E+00 0. -1.
         -4    1    5    5    0  503  0.41910466971E+03 -0.38042190101E+03  0.86471571648E+03  0.10334905985E+04  0.00000000000E+00 0.  1.
         -1    1    6    6    0  502 -0.24059320949E+03 -0.30380368776E+02 -0.45313667028E+01  0.24254606273E+03  0.00000000000E+00 0.  1.
<mgrwt>
<rscale>  0 0.17855284E+04</rscale>
<asrwt>0</asrwt>
<pdfrwt beam="1">  1        2 0.48275114E+00 0.17855284E+04</pdfrwt>
<pdfrwt beam="2">  1       -2 0.39077209E-01 0.17855284E+04</pdfrwt>
<totfact> 0.83675114E+00</totfact>
</mgrwt>
</event>
<event>
12    1  0.1442183E-007  0.2193934E+04  0.7818608E-02  0.8520957E-01
         -1   -1    0    0    0  501 -0.00000000000E+00  0.00000000000E+00  0.85622356499E+03  0.85622356499E+03  0.00000000000E+00 0.  1.
          1   -1    0    0  501    0  0.00000000000E+00 -0.00000000000E+00 -0.14053997973E+04  0.14053997973E+04  0.00000000000E+00 0. -1.
         23    2    1    2    0    0  0.84018643119E+02  0.26266943883E+03  0.66331922415E+03  0.72389216841E+03  0.89292283392E+02 0.  0.
        254    2    1    2    0    0 -0.84018643119E+02 -0.26266943883E+03 -0.12124954565E+04  0.15377311939E+04  0.90466437213E+03 0.  0.
        -24    2    4    4    0    0 -0.26554758868E+03  0.70795875411E+02 -0.23266384980E+02  0.28681932556E+03  0.78717361597E+02 0.  0.
         24    2    4    4    0    0  0.18152894556E+03 -0.33346531424E+03 -0.11892290715E+04  0.12509118683E+04  0.79767436802E+02 0.  0.
         11    1    3    3    0    0  0.93469832821E+01  0.96251879022E+02  0.14388549691E+03  0.17336327908E+03  0.00000000000E+00 0. -1.
        -11    1    3    3    0    0  0.74671659837E+02  0.16641755981E+03  0.51943372724E+03  0.55052888933E+03  0.00000000000E+00 0.  1.
          4    1    6    6  502    0  0.11818267312E+03 -0.14468897220E+03 -0.63957316742E+03  0.66630014212E+03  0.00000000000E+00 0. -1.
          1    1    5    5  503    0 -0.21089001401E+03  0.28265217760E+02  0.28730778492E+01  0.21279514825E+03  0.00000000000E+00 0. -1.
         -2    1    5    5    0  503 -0.54657574669E+02  0.42530657652E+02 -0.26139462830E+02  0.74024177308E+02  0.00000000000E+00 0.  1.
         -3    1    6    6    0  502  0.63346272440E+02 -0.18877634204E+03 -0.54965590406E+03  0.58461172620E+03  0.00000000000E+00 0.  1.
<mgrwt>
<rscale>  0 0.21939338E+04</rscale>
<asrwt>0</asrwt>
<pdfrwt beam="1">  1        1 0.21621535E+00 0.21939338E+04</pdfrwt>
<pdfrwt beam="2">  1       -1 0.13172670E+00 0.21939338E+04</pdfrwt>
<totfact> 0.34075000E+00</totfact>
</mgrwt>
</event>
<event>
12    1  0.1442183E-007  0.1675260E+04  0.7818608E-02  0.8775601E-01
         -2   -1    0    0    0  501 -0.00000000000E+00  0.00000000000E+00  0.12208888168E+04  0.12208888168E+04  0.00000000000E+00 0. -1.
          2   -1    0    0  501    0  0.00000000000E+00 -0.00000000000E+00 -0.57468331093E+03  0.57468331093E+03  0.00000000000E+00 0.  1.
         23    2    1    2    0    0 -0.27943112111E+02  0.81068565194E+02  0.81567490201E+03  0.82520816991E+03  0.91049701504E+02 0.  0.
        254    2    1    2    0    0  0.27943112111E+02 -0.81068565194E+02 -0.16946939616E+03  0.97036395780E+03  0.95159518945E+03 0.  0.
        -24    2    4    4    0    0 -0.42606621294E+03  0.52991182159E+02 -0.21704656512E+03  0.48806988498E+03  0.82234530464E+02 0.  0.
         24    2    4    4    0    0  0.45400932506E+03 -0.13405974735E+03  0.47577168953E+02  0.48229407282E+03  0.79041144793E+02 0.  0.
         11    1    3    3    0    0  0.60014336721E+01 -0.18275391919E+02  0.95112002298E+02  0.97037622276E+02  0.00000000000E+00 0.  1.
        -11    1    3    3    0    0 -0.33944545783E+02  0.99343957113E+02  0.72056289971E+03  0.72817054764E+03  0.00000000000E+00 0. -1.
          4    1    6    6  502    0  0.21275113360E+03 -0.54434858265E+02  0.60881580750E+02  0.22788761598E+03  0.00000000000E+00 0. -1.
          1    1    5    5  503    0 -0.33948442116E+02  0.13456737494E+02 -0.45249372202E+02  0.58147108189E+02  0.00000000000E+00 0. -1.
         -2    1    5    5    0  503 -0.39211777083E+03  0.39534444665E+02 -0.17179719291E+03  0.42992277679E+03  0.00000000000E+00 0.  1.
         -3    1    6    6    0  502  0.24125819146E+03 -0.79624889088E+02 -0.13304411796E+02  0.25440645684E+03  0.00000000000E+00 0.  1.
<mgrwt>
<rscale>  0 0.16752605E+04</rscale>
<asrwt>0</asrwt>
<pdfrwt beam="1">  1        2 0.88412817E-01 0.16752605E+04</pdfrwt>
<pdfrwt beam="2">  1       -2 0.18782905E+00 0.16752605E+04</pdfrwt>
<totfact> 0.79769189E+00</totfact>
</mgrwt>
</event>
<event>
12    1  0.1442183E-007  0.2107531E+04  0.7818608E-02  0.8557933E-01
          1   -1    0    0  501    0  0.00000000000E+00  0.00000000000E+00  0.10154106167E+04  0.10154106167E+04  0.00000000000E+00 0. -1.
         -1   -1    0    0    0  501 -0.00000000000E+00 -0.00000000000E+00 -0.10935687046E+04  0.10935687046E+04  0.00000000000E+00 0.  1.
         23    2    1    2    0    0 -0.23887580278E+03  0.65568316607E+03  0.51906299006E+03  0.87460984782E+03  0.92379298733E+02 0.  0.
        254    2    1    2    0    0  0.23887580278E+03 -0.65568316607E+03 -0.59722107791E+03  0.12343694735E+04  0.82462895762E+03 0.  0.
        -24    2    4    4    0    0 -0.14969037947E+03 -0.28215193029E+03  0.10463394483E+03  0.34563568189E+03  0.80615387565E+02 0.  0.
         24    2    4    4    0    0  0.38856618225E+03 -0.37353123578E+03 -0.70185502274E+03  0.88873379159E+03  0.82085426758E+02 0.  0.
         11    1    3    3    0    0 -0.99464153577E+02  0.24196982880E+03  0.14155772349E+03  0.29745773646E+03  0.00000000000E+00 0.  1.
        -11    1    3    3    0    0 -0.13941164921E+03  0.41371333727E+03  0.37750526657E+03  0.57715211137E+03  0.00000000000E+00 0. -1.
          4    1    6    6  502    0  0.32035830719E+03 -0.27071447773E+03 -0.50568827798E+03  0.65699041692E+03  0.00000000000E+00 0. -1.
          1    1    5    5  503    0 -0.49805880359E+02 -0.16971526809E+03  0.76138088028E+02  0.19256403192E+03  0.00000000000E+00 0. -1.
         -2    1    5    5    0  503 -0.99884499109E+02 -0.11243666220E+03  0.28495856801E+02  0.15307164997E+03  0.00000000000E+00 0.  1.
         -3    1    6    6    0  502  0.68207875060E+02 -0.10281675805E+03 -0.19616674476E+03  0.23174337467E+03  0.00000000000E+00 0.  1.
<mgrwt>
<rscale>  0 0.21075306E+04</rscale>
<asrwt>0</asrwt>
<pdfrwt beam="1">  1        1 0.15621702E+00 0.21075306E+04</pdfrwt>
<pdfrwt beam="2">  1       -1 0.16824134E+00 0.21075306E+04</pdfrwt>
<totfact> 0.34295165E+00</totfact>
</mgrwt>
</event>
<event>
12    1  0.1442183E-007  0.1695500E+04  0.7818608E-02  0.8763935E-01
          2   -1    0    0  501    0  0.00000000000E+00  0.00000000000E+00  0.18943191813E+04  0.18943191813E+04  0.00000000000E+00 0. -1.
         -2   -1    0    0    0  501 -0.00000000000E+00 -0.00000000000E+00 -0.37938695154E+03  0.37938695154E+03  0.00000000000E+00 0.  1.
         23    2    1    2    0    0  0.10790200119E+03  0.59106097568E+03  0.71412154531E+03  0.93789937886E+03  0.93218799436E+02 0.  0.
        254    2    1    2    0    0 -0.10790200119E+03 -0.59106097568E+03  0.80081068445E+03  0.13358067540E+04  0.88435627028E+03 0.  0.
        -24    2    4    4    0    0  0.76821981748E+01 -0.43831773057E+03  0.97067627073E+03  0.10680977571E+04  0.80243049411E+02 0.  0.
         24    2    4    4    0    0 -0.11558419936E+03 -0.15274324511E+03 -0.16986558628E+03  0.26770899691E+03  0.78253329356E+02 0.  0.
         13    1    3    3    0    0  0.42382973600E+02  0.21627426128E+03  0.19493795353E+03  0.29423065487E+03  0.00000000000E+00 0.  1.
        -13    1    3    3    0    0  0.65519027589E+02  0.37478671440E+03  0.51918359178E+03  0.64366872399E+03  0.00000000000E+00 0. -1.
          2    1    6    6  502    0 -0.28666428561E+02 -0.10019138776E+03 -0.72020448105E+02  0.12667684576E+03  0.00000000000E+00 0. -1.
          1    1    5    5  503    0  0.20781466604E+02 -0.15852910603E+03  0.43799765843E+03  0.46626740783E+03  0.00000000000E+00 0. -1.
         -2    1    5    5    0  503 -0.13099268430E+02 -0.27978862454E+03  0.53267861230E+03  0.60183034923E+03  0.00000000000E+00 0.  1.
         -1    1    6    6    0  502 -0.86917770804E+02 -0.52551857350E+02 -0.97845138173E+02  0.14103215114E+03  0.00000000000E+00 0.  1.
<mgrwt>
<rscale>  0 0.16954999E+04</rscale>
<asrwt>0</asrwt>
<pdfrwt beam="1">  1        2 0.29143372E+00 0.16954999E+04</pdfrwt>
<pdfrwt beam="2">  1       -2 0.58367224E-01 0.16954999E+04</pdfrwt>
<totfact> 0.19987427E+01</totfact>
</mgrwt>
</event>
<event>
12    1  0.1442183E-007  0.1774785E+04  0.7818608E-02  0.8719825E-01
          2   -1    0    0  501    0  0.00000000000E+00  0.00000000000E+00  0.21418419758E+04  0.21418419758E+04  0.00000000000E+00 0.  1.
         -2   -1    0    0    0  501 -0.00000000000E+00 -0.00000000000E+00 -0.36765812361E+03  0.36765812361E+03  0.00000000000E+00 0. -1.
         23    2    1    2    0    0  0.10587216571E+03  0.49080999624E+03  0.76209534541E+02  0.51956655676E+03  0.10971848460E+03 0.  0.
        254    2    1    2    0    0 -0.10587216571E+03 -0.49080999624E+03  0.16979743177E+04  0.19899335427E+04  0.90808334031E+03 0.  0.
        -24    2    4    4    0    0 -0.11818581098E+03 -0.14465878407E+03  0.16115239777E+04  0.16241686572E+04  0.77590246707E+02 0.  0.
         24    2    4    4    0    0  0.12313645270E+02 -0.34615121217E+03  0.86450339945E+02  0.36576488552E+03  0.79611573653E+02 0.  0.
         11    1    3    3    0    0  0.10600000223E+03  0.42412745884E+03  0.29530038264E+02  0.43816905981E+03  0.00000000000E+00 0. -1.
        -11    1    3    3    0    0 -0.12783652133E+00  0.66682537395E+02  0.46679496277E+02  0.81397496941E+02  0.00000000000E+00 0.  1.
          2    1    6    6  502    0  0.31824672035E+01 -0.23226218849E+03  0.18938130351E+02  0.23305472551E+03  0.00000000000E+00 0. -1.
          3    1    5    5  503    0 -0.97953611987E+02 -0.10921354448E+03  0.14562298318E+04  0.14636009809E+04  0.00000000000E+00 0. -1.
         -2    1    5    5    0  503 -0.20232198996E+02 -0.35445239591E+02  0.15529414594E+03  0.16056767623E+03  0.00000000000E+00 0.  1.
         -1    1    6    6    0  502  0.91311780666E+01 -0.11388902368E+03  0.67512209593E+02  0.13271016001E+03  0.00000000000E+00 0.  1.
<mgrwt>
<rscale>  0 0.17747852E+04</rscale>
<asrwt>0</asrwt>
<pdfrwt beam="1">  1        2 0.32951414E+00 0.17747852E+04</pdfrwt>
<pdfrwt beam="2">  1       -2 0.56562789E-01 0.17747852E+04</pdfrwt>
<totfact> 0.15446639E+01</totfact>
</mgrwt>
</event>
<event>
12    1  0.1442183E-007  0.1607610E+04  0.7818608E-02  0.8815887E-01
          1   -1    0    0  501    0  0.00000000000E+00  0.00000000000E+00  0.12048266359E+04  0.12048266359E+04  0.00000000000E+00 0. -1.
         -1   -1    0    0    0  501 -0.00000000000E+00 -0.00000000000E+00 -0.53626164054E+03  0.53626164054E+03  0.00000000000E+00 0.  1.
         23    2    1    2    0    0  0.20459744540E+02  0.29141679912E+03  0.73434092359E+03  0.79558821547E+03  0.91442137827E+02 0.  0.
        254    2    1    2    0    0 -0.20459744540E+02 -0.29141679912E+03 -0.65775928223E+02  0.94550006099E+03  0.89682860160E+03 0.  0.
        -24    2    4    4    0    0 -0.42662155272E+03 -0.13105672940E+02 -0.97496775072E+02  0.44569025064E+03  0.83405458204E+02 0.  0.
         24    2    4    4    0    0  0.40616180818E+03 -0.27831112618E+03  0.31720846849E+02  0.49980981036E+03  0.79869499993E+02 0.  0.
         13    1    3    3    0    0  0.44293239366E+02  0.23925360022E+03  0.64558282144E+03  0.68991402045E+03  0.00000000000E+00 0. -1.
        -13    1    3    3    0    0 -0.23833494827E+02  0.52163198899E+02  0.88758102151E+02  0.10567419502E+03  0.00000000000E+00 0.  1.
          2    1    6    6  502    0  0.51958678180E+02 -0.60510830642E+02  0.26246503425E+02  0.83965134462E+02  0.00000000000E+00 0. -1.
          1    1    5    5  503    0 -0.79194801579E+02  0.30219882522E+02 -0.17634580564E+02  0.86579653086E+02  0.00000000000E+00 0. -1.
         -2    1    5    5    0  503 -0.34742675114E+03 -0.43325555463E+02 -0.79862194509E+02  0.35911059755E+03  0.00000000000E+00 0.  1.
         -1    1    6    6    0  502  0.35420313000E+03 -0.21780029553E+03  0.54743434245E+01  0.41584467589E+03  0.00000000000E+00 0.  1.
<mgrwt>
<rscale>  0 0.16076098E+04</rscale>
<asrwt>0</asrwt>
<pdfrwt beam="1">  1        1 0.18535794E+00 0.16076098E+04</pdfrwt>
<pdfrwt beam="2">  1       -1 0.82501791E-01 0.16076098E+04</pdfrwt>
<totfact> 0.14843666E+01</totfact>
</mgrwt>
</event>
<event>
12    1  0.1442183E-007  0.1770530E+04  0.7818608E-02  0.8722130E-01
          2   -1    0    0  501    0  0.00000000000E+00  0.00000000000E+00  0.44244561207E+04  0.44244561207E+04  0.00000000000E+00 0. -1.
         -2   -1    0    0    0  501 -0.00000000000E+00 -0.00000000000E+00 -0.17712769323E+03  0.17712769323E+03  0.00000000000E+00 0.  1.
         23    2    1    2    0    0  0.17291591790E+03 -0.61404311157E+03  0.19774613621E+04  0.20799562108E+04  0.94422151093E+02 0.  0.
        254    2    1    2    0    0 -0.17291591790E+03  0.61404311157E+03  0.22698670653E+04  0.25216276031E+04  0.89406958177E+03 0.  0.
        -24    2    4    4    0    0 -0.17052854748E+03 -0.20166770210E+03  0.65866242188E+03  0.71393783003E+03  0.78238044300E+02 0.  0.
         24    2    4    4    0    0 -0.23873704164E+01  0.81571081367E+03  0.16112046435E+04  0.18076897731E+04  0.79825319250E+02 0.  0.
         13    1    3    3    0    0  0.22216972279E+02 -0.24319780554E+03  0.71539886955E+03  0.75593274108E+03  0.00000000000E+00 0.  1.
        -13    1    3    3    0    0  0.15069894562E+03 -0.37084530603E+03  0.12620624926E+04  0.13240234697E+04  0.00000000000E+00 0. -1.
          2    1    6    6  502    0 -0.14046078596E+02  0.71690075359E+03  0.13588654015E+04  0.15364436736E+04  0.00000000000E+00 0. -1.
          3    1    5    5  503    0 -0.16738903764E+03 -0.15890142090E+03  0.52307004355E+03  0.57172635233E+03  0.00000000000E+00 0. -1.
         -4    1    5    5    0  503 -0.31395098448E+01 -0.42766281198E+02  0.13559237833E+03  0.14221147770E+03  0.00000000000E+00 0.  1.
         -1    1    6    6    0  502  0.11658708180E+02  0.98810060079E+02  0.25233924196E+03  0.27124609948E+03  0.00000000000E+00 0.  1.
<mgrwt>
<rscale>  0 0.17705295E+04</rscale>
<asrwt>0</asrwt>
<pdfrwt beam="1">  1        2 0.68068547E+00 0.17705295E+04</pdfrwt>
<pdfrwt beam="2">  1       -2 0.27250418E-01 0.17705295E+04</pdfrwt>
<totfact> 0.17258559E+00</totfact>
</mgrwt>
</event>
<event>
12    1  0.1442183E-007  0.1885523E+04  0.7818608E-02  0.8662096E-01
         -1   -1    0    0    0  501 -0.00000000000E+00  0.00000000000E+00  0.79107040242E+03  0.79107040242E+03  0.00000000000E+00 0.  1.
          1   -1    0    0  501    0  0.00000000000E+00 -0.00000000000E+00 -0.11235397392E+04  0.11235397392E+04  0.00000000000E+00 0. -1.
         23    2    1    2    0    0  0.32394516766E+03 -0.12851128252E+02 -0.78576757038E+03  0.85624870132E+03  0.10308026342E+03 0.  0.
        254    2    1    2    0    0 -0.32394516766E+03  0.12851128252E+02  0.45329823358E+03  0.10583614403E+04  0.89974664581E+03 0.  0.
        -24    2    4    4    0    0 -0.57049464927E+03  0.13520309823E+03  0.95858544332E+02  0.59962279922E+03  0.81330303101E+02 0.  0.
         24    2    4    4    0    0  0.24654948161E+03 -0.12235196998E+03  0.35743968924E+03  0.45873864110E+03  0.83194699075E+02 0.  0.
         11    1    3    3    0    0  0.17168490310E+03 -0.50062071731E+02 -0.34790942413E+03  0.39118139575E+03  0.00000000000E+00 0.  1.
        -11    1    3    3    0    0  0.15226026456E+03  0.37210943479E+02 -0.43785814625E+03  0.46506730558E+03  0.00000000000E+00 0. -1.
          4    1    6    6  502    0  0.35315377465E+02 -0.18717150435E+02  0.11117612553E+03  0.11814245001E+03  0.00000000000E+00 0. -1.
          3    1    5    5  503    0 -0.32275149272E+03  0.10677051290E+03  0.82907711588E+02  0.34991735756E+03  0.00000000000E+00 0. -1.
         -4    1    5    5    0  503 -0.24774315655E+03  0.28432585324E+02  0.12950832744E+02  0.24970544166E+03  0.00000000000E+00 0.  1.
         -1    1    6    6    0  502  0.21123410415E+03 -0.10363481954E+03  0.24626356372E+03  0.34059619110E+03  0.00000000000E+00 0.  1.
<mgrwt>
<rscale>  0 0.18855228E+04</rscale>
<asrwt>0</asrwt>
<pdfrwt beam="1">  1        1 0.17285227E+00 0.18855228E+04</pdfrwt>
<pdfrwt beam="2">  1       -1 0.12170314E+00 0.18855228E+04</pdfrwt>
<totfact> 0.68197054E+00</totfact>
</mgrwt>
</event>
<event>
12    1  0.1442183E-007  0.2231794E+04  0.7818608E-02  0.8505310E-01
         -2   -1    0    0    0  501 -0.00000000000E+00  0.00000000000E+00  0.49324810840E+03  0.49324810840E+03  0.00000000000E+00 0.  1.
          2   -1    0    0  501    0  0.00000000000E+00 -0.00000000000E+00 -0.25245429350E+04  0.25245429350E+04  0.00000000000E+00 0. -1.
         23    2    1    2    0    0 -0.11772514962E+03 -0.85889171029E+03 -0.13016301960E+04  0.15664988457E+04  0.90129270944E+02 0.  0.
        254    2    1    2    0    0  0.11772514962E+03  0.85889171029E+03 -0.72966463055E+03  0.14512921977E+04  0.90679897946E+03 0.  0.
        -24    2    4    4    0    0 -0.30058000290E+03  0.37712121147E+03 -0.12839506842E+02  0.48826886799E+03  0.75318578229E+02 0.  0.
         24    2    4    4    0    0  0.41830515253E+03  0.48177049882E+03 -0.71682512370E+03  0.96302332970E+03  0.80583257641E+02 0.  0.
         11    1    3    3    0    0 -0.97493410726E+02 -0.76514086323E+03 -0.12020716847E+04  0.14282583243E+04  0.00000000000E+00 0.  1.
        -11    1    3    3    0    0 -0.20231738897E+02 -0.93750847060E+02 -0.99558511367E+02  0.13824052144E+03  0.00000000000E+00 0. -1.
          4    1    6    6  502    0  0.16542223433E+03  0.13414973204E+03 -0.25011791722E+03  0.32851124597E+03  0.00000000000E+00 0. -1.
          3    1    5    5  503    0 -0.98492918561E+02  0.16781711993E+03 -0.29698273102E+02  0.19683858406E+03  0.00000000000E+00 0. -1.
         -4    1    5    5    0  503 -0.20208708434E+03  0.20930409153E+03  0.16858766260E+02  0.29143028393E+03  0.00000000000E+00 0.  1.
         -3    1    6    6    0  502  0.25288291820E+03  0.34762076678E+03 -0.46670720648E+03  0.63451208373E+03  0.00000000000E+00 0.  1.
<mgrwt>
<rscale>  0 0.22317939E+04</rscale>
<asrwt>0</asrwt>
<pdfrwt beam="1">  1        2 0.38839122E+00 0.22317939E+04</pdfrwt>
<pdfrwt beam="2">  1       -2 0.75884325E-01 0.22317939E+04</pdfrwt>
<totfact> 0.47782206E+00</totfact>
</mgrwt>
</event>
<event>
12    1  0.1442183E-007  0.1803296E+04  0.7818608E-02  0.8704549E-01
          3   -1    0    0  501    0  0.00000000000E+00  0.00000000000E+00  0.91553754895E+03  0.91553754895E+03  0.00000000000E+00 0. -1.
         -3   -1    0    0    0  501 -0.00000000000E+00 -0.00000000000E+00 -0.88796894741E+03  0.88796894741E+03  0.00000000000E+00 0.  1.
         23    2    1    2    0    0 -0.96132272512E+01 -0.61655311117E+03  0.28956514893E+03  0.68721801659E+03  0.90501236567E+02 0.  0.
        254    2    1    2    0    0  0.96132272512E+01  0.61655311117E+03 -0.26199654739E+03  0.11162884798E+04  0.89287604190E+03 0.  0.
        -24    2    4    4    0    0  0.21249876790E+03  0.77785377927E+03 -0.23537036501E+03  0.84396973564E+03  0.81691356133E+02 0.  0.
         24    2    4    4    0    0 -0.20288554065E+03 -0.16130066810E+03 -0.26626182381E+02  0.27231874413E+03  0.79171312259E+02 0.  0.
         13    1    3    3    0    0 -0.36642209005E+02 -0.27210190038E+03  0.94018198642E+02  0.29020943704E+03  0.00000000000E+00 0.  1.
        -13    1    3    3    0    0  0.27028981754E+02 -0.34445121078E+03  0.19554695029E+03  0.39700857955E+03  0.00000000000E+00 0. -1.
          2    1    6    6  502    0 -0.20050435124E+03 -0.14703069601E+03 -0.80408351493E+01  0.24876630693E+03  0.00000000000E+00 0. -1.
          3    1    5    5  503    0  0.20730395150E+03  0.76140053435E+03 -0.24214555432E+03  0.82543332347E+03  0.00000000000E+00 0. -1.
         -4    1    5    5    0  503  0.51948163950E+01  0.16453244920E+02  0.67751893163E+01  0.18536412168E+02  0.00000000000E+00 0.  1.
         -1    1    6    6    0  502 -0.23811894106E+01 -0.14269972095E+02 -0.18585347231E+02  0.23552437205E+02  0.00000000000E+00 0.  1.
<mgrwt>
<rscale>  0 0.18032958E+04</rscale>
<asrwt>0</asrwt>
<pdfrwt beam="1">  1        3 0.14085193E+00 0.18032958E+04</pdfrwt>
<pdfrwt beam="2">  1       -3 0.13661061E+00 0.18032958E+04</pdfrwt>
<totfact> 0.38484458E-01</totfact>
</mgrwt>
</event>
<event>
12    1  0.1442183E-007  0.1716441E+04  0.7818608E-02  0.8752043E-01
          2   -1    0    0  501    0  0.00000000000E+00  0.00000000000E+00  0.17086197665E+04  0.17086197665E+04  0.00000000000E+00 0. -1.
         -2   -1    0    0    0  501 -0.00000000000E+00 -0.00000000000E+00 -0.43107430250E+03  0.43107430250E+03  0.00000000000E+00 0.  1.
         23    2    1    2    0    0 -0.45616305044E+03 -0.13696924509E+03 -0.36935494640E+02  0.48566528877E+03  0.87528505444E+02 0.  0.
        254    2    1    2    0    0  0.45616305044E+03  0.13696924509E+03  0.13144809587E+04  0.16540287803E+04  0.88380185140E+03 0.  0.
        -24    2    4    4    0    0  0.62578936750E+03  0.11974025057E+03  0.13176495495E+04  0.14657800724E+04  0.79754782096E+02 0.  0.
         24    2    4    4    0    0 -0.16962631706E+03  0.17228994517E+02 -0.31685908393E+01  0.18824870785E+03  0.79734624528E+02 0.  0.
         13    1    3    3    0    0 -0.34129446602E+03 -0.68573874583E+02 -0.47096077149E+01  0.34814719476E+03  0.00000000000E+00 0.  1.
        -13    1    3    3    0    0 -0.11486858442E+03 -0.68395370508E+02 -0.32225886925E+02  0.13751809402E+03  0.00000000000E+00 0. -1.
          2    1    6    6  502    0 -0.17792861282E+03  0.14458847327E+02 -0.70950385240E+01  0.17865606370E+03  0.00000000000E+00 0. -1.
          3    1    5    5  503    0  0.47471322950E+03  0.11131855763E+03  0.93974695599E+03  0.10587109203E+04  0.00000000000E+00 0. -1.
         -4    1    5    5    0  503  0.15107613800E+03  0.84216929473E+01  0.37790259354E+03  0.40706915209E+03  0.00000000000E+00 0.  1.
         -1    1    6    6    0  502  0.83022957604E+01  0.27701471897E+01  0.39264476847E+01  0.95926441489E+01  0.00000000000E+00 0.  1.
<mgrwt>
<rscale>  0 0.17164406E+04</rscale>
<asrwt>0</asrwt>
<pdfrwt beam="1">  1        2 0.26286458E+00 0.17164406E+04</pdfrwt>
<pdfrwt beam="2">  1       -2 0.66319125E-01 0.17164406E+04</pdfrwt>
<totfact> 0.19267347E+01</totfact>
</mgrwt>
</event>
<event>
12    1  0.1442183E-007  0.1734049E+04  0.7818608E-02  0.8742180E-01
          2   -1    0    0  501    0  0.00000000000E+00  0.00000000000E+00  0.84611590858E+03  0.84611590858E+03  0.00000000000E+00 0.  1.
         -2   -1    0    0    0  501 -0.00000000000E+00 -0.00000000000E+00 -0.88844969474E+03  0.88844969474E+03  0.00000000000E+00 0. -1.
         23    2    1    2    0    0 -0.30661931114E+03  0.13217510194E+03 -0.56470771203E+03  0.66194157026E+03  0.88239349935E+02 0.  0.
        254    2    1    2    0    0  0.30661931114E+03 -0.13217510194E+03  0.52237392587E+03  0.10726240331E+04  0.87530688238E+03 0.  0.
        -24    2    4    4    0    0  0.65988821046E+01 -0.43956318040E+03  0.44117122630E+03  0.62821706274E+03  0.82251396314E+02 0.  0.
         24    2    4    4    0    0  0.30002042903E+03  0.30738807846E+03  0.81202699575E+02  0.44440697033E+03  0.80024922627E+02 0.  0.
         13    1    3    3    0    0 -0.23942697759E+03  0.61115983034E+02 -0.38891887815E+03  0.46078013711E+03  0.00000000000E+00 0. -1.
        -13    1    3    3    0    0 -0.67192333548E+02  0.71059118906E+02 -0.17578883388E+03  0.20116143315E+03  0.00000000000E+00 0.  1.
          2    1    6    6  502    0  0.22010494544E+03  0.17370668115E+03  0.39402031261E+02  0.28314787329E+03  0.00000000000E+00 0. -1.
          1    1    5    5  503    0 -0.47286686154E+01 -0.41870649777E+03  0.43479242510E+03  0.60364057559E+03  0.00000000000E+00 0. -1.
         -2    1    5    5    0  503  0.11327550720E+02 -0.20856682629E+02  0.63788011998E+01  0.24576487144E+02  0.00000000000E+00 0.  1.
         -1    1    6    6    0  502  0.79915483590E+02  0.13368139731E+03  0.41800668314E+02  0.16125909703E+03  0.00000000000E+00 0.  1.
<mgrwt>
<rscale>  0 0.17340489E+04</rscale>
<asrwt>0</asrwt>
<pdfrwt beam="1">  1        2 0.13017168E+00 0.17340489E+04</pdfrwt>
<pdfrwt beam="2">  1       -2 0.13668457E+00 0.17340489E+04</pdfrwt>
<totfact> 0.11581169E+01</totfact>
</mgrwt>
</event>
<event>
12    1  0.1442183E-007  0.3618700E+04  0.7818608E-02  0.8086222E-01
         -2   -1    0    0    0  501 -0.00000000000E+00  0.00000000000E+00  0.24262010083E+04  0.24262010083E+04  0.00000000000E+00 0. -1.
          2   -1    0    0  501    0  0.00000000000E+00 -0.00000000000E+00 -0.13493309371E+04  0.13493309371E+04  0.00000000000E+00 0.  1.
         23    2    1    2    0    0 -0.10164038124E+04  0.19175547136E+03 -0.89965701532E+03  0.13735427843E+04  0.85966064932E+02 0.  0.
        254    2    1    2    0    0  0.10164038124E+04 -0.19175547136E+03  0.19765270865E+04  0.24019891612E+04  0.89053115377E+03 0.  0.
        -24    2    4    4    0    0  0.11672091862E+04 -0.11593783999E+03  0.16521986361E+04  0.20277559395E+04  0.78834953594E+02 0.  0.
         24    2    4    4    0    0 -0.15080537384E+03 -0.75817631371E+02  0.32432845041E+03  0.37423322162E+03  0.79818459123E+02 0.  0.
         13    1    3    3    0    0 -0.40593593334E+03  0.83877627874E+02 -0.41604317568E+03  0.58729154810E+03  0.00000000000E+00 0.  1.
        -13    1    3    3    0    0 -0.61046787906E+03  0.10787784348E+03 -0.48361383964E+03  0.78625123617E+03  0.00000000000E+00 0. -1.
          2    1    6    6  502    0 -0.88206426968E+02 -0.10016610654E+02  0.21162529355E+03  0.22949067763E+03  0.00000000000E+00 0. -1.
          3    1    5    5  503    0  0.70883318394E+03 -0.46491247343E+02  0.10515324652E+04  0.12689863845E+04  0.00000000000E+00 0. -1.
         -4    1    5    5    0  503  0.45837600230E+03 -0.69446592644E+02  0.60066617092E+03  0.75876955500E+03  0.00000000000E+00 0.  1.
         -1    1    6    6    0  502 -0.62598946868E+02 -0.65801020717E+02  0.11270315686E+03  0.14474254400E+03  0.00000000000E+00 0.  1.
<mgrwt>
<rscale>  0 0.36187004E+04</rscale>
<asrwt>0</asrwt>
<pdfrwt beam="1">  1        2 0.20758938E+00 0.36187004E+04</pdfrwt>
<pdfrwt beam="2">  1       -2 0.37326169E+00 0.36187004E+04</pdfrwt>
<totfact> 0.13925593E-01</totfact>
</mgrwt>
</event>
<event>
12    1  0.1442183E-007  0.1842739E+04  0.7818608E-02  0.8683896E-01
         -1   -1    0    0    0  501 -0.00000000000E+00  0.00000000000E+00  0.68674971788E+03  0.68674971788E+03  0.00000000000E+00 0. -1.
          1   -1    0    0  501    0  0.00000000000E+00 -0.00000000000E+00 -0.12361436655E+04  0.12361436655E+04  0.00000000000E+00 0.  1.
         23    2    1    2    0    0 -0.14664867775E+03 -0.20670201526E+03 -0.88811536395E+03  0.92817822011E+03  0.92381550116E+02 0.  0.
        254    2    1    2    0    0  0.14664867775E+03  0.20670201526E+03  0.33872141634E+03  0.99471516326E+03  0.90027468049E+03 0.  0.
        -24    2    4    4    0    0  0.23291827494E+03 -0.26162972208E+03 -0.65145310702E+02  0.36532537738E+03  0.80732184250E+02 0.  0.
         24    2    4    4    0    0 -0.86269597198E+02  0.46833173734E+03  0.40386672704E+03  0.62938978587E+03  0.79032333549E+02 0.  0.
         13    1    3    3    0    0 -0.38078952128E+02 -0.38636671538E+02 -0.87598203273E+02  0.10303516002E+03  0.00000000000E+00 0. -1.
        -13    1    3    3    0    0 -0.10856972562E+03 -0.16806534372E+03 -0.80051716067E+03  0.82514306009E+03  0.00000000000E+00 0.  1.
          4    1    6    6  502    0  0.50906247832E+00 -0.29975718453E+01  0.72198182358E+00  0.31250342923E+01  0.00000000000E+00 0. -1.
          1    1    5    5  503    0  0.72491978779E+02 -0.71648321727E+02  0.17250557629E+02  0.10337383969E+03  0.00000000000E+00 0. -1.
         -2    1    5    5    0  503  0.16042629617E+03 -0.18998140035E+03 -0.82395868330E+02  0.26195153769E+03  0.00000000000E+00 0.  1.
         -3    1    6    6    0  502 -0.86778659676E+02  0.47132930919E+03  0.40314474522E+03  0.62626475158E+03  0.00000000000E+00 0.  1.
<mgrwt>
<rscale>  0 0.18427385E+04</rscale>
<asrwt>0</asrwt>
<pdfrwt beam="1">  1        1 0.19017595E+00 0.18427385E+04</pdfrwt>
<pdfrwt beam="2">  1       -1 0.10565380E+00 0.18427385E+04</pdfrwt>
<totfact> 0.79344446E+00</totfact>
</mgrwt>
</event>
<event>
12    1  0.1442183E-007  0.1641110E+04  0.7818608E-02  0.8795683E-01
         -2   -1    0    0    0  501 -0.00000000000E+00  0.00000000000E+00  0.51273583138E+03  0.51273583138E+03  0.00000000000E+00 0.  1.
          2   -1    0    0  501    0  0.00000000000E+00 -0.00000000000E+00 -0.13131731067E+04  0.13131731067E+04  0.00000000000E+00 0. -1.
         23    2    1    2    0    0 -0.49693521978E+03  0.26476392075E+03 -0.23206283952E+03  0.61573480016E+03  0.90728365246E+02 0.  0.
        254    2    1    2    0    0  0.49693521978E+03 -0.26476392075E+03 -0.56837443579E+03  0.12101741379E+04  0.90797984472E+03 0.  0.
        -24    2    4    4    0    0  0.24383744821E+03 -0.54614144606E+03 -0.11407099186E+03  0.61390091745E+03  0.78326017453E+02 0.  0.
         24    2    4    4    0    0  0.25309777157E+03  0.28137752531E+03 -0.45430344393E+03  0.59627322045E+03  0.76930751585E+02 0.  0.
         11    1    3    3    0    0 -0.36831303109E+03  0.23386919014E+03 -0.15724836155E+03  0.46376323073E+03  0.00000000000E+00 0. -1.
        -11    1    3    3    0    0 -0.12862218869E+03  0.30894730614E+02 -0.74814477973E+02  0.15197156944E+03  0.00000000000E+00 0.  1.
          4    1    6    6  502    0  0.13339760522E+02  0.28060321245E+01 -0.25087381384E+01  0.13860620264E+02  0.00000000000E+00 0. -1.
          3    1    5    5  503    0  0.53912688882E+02 -0.58510459117E+02 -0.81590077597E+01  0.79978880063E+02  0.00000000000E+00 0. -1.
         -4    1    5    5    0  503  0.18992475933E+03 -0.48763098695E+03 -0.10591198410E+03  0.53392203739E+03  0.00000000000E+00 0.  1.
         -3    1    6    6    0  502  0.23975801105E+03  0.27857149319E+03 -0.45179470579E+03  0.58241260019E+03  0.00000000000E+00 0.  1.
<mgrwt>
<rscale>  0 0.16411105E+04</rscale>
<asrwt>0</asrwt>
<pdfrwt beam="1">  1        2 0.20202663E+00 0.16411105E+04</pdfrwt>
<pdfrwt beam="2">  1       -2 0.78882438E-01 0.16411105E+04</pdfrwt>
<totfact> 0.22151808E+01</totfact>
</mgrwt>
</event>
<event>
12    1  0.1442183E-007  0.2462272E+04  0.7818608E-02  0.8416551E-01
         -1   -1    0    0    0  501 -0.00000000000E+00  0.00000000000E+00  0.13588430865E+04  0.13588430865E+04  0.00000000000E+00 0.  1.
          1   -1    0    0  501    0  0.00000000000E+00 -0.00000000000E+00 -0.11154307357E+04  0.11154307357E+04  0.00000000000E+00 0. -1.
         23    2    1    2    0    0  0.73644009270E+03 -0.53887331773E+03  0.65558042254E+03  0.11273273307E+04  0.91393420669E+02 0.  0.
        254    2    1    2    0    0 -0.73644009270E+03  0.53887331773E+03 -0.41216807176E+03  0.13469464915E+04  0.90091834756E+03 0.  0.
        -24    2    4    4    0    0  0.19999707419E+03  0.11574153461E+03 -0.13622793634E+03  0.27995121927E+03  0.80123042956E+02 0.  0.
         24    2    4    4    0    0 -0.93643716689E+03  0.42313178312E+03 -0.27594013542E+03  0.10669952723E+04  0.79880406147E+02 0.  0.
         13    1    3    3    0    0  0.21310993700E+02 -0.33692194323E+02  0.15629351450E+02  0.42820544573E+02  0.00000000000E+00 0. -1.
        -13    1    3    3    0    0  0.71512909900E+03 -0.50518112341E+03  0.63995107109E+03  0.10845067861E+04  0.00000000000E+00 0.  1.
          2    1    6    6  502    0 -0.22477638146E+03  0.72209846505E+02 -0.84432724621E+02  0.25073405947E+03  0.00000000000E+00 0. -1.
          1    1    5    5  503    0  0.86332731349E+02  0.68373422748E+02 -0.22656741640E+02  0.11243484061E+03  0.00000000000E+00 0. -1.
         -2    1    5    5    0  503  0.11366434284E+03  0.47368111866E+02 -0.11357119470E+03  0.16751637866E+03  0.00000000000E+00 0.  1.
         -1    1    6    6    0  502 -0.71166078543E+03  0.35092193662E+03 -0.19150741080E+03  0.81626121279E+03  0.00000000000E+00 0.  1.
<mgrwt>
<rscale>  0 0.24622716E+04</rscale>
<asrwt>0</asrwt>
<pdfrwt beam="1">  1        1 0.17160473E+00 0.24622716E+04</pdfrwt>
<pdfrwt beam="2">  1       -1 0.20905278E+00 0.24622716E+04</pdfrwt>
<totfact> 0.14356030E+00</totfact>
</mgrwt>
</event>
<event>
12    1  0.1442183E-007  0.1258018E+04  0.7818608E-02  0.9063536E-01
          2   -1    0    0  501    0  0.00000000000E+00  0.00000000000E+00  0.53660052827E+03  0.53660052827E+03  0.00000000000E+00 0. -1.
         -2   -1    0    0    0  501 -0.00000000000E+00 -0.00000000000E+00 -0.73733092331E+03  0.73733092331E+03  0.00000000000E+00 0.  1.
         23    2    1    2    0    0  0.15580101168E+03 -0.19848036041E+03  0.11066152213E+03  0.28916043016E+03  0.87746072184E+02 0.  0.
        254    2    1    2    0    0 -0.15580101168E+03  0.19848036041E+03 -0.31139191717E+03  0.98477102143E+03  0.89952244544E+03 0.  0.
        -24    2    4    4    0    0 -0.25837854285E+02 -0.33390467958E+03  0.10730222712E+02  0.34434808135E+03  0.79375901167E+02 0.  0.
         24    2    4    4    0    0 -0.12996315739E+03  0.53238503999E+03 -0.32212213988E+03  0.64042294008E+03  0.77811413669E+02 0.  0.
         13    1    3    3    0    0  0.52605217823E+02 -0.57226540904E+02  0.80027184033E+02  0.11156404488E+03  0.00000000000E+00 0.  1.
        -13    1    3    3    0    0  0.10319579385E+03 -0.14125381951E+03  0.30634338093E+02  0.17759638528E+03  0.00000000000E+00 0. -1.
          2    1    6    6  502    0 -0.25512004226E+02  0.25916553088E+03 -0.16651819750E+03  0.30910507090E+03  0.00000000000E+00 0. -1.
          3    1    5    5  503    0 -0.41200890420E+02 -0.22855760870E+03  0.35774376110E+02  0.23498063718E+03  0.00000000000E+00 0. -1.
         -4    1    5    5    0  503  0.15363036135E+02 -0.10534707089E+03 -0.25044153398E+02  0.10936744416E+03  0.00000000000E+00 0.  1.
         -1    1    6    6    0  502 -0.10445115317E+03  0.27321950911E+03 -0.15560394238E+03  0.33131786918E+03  0.00000000000E+00 0.  1.
<mgrwt>
<rscale>  0 0.12580177E+04</rscale>
<asrwt>0</asrwt>
<pdfrwt beam="1">  1        2 0.82553927E-01 0.12580177E+04</pdfrwt>
<pdfrwt beam="2">  1       -2 0.11343553E+00 0.12580177E+04</pdfrwt>
<totfact> 0.33967866E+01</totfact>
</mgrwt>
</event>
<event>
12    1  0.1442183E-007  0.1957418E+04  0.7818608E-02  0.8626792E-01
         -2   -1    0    0    0  501 -0.00000000000E+00  0.00000000000E+00  0.10790203670E+04  0.10790203670E+04  0.00000000000E+00 0.  1.
          2   -1    0    0  501    0  0.00000000000E+00 -0.00000000000E+00 -0.88772316774E+03  0.88772316774E+03  0.00000000000E+00 0. -1.
         23    2    1    2    0    0 -0.11705433916E+03 -0.22567239341E+03  0.80532365300E+03  0.84952766139E+03  0.92310963244E+02 0.  0.
        254    2    1    2    0    0  0.11705433916E+03  0.22567239341E+03 -0.61402645372E+03  0.11172158734E+04  0.89806072976E+03 0.  0.
        -24    2    4    4    0    0  0.34390698446E+03  0.24503821562E+03 -0.73152078480E+03  0.84833725986E+03  0.78979154216E+02 0.  0.
         24    2    4    4    0    0 -0.22685264531E+03 -0.19365822203E+02  0.11749433108E+03  0.26887861349E+03  0.81569805731E+02 0.  0.
         13    1    3    3    0    0 -0.37037564572E+02 -0.16736987365E+03  0.51759749769E+03  0.54524455560E+03  0.00000000000E+00 0.  1.
        -13    1    3    3    0    0 -0.80016774584E+02 -0.58302519765E+02  0.28772615531E+03  0.30428310580E+03  0.00000000000E+00 0. -1.
          2    1    6    6  502    0 -0.11415692667E+03 -0.39514116713E+02  0.29142507417E+02  0.12426767506E+03  0.00000000000E+00 0. -1.
          3    1    5    5  503    0  0.57176774890E+02  0.18500625541E+02 -0.14929399452E+03  0.16093524640E+03  0.00000000000E+00 0. -1.
         -4    1    5    5    0  503  0.28673020957E+03  0.22653759008E+03 -0.58222679027E+03  0.68740201346E+03  0.00000000000E+00 0.  1.
         -1    1    6    6    0  502 -0.11269571864E+03  0.20148294509E+02  0.88351823659E+02  0.14461093843E+03  0.00000000000E+00 0.  1.
<mgrwt>
<rscale>  0 0.19574181E+04</rscale>
<asrwt>0</asrwt>
<pdfrwt beam="1">  1        2 0.13657279E+00 0.19574181E+04</pdfrwt>
<pdfrwt beam="2">  1       -2 0.16600313E+00 0.19574181E+04</pdfrwt>
<totfact> 0.63423434E+00</totfact>
</mgrwt>
</event>
<event>
12    1  0.1442183E-007  0.1780099E+04  0.7818608E-02  0.8716955E-01
         -1   -1    0    0    0  501 -0.00000000000E+00  0.00000000000E+00  0.40828144606E+03  0.40828144606E+03  0.00000000000E+00 0.  1.
          1   -1    0    0  501    0  0.00000000000E+00 -0.00000000000E+00 -0.19402995211E+04  0.19402995211E+04  0.00000000000E+00 0. -1.
         23    2    1    2    0    0  0.64230510598E+02 -0.67297454878E+03 -0.47798347922E+03  0.83295790660E+03  0.91270838437E+02 0.  0.
        254    2    1    2    0    0 -0.64230510598E+02  0.67297454878E+03 -0.10540345958E+04  0.15156230606E+04  0.85387588719E+03 0.  0.
        -24    2    4    4    0    0 -0.38599418397E+03  0.93419946995E+02 -0.52051057215E+03  0.66076448728E+03  0.89216900722E+02 0.  0.
         24    2    4    4    0    0  0.32176367337E+03  0.57955460179E+03 -0.53352402366E+03  0.85485857328E+03  0.81974987197E+02 0.  0.
         11    1    3    3    0    0  0.66163302176E+02 -0.64569426171E+03 -0.43278426448E+03  0.78012875972E+03  0.00000000000E+00 0.  1.
        -11    1    3    3    0    0 -0.19327915781E+01 -0.27280287070E+02 -0.45199214747E+02  0.52829146876E+02  0.00000000000E+00 0. -1.
          2    1    6    6  502    0  0.90380384158E+01  0.60243705460E+02 -0.37070049699E+02  0.71310439423E+02  0.00000000000E+00 0. -1.
          1    1    5    5  503    0 -0.13715100288E+03  0.62055922591E+02 -0.25037632840E+03  0.29214660864E+03  0.00000000000E+00 0. -1.
         -2    1    5    5    0  503 -0.24884318110E+03  0.31364024404E+02 -0.27013424375E+03  0.36861787864E+03  0.00000000000E+00 0.  1.
         -1    1    6    6    0  502  0.31272563496E+03  0.51931089633E+03 -0.49645397396E+03  0.78354813386E+03  0.00000000000E+00 0.  1.
<mgrwt>
<rscale>  0 0.17800992E+04</rscale>
<asrwt>0</asrwt>
<pdfrwt beam="1">  1        1 0.29850762E+00 0.17800992E+04</pdfrwt>
<pdfrwt beam="2">  1       -1 0.62812530E-01 0.17800992E+04</pdfrwt>
<totfact> 0.79499061E+00</totfact>
</mgrwt>
</event>
<event>
12    1  0.1442183E-007  0.1567979E+04  0.7818608E-02  0.8840465E-01
          1   -1    0    0  501    0  0.00000000000E+00  0.00000000000E+00  0.76163554222E+03  0.76163554222E+03  0.00000000000E+00 0. -1.
         -1   -1    0    0    0  501 -0.00000000000E+00 -0.00000000000E+00 -0.80699964875E+03  0.80699964875E+03  0.00000000000E+00 0.  1.
         23    2    1    2    0    0  0.53841306008E+02  0.14725644521E+03  0.47969614253E+03  0.51332849699E+03  0.93885088156E+02 0.  0.
        254    2    1    2    0    0 -0.53841306008E+02 -0.14725644521E+03 -0.52506024906E+03  0.10553066940E+04  0.90188724702E+03 0.  0.
        -24    2    4    4    0    0  0.37641845115E+03  0.98928070005E+02 -0.13529911775E+03  0.41961644806E+03  0.79337877560E+02 0.  0.
         24    2    4    4    0    0 -0.43025975716E+03 -0.24618451521E+03 -0.38976113131E+03  0.63569024592E+03  0.80362149825E+02 0.  0.
         11    1    3    3    0    0  0.21843301694E+02  0.10010639213E+03  0.41340248176E+03  0.42591082576E+03  0.00000000000E+00 0. -1.
        -11    1    3    3    0    0  0.31998004314E+02  0.47150053079E+02  0.66293660770E+02  0.87417671232E+02  0.00000000000E+00 0.  1.
          4    1    6    6  502    0 -0.25711282914E+03 -0.11137203602E+03 -0.18661392463E+03  0.33665337394E+03  0.00000000000E+00 0. -1.
          3    1    5    5  503    0  0.37769706551E+03  0.10191291866E+03 -0.13855639481E+03  0.41501709703E+03  0.00000000000E+00 0. -1.
         -4    1    5    5    0  503 -0.12786143546E+01 -0.29848486512E+01  0.32572770543E+01  0.45993510354E+01  0.00000000000E+00 0.  1.
         -3    1    6    6    0  502 -0.17314692802E+03 -0.13481247919E+03 -0.20314720668E+03  0.29903687199E+03  0.00000000000E+00 0.  1.
<mgrwt>
<rscale>  0 0.15679791E+04</rscale>
<asrwt>0</asrwt>
<pdfrwt beam="1">  1        1 0.11717470E+00 0.15679791E+04</pdfrwt>
<pdfrwt beam="2">  1       -1 0.12415379E+00 0.15679791E+04</pdfrwt>
<totfact> 0.13094767E+01</totfact>
</mgrwt>
</event>
<event>
12    1  0.1442183E-007  0.1948621E+04  0.7818608E-02  0.8631026E-01
         -1   -1    0    0    0  501 -0.00000000000E+00  0.00000000000E+00  0.10182119173E+04  0.10182119173E+04  0.00000000000E+00 0.  1.
          1   -1    0    0  501    0  0.00000000000E+00 -0.00000000000E+00 -0.93230199004E+03  0.93230199004E+03  0.00000000000E+00 0. -1.
         23    2    1    2    0    0 -0.34378282752E+03  0.67311900397E+03  0.22990024552E+02  0.76182831588E+03  0.92617577355E+02 0.  0.
        254    2    1    2    0    0  0.34378282752E+03 -0.67311900397E+03  0.62919902728E+02  0.11886855915E+04  0.91528066473E+03 0.  0.
        -24    2    4    4    0    0 -0.28971808682E+03 -0.30191966080E+03  0.13465898480E+03  0.44641491623E+03  0.77853605169E+02 0.  0.
         24    2    4    4    0    0  0.63350091434E+03 -0.37119934317E+03 -0.71739082071E+02  0.74227067525E+03  0.81895656776E+02 0.  0.
         13    1    3    3    0    0 -0.18628636424E+03  0.32651067487E+03 -0.31514969165E+02  0.37723338080E+03  0.00000000000E+00 0.  1.
        -13    1    3    3    0    0 -0.15749646328E+03  0.34660832910E+03  0.54504993717E+02  0.38459493508E+03  0.00000000000E+00 0. -1.
          2    1    6    6  502    0  0.50756446721E+03 -0.32173544187E+03 -0.34487805897E+02  0.60193420877E+03  0.00000000000E+00 0. -1.
          1    1    5    5  503    0 -0.35193118885E+02 -0.83900331967E+01  0.34491422725E+01  0.36343429342E+02  0.00000000000E+00 0. -1.
         -2    1    5    5    0  503 -0.25452496794E+03 -0.29352962761E+03  0.13120984253E+03  0.41007148689E+03  0.00000000000E+00 0.  1.
         -1    1    6    6    0  502  0.12593644713E+03 -0.49463901295E+02 -0.37251276175E+02  0.14033646648E+03  0.00000000000E+00 0.  1.
<mgrwt>
<rscale>  0 0.19486210E+04</rscale>
<asrwt>0</asrwt>
<pdfrwt beam="1">  1        1 0.14343108E+00 0.19486210E+04</pdfrwt>
<pdfrwt beam="2">  1       -1 0.15664799E+00 0.19486210E+04</pdfrwt>
<totfact> 0.49465213E+00</totfact>
</mgrwt>
</event>
<event>
12    1  0.1442183E-007  0.1465307E+04  0.7818608E-02  0.8907857E-01
          2   -1    0    0  501    0  0.00000000000E+00  0.00000000000E+00  0.19225225607E+04  0.19225225607E+04  0.00000000000E+00 0. -1.
         -2   -1    0    0    0  501 -0.00000000000E+00 -0.00000000000E+00 -0.27920654240E+03  0.27920654240E+03  0.00000000000E+00 0.  1.
         23    2    1    2    0    0  0.25416687121E+03 -0.31066370757E+03  0.21020866389E+03  0.46145320396E+03  0.87399310360E+02 0.  0.
        254    2    1    2    0    0 -0.25416687121E+03  0.31066370757E+03  0.14331073544E+04  0.17402758991E+04  0.90202592991E+03 0.  0.
        -24    2    4    4    0    0 -0.43147903835E+03 -0.94182653153E+02  0.35466866296E+03  0.57196770051E+03  0.79452232492E+02 0.  0.
         24    2    4    4    0    0  0.17731216714E+03  0.40484636072E+03  0.10784386914E+04  0.11683081986E+04  0.81079315277E+02 0.  0.
         13    1    3    3    0    0  0.54405313680E+02 -0.88388780801E+02  0.96444076241E+02  0.14168265444E+03  0.00000000000E+00 0. -1.
        -13    1    3    3    0    0  0.19976155753E+03 -0.22227492677E+03  0.11376458765E+03  0.31977054952E+03  0.00000000000E+00 0.  1.
          2    1    6    6  502    0  0.14282005891E+03  0.34610373683E+03  0.82704166667E+03  0.90784540770E+03  0.00000000000E+00 0. -1.
          1    1    5    5  503    0 -0.42439396943E+03 -0.10290982921E+03  0.33976489281E+03  0.55329996984E+03  0.00000000000E+00 0. -1.
         -2    1    5    5    0  503 -0.70850689183E+01  0.87271760611E+01  0.14903770153E+02  0.18667730670E+02  0.00000000000E+00 0.  1.
         -1    1    6    6    0  502  0.34492108236E+02  0.58742623897E+02  0.25139702476E+03  0.26046279091E+03  0.00000000000E+00 0.  1.
<mgrwt>
<rscale>  0 0.14653066E+04</rscale>
<asrwt>0</asrwt>
<pdfrwt beam="1">  1        2 0.29577269E+00 0.14653066E+04</pdfrwt>
<pdfrwt beam="2">  1       -2 0.42954854E-01 0.14653066E+04</pdfrwt>
<totfact> 0.36732145E+01</totfact>
</mgrwt>
</event>
<event>
12    1  0.1442183E-007  0.1836672E+04  0.7818608E-02  0.8687037E-01
         -2   -1    0    0    0  501 -0.00000000000E+00  0.00000000000E+00  0.77630897898E+03  0.77630897898E+03  0.00000000000E+00 0.  1.
          2   -1    0    0  501    0  0.00000000000E+00 -0.00000000000E+00 -0.10863476041E+04  0.10863476041E+04  0.00000000000E+00 0. -1.
         23    2    1    2    0    0  0.11044638688E+03  0.12524427006E+03 -0.80213982075E+03  0.82424818782E+03  0.89845709571E+02 0.  0.
        254    2    1    2    0    0 -0.11044638688E+03 -0.12524427006E+03  0.49210119567E+03  0.10384083952E+04  0.89902384668E+03 0.  0.
        -24    2    4    4    0    0 -0.89108789913E+02  0.36413380215E+03  0.75982133718E+02  0.39070490576E+03  0.79644437551E+02 0.  0.
         24    2    4    4    0    0 -0.21337596962E+02 -0.48937807221E+03  0.41611906196E+03  0.64770348945E+03  0.80115828194E+02 0.  0.
         11    1    3    3    0    0  0.11532643663E+03  0.98743183650E+02 -0.75349484333E+03  0.76863832992E+03  0.00000000000E+00 0. -1.
        -11    1    3    3    0    0 -0.48800497563E+01  0.26501086411E+02 -0.48644977422E+02  0.55609857894E+02  0.00000000000E+00 0.  1.
          2    1    6    6  502    0 -0.28300738312E+02 -0.46975520496E+03  0.41397013216E+03  0.62677121400E+03  0.00000000000E+00 0. -1.
          1    1    5    5  503    0 -0.92887073834E+01  0.12775511868E+03 -0.55964192007E+01  0.12821454809E+03  0.00000000000E+00 0. -1.
         -2    1    5    5    0  503 -0.79820082530E+02  0.23637868347E+03  0.81578552919E+02  0.26249035767E+03  0.00000000000E+00 0.  1.
         -1    1    6    6    0  502  0.69631413495E+01 -0.19622867248E+02  0.21489297933E+01  0.20932275456E+02  0.00000000000E+00 0.  1.
<mgrwt>
<rscale>  0 0.18366724E+04</rscale>
<asrwt>0</asrwt>
<pdfrwt beam="1">  1        2 0.16713040E+00 0.18366724E+04</pdfrwt>
<pdfrwt beam="2">  1       -2 0.11943215E+00 0.18366724E+04</pdfrwt>
<totfact> 0.11236713E+01</totfact>
</mgrwt>
</event>
<event>
12    1  0.1442183E-007  0.2781151E+04  0.7818608E-02  0.8309144E-01
         -2   -1    0    0    0  501 -0.00000000000E+00  0.00000000000E+00  0.13883494213E+04  0.13883494213E+04  0.00000000000E+00 0.  1.
          2   -1    0    0  501    0  0.00000000000E+00 -0.00000000000E+00 -0.13928046775E+04  0.13928046775E+04  0.00000000000E+00 0. -1.
         23    2    1    2    0    0 -0.82639968865E+02 -0.23099224662E+01  0.12319116679E+04  0.12377276788E+04  0.86768364935E+02 0.  0.
        254    2    1    2    0    0  0.82639968865E+02  0.23099224662E+01 -0.12363669240E+04  0.15434264201E+04  0.92017783234E+03 0.  0.
        -24    2    4    4    0    0 -0.37306945690E+03 -0.56303683653E+02 -0.27148634704E+03  0.47177468498E+03  0.80719218885E+02 0.  0.
         24    2    4    4    0    0  0.45570942577E+03  0.58613606119E+02 -0.96488057698E+03  0.10716517351E+04  0.79600740583E+02 0.  0.
         11    1    3    3    0    0  0.52230889150E+01  0.23686217877E+02  0.15059742089E+03  0.15253819441E+03  0.00000000000E+00 0. -1.
        -11    1    3    3    0    0 -0.87863057780E+02 -0.25996140343E+02  0.10813142470E+04  0.10851894843E+04  0.00000000000E+00 0.  1.
          2    1    6    6  502    0  0.43847827966E+03  0.40702013260E+02 -0.89469969985E+03  0.99719978366E+03  0.00000000000E+00 0. -1.
          3    1    5    5  503    0 -0.25175720726E+03 -0.15024587456E+01 -0.16160169360E+03  0.29916392858E+03  0.00000000000E+00 0. -1.
         -4    1    5    5    0  503 -0.12131224964E+03 -0.54801224907E+02 -0.10988465344E+03  0.17261075640E+03  0.00000000000E+00 0.  1.
         -1    1    6    6    0  502  0.17231146103E+02  0.17911592859E+02 -0.70180877127E+02  0.74451951412E+02  0.00000000000E+00 0.  1.
<mgrwt>
<rscale>  0 0.27811505E+04</rscale>
<asrwt>0</asrwt>
<pdfrwt beam="1">  1        2 0.21427764E+00 0.27811505E+04</pdfrwt>
<pdfrwt beam="2">  1       -2 0.21359222E+00 0.27811505E+04</pdfrwt>
<totfact> 0.13824763E+00</totfact>
</mgrwt>
</event>
<event>
12    1  0.2519041E-007  0.1759638E+04  0.7818608E-02  0.8728063E-01
          1   -1    0    0  501    0  0.00000000000E+00  0.00000000000E+00  0.16623574405E+04  0.16623574405E+04  0.00000000000E+00 0. -1.
         -1   -1    0    0    0  501 -0.00000000000E+00 -0.00000000000E+00 -0.46565287535E+03  0.46565287535E+03  0.00000000000E+00 0.  1.
         23    2    1    2    0    0  0.32007016526E+03 -0.17519268618E+03  0.11525743040E+04  0.12124973261E+04  0.92654474708E+02 0.  0.
        254    2    1    2    0    0 -0.32007016526E+03  0.17519268618E+03  0.44130261158E+02  0.91551298972E+03  0.83849816124E+03 0.  0.
        -24    2    4    4    0    0  0.11408624526E+03 -0.13058950553E+03 -0.24047205252E+03  0.30792252478E+03  0.83187636794E+02 0.  0.
         24    2    4    4    0    0 -0.43415641052E+03  0.30578219171E+03  0.28460231367E+03  0.60759046494E+03  0.78569450624E+02 0.  0.
         13    1    3    3    0    0  0.12796262456E+01  0.69488328420E+01  0.90803284372E+01  0.11505480682E+02  0.00000000000E+00 0.  1.
        -13    1    3    3    0    0  0.31879053902E+03 -0.18214151902E+03  0.11434939756E+04  0.12009918455E+04  0.00000000000E+00 0. -1.
          2    1    6    6  502    0 -0.38635576787E+03  0.24894384395E+03  0.22181167379E+03  0.51033737413E+03  0.00000000000E+00 0. -1.
          1    1    5    5  503    0  0.12165165788E+03 -0.10285036758E+03 -0.22373443063E+03  0.27465327128E+03  0.00000000000E+00 0. -1.
         -2    1    5    5    0  503 -0.75654126199E+01 -0.27739137944E+02 -0.16737621886E+02  0.33269253499E+02  0.00000000000E+00 0.  1.
         -1    1    6    6    0  502 -0.47800642647E+02  0.56838347756E+02  0.62790639886E+02  0.97253090801E+02  0.00000000000E+00 0.  1.
<mgrwt>
<rscale>  0 0.17596381E+04</rscale>
<asrwt>0</asrwt>
<pdfrwt beam="1">  1        1 0.25574730E+00 0.17596381E+04</pdfrwt>
<pdfrwt beam="2">  1       -1 0.71638905E-01 0.17596381E+04</pdfrwt>
<totfact> 0.94177204E+00</totfact>
</mgrwt>
</event>
<event>
12    1  0.1442183E-007  0.1137255E+04  0.7818608E-02  0.9169622E-01
         -1   -1    0    0    0  501 -0.00000000000E+00  0.00000000000E+00  0.47652312061E+03  0.47652312061E+03  0.00000000000E+00 0.  1.
          1   -1    0    0  501    0  0.00000000000E+00 -0.00000000000E+00 -0.67853479106E+03  0.67853479106E+03  0.00000000000E+00 0. -1.
         23    2    1    2    0    0 -0.68855510748E+02  0.12665616628E+03 -0.16612898832E+03  0.23822736367E+03  0.91490820424E+02 0.  0.
        254    2    1    2    0    0  0.68855510748E+02 -0.12665616628E+03 -0.35882682128E+02  0.91683054801E+03  0.90471422066E+03 0.  0.
        -24    2    4    4    0    0  0.43575921759E+03  0.12299964674E+03  0.30755260563E+02  0.46072181766E+03  0.79395833651E+02 0.  0.
         24    2    4    4    0    0 -0.36690370684E+03 -0.24965581302E+03 -0.66637942691E+02  0.45610873035E+03  0.81536515939E+02 0.  0.
         13    1    3    3    0    0 -0.11750495067E+02 -0.13807192051E+02 -0.26463033665E+02  0.32078105265E+02  0.00000000000E+00 0. -1.
        -13    1    3    3    0    0 -0.57105015681E+02  0.14046335833E+03 -0.13966595466E+03  0.20614925840E+03  0.00000000000E+00 0.  1.
          4    1    6    6  502    0 -0.36225736470E+03 -0.25076194643E+03 -0.74572209766E+02  0.44684781137E+03  0.00000000000E+00 0. -1.
          3    1    5    5  503    0  0.34853925284E+03  0.12668955461E+03  0.39688913978E+02  0.37296791271E+03  0.00000000000E+00 0. -1.
         -4    1    5    5    0  503  0.87219964748E+02 -0.36899078615E+01 -0.89336534146E+01  0.87753904950E+02  0.00000000000E+00 0.  1.
         -3    1    6    6    0  502 -0.46463421424E+01  0.11061334113E+01  0.79342670754E+01  0.92609189853E+01  0.00000000000E+00 0.  1.
<mgrwt>
<rscale>  0 0.11372555E+04</rscale>
<asrwt>0</asrwt>
<pdfrwt beam="1">  1        1 0.10438997E+00 0.11372555E+04</pdfrwt>
<pdfrwt beam="2">  1       -1 0.73311249E-01 0.11372555E+04</pdfrwt>
<totfact> 0.53254440E+01</totfact>
</mgrwt>
</event>
<event>
12    1  0.1442183E-007  0.1685415E+04  0.7818608E-02  0.8769727E-01
          4   -1    0    0  501    0  0.00000000000E+00  0.00000000000E+00  0.51387674834E+03  0.51387674834E+03  0.00000000000E+00 0. -1.
         -4   -1    0    0    0  501 -0.00000000000E+00 -0.00000000000E+00 -0.13819572156E+04  0.13819572156E+04  0.00000000000E+00 0.  1.
         23    2    1    2    0    0 -0.50196374468E+03  0.13315830221E+03 -0.66499937493E+03  0.84848392171E+03  0.89454247154E+02 0.  0.
        254    2    1    2    0    0  0.50196374468E+03 -0.13315830221E+03 -0.20308109233E+03  0.10473500422E+04  0.88656722614E+03 0.  0.
        -24    2    4    4    0    0  0.37788490431E+03 -0.16341316338E+03 -0.53660553668E+03  0.68105747421E+03  0.79955727198E+02 0.  0.
         24    2    4    4    0    0  0.12407884037E+03  0.30254861170E+02  0.33352444435E+03  0.36629256801E+03  0.81368145772E+02 0.  0.
         13    1    3    3    0    0 -0.38409001320E+02  0.36646645168E+02 -0.57580082778E+02  0.78317902917E+02  0.00000000000E+00 0. -1.
        -13    1    3    3    0    0 -0.46355474336E+03  0.96511657038E+02 -0.60741929215E+03  0.77016601880E+03  0.00000000000E+00 0.  1.
          4    1    6    6  502    0  0.82623406963E+02  0.58460135436E+02  0.22849978084E+03  0.24991271408E+03  0.00000000000E+00 0. -1.
          3    1    5    5  503    0  0.30253755124E+03 -0.15190140013E+03 -0.39481872206E+03  0.52008155952E+03  0.00000000000E+00 0. -1.
         -4    1    5    5    0  503  0.75347353077E+02 -0.11511763244E+02 -0.14178681462E+03  0.16097591469E+03  0.00000000000E+00 0.  1.
         -3    1    6    6    0  502  0.41455433407E+02 -0.28205274267E+02  0.10502466351E+03  0.11637985393E+03  0.00000000000E+00 0.  1.
<mgrwt>
<rscale>  0 0.16854147E+04</rscale>
<asrwt>0</asrwt>
<pdfrwt beam="1">  1        4 0.79057962E-01 0.16854147E+04</pdfrwt>
<pdfrwt beam="2">  1       -4 0.21260880E+00 0.16854147E+04</pdfrwt>
<totfact> 0.29573738E-01</totfact>
</mgrwt>
</event>
<event>
12    1  0.1442183E-007  0.2000920E+04  0.7818608E-02  0.8606191E-01
          1   -1    0    0  501    0  0.00000000000E+00  0.00000000000E+00  0.12964683328E+04  0.12964683328E+04  0.00000000000E+00 0. -1.
         -1   -1    0    0    0  501 -0.00000000000E+00 -0.00000000000E+00 -0.77203570386E+03  0.77203570386E+03  0.00000000000E+00 0.  1.
         23    2    1    2    0    0 -0.64769162368E+03  0.39933334651E+03  0.46225718845E+03  0.89493159655E+03  0.90825619860E+02 0.  0.
        254    2    1    2    0    0  0.64769162368E+03 -0.39933334651E+03  0.62175440457E+02  0.11735724401E+04  0.89131079073E+03 0.  0.
        -24    2    4    4    0    0  0.48047537623E+03 -0.58174776526E+03 -0.21987277902E+03  0.78991324264E+03  0.79572874771E+02 0.  0.
         24    2    4    4    0    0  0.16721624745E+03  0.18241441876E+03  0.28204821947E+03  0.38365919742E+03  0.80043038903E+02 0.  0.
         13    1    3    3    0    0 -0.18732064943E+03  0.11567800511E+03  0.18328901643E+03  0.28647040006E+03  0.00000000000E+00 0.  1.
        -13    1    3    3    0    0 -0.46037097426E+03  0.28365534140E+03  0.27896817202E+03  0.60846119649E+03  0.00000000000E+00 0. -1.
          2    1    6    6  502    0  0.27466264521E+02  0.85072618961E+02  0.10702021212E+03  0.13944558790E+03  0.00000000000E+00 0. -1.
          3    1    5    5  503    0  0.41319491323E+02 -0.89977090282E+02 -0.20476713726E+02  0.10110624582E+03  0.00000000000E+00 0. -1.
         -4    1    5    5    0  503  0.43915588491E+03 -0.49177067498E+03 -0.19939606529E+03  0.68880699682E+03  0.00000000000E+00 0.  1.
         -3    1    6    6    0  502  0.13974998293E+03  0.97341799796E+02  0.17502800736E+03  0.24421360952E+03  0.00000000000E+00 0.  1.
<mgrwt>
<rscale>  0 0.20009196E+04</rscale>
<asrwt>0</asrwt>
<pdfrwt beam="1">  1        1 0.19945667E+00 0.20009196E+04</pdfrwt>
<pdfrwt beam="2">  1       -1 0.11877472E+00 0.20009196E+04</pdfrwt>
<totfact> 0.53580958E+00</totfact>
</mgrwt>
</event>
<event>
12    1  0.1521301E-007  0.1721879E+04  0.7818608E-02  0.8748983E-01
         -1   -1    0    0    0  501 -0.00000000000E+00  0.00000000000E+00  0.39712103540E+03  0.39712103540E+03  0.00000000000E+00 0.  1.
          1   -1    0    0  501    0  0.00000000000E+00 -0.00000000000E+00 -0.18664760461E+04  0.18664760461E+04  0.00000000000E+00 0. -1.
         23    2    1    2    0    0 -0.35330427201E+03 -0.33592113963E+03 -0.10421332061E+04  0.11539269672E+04  0.88537594718E+02 0.  0.
        254    2    1    2    0    0  0.35330427201E+03  0.33592113963E+03 -0.42722180453E+03  0.11096701142E+04  0.90065663352E+03 0.  0.
        -24    2    4    4    0    0 -0.23946350643E+03  0.11887373514E+03  0.86334083468E+02  0.29208707080E+03  0.79922131746E+02 0.  0.
         24    2    4    4    0    0  0.59276777844E+03  0.21704740449E+03 -0.51355588800E+03  0.81758304344E+03  0.78861700893E+02 0.  0.
         11    1    3    3    0    0 -0.24141896914E+03 -0.26813089508E+03 -0.82473915057E+03  0.90020662186E+03  0.00000000000E+00 0. -1.
        -11    1    3    3    0    0 -0.11188530288E+03 -0.67790244558E+02 -0.21739405556E+03  0.25372034536E+03  0.00000000000E+00 0.  1.
          4    1    6    6  502    0  0.41791814842E+03  0.11776135122E+03 -0.33054852856E+03  0.54569739266E+03  0.00000000000E+00 0. -1.
          3    1    5    5  503    0 -0.22313043761E+03  0.11908922462E+03  0.58163712113E+02  0.25952351149E+03  0.00000000000E+00 0. -1.
         -4    1    5    5    0  503 -0.16333068822E+02 -0.21548948217E+00  0.28170371355E+02  0.32563559313E+02  0.00000000000E+00 0.  1.
         -3    1    6    6    0  502  0.17484963002E+03  0.99286053272E+02 -0.18300735943E+03  0.27188565078E+03  0.00000000000E+00 0.  1.
<mgrwt>
<rscale>  0 0.17218791E+04</rscale>
<asrwt>0</asrwt>
<pdfrwt beam="1">  1        1 0.28715016E+00 0.17218791E+04</pdfrwt>
<pdfrwt beam="2">  1       -1 0.61095545E-01 0.17218791E+04</pdfrwt>
<totfact> 0.94765201E+00</totfact>
</mgrwt>
</event>
<event>
12    1  0.1442183E-007  0.1930520E+04  0.7818608E-02  0.8639812E-01
         -2   -1    0    0    0  501 -0.00000000000E+00  0.00000000000E+00  0.60906240604E+03  0.60906240604E+03  0.00000000000E+00 0.  1.
          2   -1    0    0  501    0  0.00000000000E+00 -0.00000000000E+00 -0.15297724976E+04  0.15297724976E+04  0.00000000000E+00 0. -1.
         23    2    1    2    0    0 -0.61246624649E+03  0.24837197338E+03 -0.75570320608E+03  0.10083598590E+04  0.94333076048E+02 0.  0.
        254    2    1    2    0    0  0.61246624649E+03 -0.24837197338E+03 -0.16500688549E+03  0.11304750447E+04  0.90218790401E+03 0.  0.
        -24    2    4    4    0    0  0.21130855533E+03 -0.47446885645E+03 -0.34608155120E+03  0.62941117657E+03  0.81326427555E+02 0.  0.
         24    2    4    4    0    0  0.40115769115E+03  0.22609688307E+03  0.18107466571E+03  0.50106386811E+03  0.78928269073E+02 0.  0.
         11    1    3    3    0    0 -0.27568903052E+03  0.86288899161E+02 -0.26920000754E+03  0.39486562237E+03  0.00000000000E+00 0. -1.
        -11    1    3    3    0    0 -0.33677721596E+03  0.16208307422E+03 -0.48650319854E+03  0.61349423659E+03  0.00000000000E+00 0.  1.
          2    1    6    6  502    0  0.17068770698E+03  0.52237569032E+02  0.67925402721E+02  0.19098931192E+03  0.00000000000E+00 0. -1.
          3    1    5    5  503    0  0.77937001136E+00 -0.67678082994E+02 -0.44965628084E+02  0.81257849124E+02  0.00000000000E+00 0. -1.
         -4    1    5    5    0  503  0.21052918532E+03 -0.40679077345E+03 -0.30111592311E+03  0.54815332745E+03  0.00000000000E+00 0.  1.
         -3    1    6    6    0  502  0.23046998417E+03  0.17385931403E+03  0.11314926299E+03  0.31007455618E+03  0.00000000000E+00 0.  1.
<mgrwt>
<rscale>  0 0.19305201E+04</rscale>
<asrwt>0</asrwt>
<pdfrwt beam="1">  1        2 0.23534961E+00 0.19305201E+04</pdfrwt>
<pdfrwt beam="2">  1       -2 0.93701910E-01 0.19305201E+04</pdfrwt>
<totfact> 0.10981652E+01</totfact>
</mgrwt>
</event>
<event>
12    1  0.1442183E-007  0.1906928E+04  0.7818608E-02  0.8651415E-01
         -2   -1    0    0    0  501 -0.00000000000E+00  0.00000000000E+00  0.65736601179E+03  0.65736601179E+03  0.00000000000E+00 0.  1.
          2   -1    0    0  501    0  0.00000000000E+00 -0.00000000000E+00 -0.13829342618E+04  0.13829342618E+04  0.00000000000E+00 0. -1.
         23    2    1    2    0    0  0.26219423513E+03  0.95521647227E+02  0.42164755209E+03  0.51359727717E+03  0.90140462080E+02 0.  0.
        254    2    1    2    0    0 -0.26219423513E+03 -0.95521647227E+02 -0.11472158021E+04  0.15267029964E+04  0.96790895264E+03 0.  0.
        -24    2    4    4    0    0 -0.51121606879E+03  0.18197216151E+03 -0.95064048521E+03  0.10975328126E+04  0.80032531332E+02 0.  0.
         24    2    4    4    0    0  0.24902183366E+03 -0.27749380874E+03 -0.19657531685E+03  0.42917018377E+03  0.80811533282E+02 0.  0.
         13    1    3    3    0    0  0.22745686415E+03  0.78813049333E+02  0.40599042955E+03  0.47199189684E+03  0.00000000000E+00 0.  1.
        -13    1    3    3    0    0  0.34737370976E+02  0.16708597894E+02  0.15657122543E+02  0.41605380328E+02  0.00000000000E+00 0. -1.
          2    1    6    6  502    0  0.23342173488E+02 -0.68479821414E+02 -0.22691968925E+02  0.75823930640E+02  0.00000000000E+00 0. -1.
          1    1    5    5  503    0 -0.17569741594E+03  0.71885142671E+02 -0.40963600851E+03  0.45148501102E+03  0.00000000000E+00 0. -1.
         -4    1    5    5    0  503 -0.33551865285E+03  0.11008701884E+03 -0.54100447669E+03  0.64604780158E+03  0.00000000000E+00 0.  1.
         -1    1    6    6    0  502  0.22567966017E+03 -0.20901398733E+03 -0.17388334793E+03  0.35334625313E+03  0.00000000000E+00 0.  1.
<mgrwt>
<rscale>  0 0.19069284E+04</rscale>
<asrwt>0</asrwt>
<pdfrwt beam="1">  1        2 0.21275912E+00 0.19069284E+04</pdfrwt>
<pdfrwt beam="2">  1       -2 0.10113323E+00 0.19069284E+04</pdfrwt>
<totfact> 0.11142391E+01</totfact>
</mgrwt>
</event>
<event>
12    1  0.1442183E-007  0.1593616E+04  0.7818608E-02  0.8824480E-01
          1   -1    0    0  501    0  0.00000000000E+00  0.00000000000E+00  0.41906327975E+03  0.41906327975E+03  0.00000000000E+00 0. -1.
         -1   -1    0    0    0  501 -0.00000000000E+00 -0.00000000000E+00 -0.15150525247E+04  0.15150525247E+04  0.00000000000E+00 0.  1.
         23    2    1    2    0    0  0.50640851390E+03  0.13573656956E+03 -0.52329955076E+03  0.74629401947E+03  0.90765325957E+02 0.  0.
        254    2    1    2    0    0 -0.50640851390E+03 -0.13573656956E+03 -0.57268969421E+03  0.11878217850E+04  0.89892886694E+03 0.  0.
        -24    2    4    4    0    0 -0.57556969826E+03  0.18326161705E+03 -0.59447416676E+03  0.85131970154E+03  0.80500940573E+02 0.  0.
         24    2    4    4    0    0  0.69161184366E+02 -0.31899818662E+03  0.21784472550E+02  0.33650208347E+03  0.78841464014E+02 0.  0.
         13    1    3    3    0    0  0.98683699794E+02  0.20563779357E-01 -0.65689565088E+02  0.11854784684E+03  0.00000000000E+00 0. -1.
        -13    1    3    3    0    0  0.40772481410E+03  0.13571600578E+03 -0.45760998568E+03  0.62774617263E+03  0.00000000000E+00 0.  1.
          4    1    6    6  502    0 -0.87967388229E+01 -0.11293115533E+03  0.25678241834E+02  0.11614732266E+03  0.00000000000E+00 0. -1.
          1    1    5    5  503    0 -0.15765385272E+03  0.50072051141E+02 -0.11487851541E+03  0.20139270316E+03  0.00000000000E+00 0. -1.
         -2    1    5    5    0  503 -0.41791584554E+03  0.13318956591E+03 -0.47959565135E+03  0.64992699837E+03  0.00000000000E+00 0.  1.
         -3    1    6    6    0  502  0.77957923189E+02 -0.20606703129E+03 -0.38937692835E+01  0.22035476081E+03  0.00000000000E+00 0.  1.
<mgrwt>
<rscale>  0 0.15936159E+04</rscale>
<asrwt>0</asrwt>
<pdfrwt beam="1">  1        1 0.64471275E-01 0.15936159E+04</pdfrwt>
<pdfrwt beam="2">  1       -1 0.23308500E+00 0.15936159E+04</pdfrwt>
<totfact> 0.48738368E+00</totfact>
</mgrwt>
</event>
<event>
12    1  0.1442183E-007  0.1237090E+04  0.7818608E-02  0.9080997E-01
         -1   -1    0    0    0  501 -0.00000000000E+00  0.00000000000E+00  0.63757338507E+03  0.63757338507E+03  0.00000000000E+00 0. -1.
          1   -1    0    0  501    0  0.00000000000E+00 -0.00000000000E+00 -0.60008445935E+03  0.60008445935E+03  0.00000000000E+00 0.  1.
         23    2    1    2    0    0  0.12418435961E+03  0.32518468580E+02  0.25917984854E+03  0.30312629366E+03  0.90731196654E+02 0.  0.
        254    2    1    2    0    0 -0.12418435961E+03 -0.32518468580E+02 -0.22169092283E+03  0.93453155076E+03  0.89873419215E+03 0.  0.
        -24    2    4    4    0    0 -0.48726020255E+03 -0.10294868658E+03 -0.23370700915E+03  0.55592197865E+03  0.80058373422E+02 0.  0.
         24    2    4    4    0    0  0.36307584294E+03  0.70430218001E+02  0.12016086329E+02  0.37860957211E+03  0.80102050094E+02 0.  0.
         13    1    3    3    0    0  0.33420880272E+02 -0.24439955236E+02  0.33354428941E+02  0.53167514330E+02  0.00000000000E+00 0.  1.
        -13    1    3    3    0    0  0.90763479341E+02  0.56958423816E+02  0.22582541960E+03  0.24995877933E+03  0.00000000000E+00 0. -1.
          4    1    6    6  502    0  0.27752246112E+03  0.83832916162E+02 -0.68182470867E+01  0.28998821140E+03  0.00000000000E+00 0. -1.
          1    1    5    5  503    0 -0.10202517701E+03 -0.55567537226E+02 -0.58449437077E+02  0.13005085402E+03  0.00000000000E+00 0. -1.
         -2    1    5    5    0  503 -0.38523502555E+03 -0.47381149356E+02 -0.17525757208E+03  0.42587112463E+03  0.00000000000E+00 0.  1.
         -3    1    6    6    0  502  0.85553381818E+02 -0.13402698161E+02  0.18834333416E+02  0.88621360708E+02  0.00000000000E+00 0.  1.
<mgrwt>
<rscale>  0 0.12370899E+04</rscale>
<asrwt>0</asrwt>
<pdfrwt beam="1">  1        1 0.92320686E-01 0.12370899E+04</pdfrwt>
<pdfrwt beam="2">  1       -1 0.98088214E-01 0.12370899E+04</pdfrwt>
<totfact> 0.33683718E+01</totfact>
</mgrwt>
</event>
<event>
12    1  0.1442183E-007  0.2132769E+04  0.7818608E-02  0.8546944E-01
          2   -1    0    0  501    0  0.00000000000E+00  0.00000000000E+00  0.15127022899E+04  0.15127022899E+04  0.00000000000E+00 0. -1.
         -2   -1    0    0    0  501 -0.00000000000E+00 -0.00000000000E+00 -0.75175113627E+03  0.75175113627E+03  0.00000000000E+00 0.  1.
         23    2    1    2    0    0 -0.78560645392E+03  0.37932242193E+03  0.34293894665E+03  0.94286718029E+03  0.10162872784E+03 0.  0.
        254    2    1    2    0    0  0.78560645392E+03 -0.37932242193E+03  0.41801220693E+03  0.13215862458E+04  0.90044044768E+03 0.  0.
        -24    2    4    4    0    0  0.96734290108E+03 -0.23073216454E+03  0.39015070495E+03  0.10712252784E+04  0.79475810993E+02 0.  0.
         24    2    4    4    0    0 -0.18173644715E+03 -0.14859025739E+03  0.27861501981E+02  0.25036096742E+03  0.82444829420E+02 0.  0.
         11    1    3    3    0    0 -0.35638619081E+02  0.31241545823E+02  0.40951202867E+02  0.62635025119E+02  0.00000000000E+00 0.  1.
        -11    1    3    3    0    0 -0.74996783484E+03  0.34808087611E+03  0.30198774379E+03  0.88023215517E+03  0.00000000000E+00 0. -1.
          4    1    6    6  502    0 -0.83789344659E+02 -0.11050801792E+03  0.40597730721E+02  0.14450208318E+03  0.00000000000E+00 0. -1.
          3    1    5    5  503    0  0.62692865693E+03 -0.13524265097E+03  0.21316707302E+03  0.67584785014E+03  0.00000000000E+00 0. -1.
         -4    1    5    5    0  503  0.34041424414E+03 -0.95489513570E+02  0.17698363193E+03  0.39537742827E+03  0.00000000000E+00 0.  1.
         -3    1    6    6    0  502 -0.97947102496E+02 -0.38082239472E+02 -0.12736228739E+02  0.10585888424E+03  0.00000000000E+00 0.  1.
<mgrwt>
<rscale>  0 0.21327688E+04</rscale>
<asrwt>0</asrwt>
<pdfrwt beam="1">  1        2 0.23272343E+00 0.21327688E+04</pdfrwt>
<pdfrwt beam="2">  1       -2 0.11565402E+00 0.21327688E+04</pdfrwt>
<totfact> 0.66744092E+00</totfact>
</mgrwt>
</event>
<event>
12    1  0.1442183E-007  0.1559979E+04  0.7818608E-02  0.8845519E-01
          2   -1    0    0  501    0  0.00000000000E+00  0.00000000000E+00  0.75743573733E+03  0.75743573733E+03  0.00000000000E+00 0. -1.
         -2   -1    0    0    0  501 -0.00000000000E+00 -0.00000000000E+00 -0.80321511936E+03  0.80321511936E+03  0.00000000000E+00 0.  1.
         23    2    1    2    0    0  0.31951720126E+03  0.36221892344E+03 -0.11935862690E+03  0.50559286245E+03  0.89910346145E+02 0.  0.
        254    2    1    2    0    0 -0.31951720126E+03 -0.36221892344E+03  0.73579244874E+02  0.10550579942E+04  0.93511479270E+03 0.  0.
        -24    2    4    4    0    0 -0.20628259388E+03 -0.63995101626E+03 -0.12246823332E+03  0.68819008611E+03  0.80729887308E+02 0.  0.
         24    2    4    4    0    0 -0.11323460738E+03  0.27773209282E+03  0.19604747820E+03  0.36686790812E+03  0.78741708234E+02 0.  0.
         13    1    3    3    0    0  0.17360884171E+02  0.86218829739E+01 -0.23923251838E+02  0.30790569071E+02  0.00000000000E+00 0. -1.
        -13    1    3    3    0    0  0.30215631709E+03  0.35359704047E+03 -0.95435375065E+02  0.47480229338E+03  0.00000000000E+00 0.  1.
          4    1    6    6  502    0 -0.77059932180E+01  0.15619020076E+02 -0.71554521848E+01  0.18829142720E+02  0.00000000000E+00 0. -1.
          3    1    5    5  503    0 -0.69073547869E+02 -0.11107435411E+03 -0.21568151626E+02  0.13256640721E+03  0.00000000000E+00 0. -1.
         -2    1    5    5    0  503 -0.13720904601E+03 -0.52887666214E+03 -0.10090008170E+03  0.55562367890E+03  0.00000000000E+00 0.  1.
         -3    1    6    6    0  502 -0.10552861416E+03  0.26211307274E+03  0.20320293038E+03  0.34803876540E+03  0.00000000000E+00 0.  1.
<mgrwt>
<rscale>  0 0.15599793E+04</rscale>
<asrwt>0</asrwt>
<pdfrwt beam="1">  1        2 0.11652857E+00 0.15599793E+04</pdfrwt>
<pdfrwt beam="2">  1       -2 0.12357156E+00 0.15599793E+04</pdfrwt>
<totfact> 0.17570880E+01</totfact>
</mgrwt>
</event>
<event>
12    1  0.1442183E-007  0.1634073E+04  0.7818608E-02  0.8799885E-01
         -1   -1    0    0    0  501 -0.00000000000E+00  0.00000000000E+00  0.10204375801E+04  0.10204375801E+04  0.00000000000E+00 0.  1.
          1   -1    0    0  501    0  0.00000000000E+00 -0.00000000000E+00 -0.65417896476E+03  0.65417896476E+03  0.00000000000E+00 0. -1.
         23    2    1    2    0    0  0.29912149780E+03  0.10459947980E+03  0.56274866006E+03  0.65243930427E+03  0.92608151564E+02 0.  0.
        254    2    1    2    0    0 -0.29912149780E+03 -0.10459947980E+03 -0.19649004475E+03  0.10221772406E+04  0.95174747270E+03 0.  0.
        -24    2    4    4    0    0  0.92800587453E+02 -0.45314122281E+03 -0.13292919932E+03  0.48778286422E+03  0.79454601839E+02 0.  0.
         24    2    4    4    0    0 -0.39192208526E+03  0.34854174300E+03 -0.63560845430E+02  0.53439437634E+03  0.80331194848E+02 0.  0.
         11    1    3    3    0    0  0.87261065740E+02  0.64836404195E+02  0.24985633683E+03  0.27248200300E+03  0.00000000000E+00 0. -1.
        -11    1    3    3    0    0  0.21186043206E+03  0.39763075609E+02  0.31289232323E+03  0.37995730127E+03  0.00000000000E+00 0.  1.
          4    1    6    6  502    0 -0.22543497676E+03  0.25148522222E+03 -0.34298026796E+02  0.33947326902E+03  0.00000000000E+00 0. -1.
          1    1    5    5  503    0  0.15240324001E+02 -0.26879376290E+03 -0.71379667242E+02  0.27852721832E+03  0.00000000000E+00 0. -1.
         -2    1    5    5    0  503  0.77560263452E+02 -0.18434745991E+03 -0.61549532074E+02  0.20925564590E+03  0.00000000000E+00 0.  1.
         -3    1    6    6    0  502 -0.16648710850E+03  0.97056520785E+02 -0.29262818634E+02  0.19492110732E+03  0.00000000000E+00 0.  1.
<mgrwt>
<rscale>  0 0.16340732E+04</rscale>
<asrwt>0</asrwt>
<pdfrwt beam="1">  1        1 0.10064292E+00 0.16340732E+04</pdfrwt>
<pdfrwt beam="2">  1       -1 0.15699040E+00 0.16340732E+04</pdfrwt>
<totfact> 0.88933817E+00</totfact>
</mgrwt>
</event>
<event>
12    1  0.1442183E-007  0.1413311E+04  0.7818608E-02  0.8944239E-01
         -2   -1    0    0    0  501 -0.00000000000E+00  0.00000000000E+00  0.47904581695E+03  0.47904581695E+03  0.00000000000E+00 0.  1.
          2   -1    0    0  501    0  0.00000000000E+00 -0.00000000000E+00 -0.10424101275E+04  0.10424101275E+04  0.00000000000E+00 0. -1.
         23    2    1    2    0    0  0.28913125617E+03  0.11339118418E+02  0.14554609543E+03  0.33678320337E+03  0.92270262152E+02 0.  0.
        254    2    1    2    0    0 -0.28913125617E+03 -0.11339118418E+02 -0.70891040600E+03  0.11846727411E+04  0.90397460189E+03 0.  0.
        -24    2    4    4    0    0 -0.31258241210E+03  0.31440548090E+03 -0.71921202547E+03  0.84851790403E+03  0.78473722396E+02 0.  0.
         24    2    4    4    0    0  0.23451155931E+02 -0.32574459931E+03  0.10301619466E+02  0.33615483707E+03  0.78958536120E+02 0.  0.
         11    1    3    3    0    0  0.27811359568E+03  0.30511733566E+02  0.12441776028E+03  0.30619914608E+03  0.00000000000E+00 0.  1.
        -11    1    3    3    0    0  0.11017660491E+02 -0.19172615148E+02  0.21128335146E+02  0.30584057291E+02  0.00000000000E+00 0. -1.
          2    1    6    6  502    0 -0.25955018765E+02 -0.61414301593E+02 -0.46173578292E+01  0.66833370651E+02  0.00000000000E+00 0. -1.
          3    1    5    5  503    0 -0.84719920749E+02  0.80000037901E+02 -0.25912096800E+03  0.28411467243E+03  0.00000000000E+00 0. -1.
         -4    1    5    5    0  503 -0.22786249135E+03  0.23440544299E+03 -0.46009105747E+03  0.56440323160E+03  0.00000000000E+00 0.  1.
         -1    1    6    6    0  502  0.49406174696E+02 -0.26433029772E+03  0.14918977295E+02  0.26932146642E+03  0.00000000000E+00 0.  1.
<mgrwt>
<rscale>  0 0.14133113E+04</rscale>
<asrwt>0</asrwt>
<pdfrwt beam="1">  1        2 0.16037079E+00 0.14133113E+04</pdfrwt>
<pdfrwt beam="2">  1       -2 0.73699356E-01 0.14133113E+04</pdfrwt>
<totfact> 0.38209442E+01</totfact>
</mgrwt>
</event>
<event>
12    1  0.1442183E-007  0.1046916E+04  0.7818608E-02  0.9258534E-01
          2   -1    0    0  501    0  0.00000000000E+00  0.00000000000E+00  0.22749858088E+04  0.22749858088E+04  0.00000000000E+00 0. -1.
         -2   -1    0    0    0  501 -0.00000000000E+00 -0.00000000000E+00 -0.12044389132E+03  0.12044389132E+03  0.00000000000E+00 0.  1.
         23    2    1    2    0    0  0.35063278307E+02  0.16072828198E+03  0.79400129922E+03  0.81598404909E+03  0.91262758529E+02 0.  0.
        254    2    1    2    0    0 -0.35063278307E+02 -0.16072828198E+03  0.13605406183E+04  0.15794456510E+04  0.78518454934E+03 0.  0.
        -24    2    4    4    0    0  0.20704451316E+03 -0.22960405758E+03  0.17117443648E+03  0.36113104548E+03  0.74360544795E+02 0.  0.
         24    2    4    4    0    0 -0.24210779147E+03  0.68875775593E+02  0.11893661818E+04  0.12183146055E+04  0.79614751104E+02 0.  0.
         11    1    3    3    0    0  0.36517780067E+02  0.13312535421E+03  0.44570895108E+03  0.46659658943E+03  0.00000000000E+00 0.  1.
        -11    1    3    3    0    0 -0.14545017598E+01  0.27602927778E+02  0.34829234814E+03  0.34938745966E+03  0.00000000000E+00 0. -1.
          2    1    6    6  502    0 -0.10957236429E+02 -0.14682081072E+01  0.11616183269E+02  0.16035971406E+02  0.00000000000E+00 0. -1.
          1    1    5    5  503    0  0.37992584945E+02 -0.90139053035E+02  0.66336942304E+02  0.11819084274E+03  0.00000000000E+00 0. -1.
         -2    1    5    5    0  503  0.16905192821E+03 -0.13946500454E+03  0.10483749418E+03  0.24294020275E+03  0.00000000000E+00 0.  1.
         -1    1    6    6    0  502 -0.23115055504E+03  0.70343983700E+02  0.11777499985E+04  0.12022786341E+04  0.00000000000E+00 0.  1.
<mgrwt>
<rscale>  0 0.10469157E+04</rscale>
<asrwt>0</asrwt>
<pdfrwt beam="1">  1        2 0.34999779E+00 0.10469157E+04</pdfrwt>
<pdfrwt beam="2">  1       -2 0.18529831E-01 0.10469157E+04</pdfrwt>
<totfact> 0.11471568E+02</totfact>
</mgrwt>
</event>
<event>
12    1  0.1442183E-007  0.1268423E+04  0.7818608E-02  0.9054988E-01
          1   -1    0    0  501    0  0.00000000000E+00  0.00000000000E+00  0.15638843855E+04  0.15638843855E+04  0.00000000000E+00 0. -1.
         -1   -1    0    0    0  501 -0.00000000000E+00 -0.00000000000E+00 -0.25719567795E+03  0.25719567795E+03  0.00000000000E+00 0.  1.
         23    2    1    2    0    0 -0.18344252081E+03  0.15718708462E+03  0.66846055536E+03  0.71692298089E+03  0.93702232826E+02 0.  0.
        254    2    1    2    0    0  0.18344252081E+03 -0.15718708462E+03  0.63822815219E+03  0.11041570826E+04  0.86802577768E+03 0.  0.
        -24    2    4    4    0    0 -0.30198850497E+03 -0.24446507615E+03  0.33843314463E+03  0.52133863687E+03  0.79352065643E+02 0.  0.
         24    2    4    4    0    0  0.48543102578E+03  0.87277991537E+02  0.29979500756E+03  0.58281844569E+03  0.80867579891E+02 0.  0.
         11    1    3    3    0    0 -0.47008711582E+02 -0.48266511933E+01  0.11667394131E+03  0.12588059464E+03  0.00000000000E+00 0.  1.
        -11    1    3    3    0    0 -0.13643380922E+03  0.16201373581E+03  0.55178661405E+03  0.59104238624E+03  0.00000000000E+00 0. -1.
          4    1    6    6  502    0  0.17217136215E+03  0.22827904029E+02  0.15073104796E+03  0.22996508423E+03  0.00000000000E+00 0. -1.
          1    1    5    5  503    0 -0.10853243804E+03 -0.42802805660E+02  0.11099360910E+03  0.16103090244E+03  0.00000000000E+00 0. -1.
         -2    1    5    5    0  503 -0.19345606693E+03 -0.20166227049E+03  0.22743953553E+03  0.36030773444E+03  0.00000000000E+00 0.  1.
         -3    1    6    6    0  502  0.31325966363E+03  0.64450087508E+02  0.14906395960E+03  0.35285336145E+03  0.00000000000E+00 0.  1.
<mgrwt>
<rscale>  0 0.12684231E+04</rscale>
<asrwt>0</asrwt>
<pdfrwt beam="1">  1        1 0.24059759E+00 0.12684231E+04</pdfrwt>
<pdfrwt beam="2">  1       -1 0.39568567E-01 0.12684231E+04</pdfrwt>
<totfact> 0.36152246E+01</totfact>
</mgrwt>
</event>
<event>
12    1  0.1442183E-007  0.1410929E+04  0.7818608E-02  0.8945945E-01
         -1   -1    0    0    0  501 -0.00000000000E+00  0.00000000000E+00  0.19005026279E+03  0.19005026279E+03  0.00000000000E+00 0.  1.
          1   -1    0    0  501    0  0.00000000000E+00 -0.00000000000E+00 -0.26186767223E+04  0.26186767223E+04  0.00000000000E+00 0. -1.
         23    2    1    2    0    0  0.26988163520E+02 -0.36564386955E+03 -0.11005104940E+04  0.11635655477E+04  0.91310656589E+02 0.  0.
        254    2    1    2    0    0 -0.26988163520E+02  0.36564386955E+03 -0.13281159654E+04  0.16451614374E+04  0.89902187793E+03 0.  0.
        -24    2    4    4    0    0  0.22124672256E+03  0.48102687728E+03 -0.12345102835E+04  0.13454913047E+04  0.77422490698E+02 0.  0.
         24    2    4    4    0    0 -0.24823488608E+03 -0.11538300773E+03 -0.93605681933E+02  0.29967013264E+03  0.78143250304E+02 0.  0.
         11    1    3    3    0    0  0.50320455593E+02 -0.26961722728E+03 -0.88395918612E+03  0.92553197688E+03  0.00000000000E+00 0. -1.
        -11    1    3    3    0    0 -0.23332292073E+02 -0.96026642272E+02 -0.21655130790E+03  0.23803357081E+03  0.00000000000E+00 0.  1.
          4    1    6    6  502    0  0.26485458102E+01 -0.12106219788E+02  0.76695514600E+00  0.12416262427E+02  0.00000000000E+00 0. -1.
          3    1    5    5  503    0 -0.35927195628E+01  0.37239948868E+01 -0.36950511827E+01  0.63583940596E+01  0.00000000000E+00 0. -1.
         -4    1    5    5    0  503  0.22483944213E+03  0.47730288239E+03 -0.12308152323E+04  0.13391329107E+04  0.00000000000E+00 0.  1.
         -3    1    6    6    0  502 -0.25088343189E+03 -0.10327678794E+03 -0.94372637079E+02  0.28725387022E+03  0.00000000000E+00 0.  1.
<mgrwt>
<rscale>  0 0.14109291E+04</rscale>
<asrwt>0</asrwt>
<pdfrwt beam="1">  1        1 0.40287331E+00 0.14109291E+04</pdfrwt>
<pdfrwt beam="2">  1       -1 0.29238504E-01 0.14109291E+04</pdfrwt>
<totfact> 0.11693357E+01</totfact>
</mgrwt>
</event>
<event>
12    1  0.1442183E-007  0.2338686E+04  0.7818608E-02  0.8462822E-01
         -2   -1    0    0    0  501 -0.00000000000E+00  0.00000000000E+00  0.13354129564E+04  0.13354129564E+04  0.00000000000E+00 0. -1.
          2   -1    0    0  501    0  0.00000000000E+00 -0.00000000000E+00 -0.10239253924E+04  0.10239253924E+04  0.00000000000E+00 0.  1.
         23    2    1    2    0    0  0.36399612648E+03  0.41521198488E+03 -0.70623163990E+03  0.90124904991E+03  0.92695999375E+02 0.  0.
        254    2    1    2    0    0 -0.36399612648E+03 -0.41521198488E+03  0.10177192039E+04  0.14580892989E+04  0.88621546650E+03 0.  0.
        -24    2    4    4    0    0 -0.59108940727E+03 -0.41624995833E+02  0.55382763125E+03  0.81511196588E+03  0.81013234243E+02 0.  0.
         24    2    4    4    0    0  0.22709328079E+03 -0.37358698904E+03  0.46389157265E+03  0.64297733300E+03  0.84177568386E+02 0.  0.
         11    1    3    3    0    0  0.62016638223E+02  0.53555773514E+02 -0.60284471476E+02  0.10172758620E+03  0.00000000000E+00 0. -1.
        -11    1    3    3    0    0  0.30197948826E+03  0.36165621136E+03 -0.64594716842E+03  0.79952146371E+03  0.00000000000E+00 0.  1.
          2    1    6    6  502    0  0.10102209060E+03 -0.99394030570E+02  0.12256274613E+03  0.18736665349E+03  0.00000000000E+00 0. -1.
          3    1    5    5  503    0 -0.24213391510E+03 -0.37703297461E+02  0.27567019039E+03  0.36884200595E+03  0.00000000000E+00 0. -1.
         -4    1    5    5    0  503 -0.34895549217E+03 -0.39216983723E+01  0.27815744086E+03  0.44626995994E+03  0.00000000000E+00 0.  1.
         -1    1    6    6    0  502  0.12607119019E+03 -0.27419295847E+03  0.34132882651E+03  0.45561067951E+03  0.00000000000E+00 0.  1.
<mgrwt>
<rscale>  0 0.23386862E+04</rscale>
<asrwt>0</asrwt>
<pdfrwt beam="1">  1        2 0.15752698E+00 0.23386862E+04</pdfrwt>
<pdfrwt beam="2">  1       -2 0.20544815E+00 0.23386862E+04</pdfrwt>
<totfact> 0.26922271E+00</totfact>
</mgrwt>
</event>
<event>
12    1  0.1442183E-007  0.1188272E+04  0.7818608E-02  0.9123184E-01
         -2   -1    0    0    0  501 -0.00000000000E+00  0.00000000000E+00  0.92037874272E+03  0.92037874272E+03  0.00000000000E+00 0. -1.
          2   -1    0    0  501    0  0.00000000000E+00 -0.00000000000E+00 -0.38353536127E+03  0.38353536127E+03  0.00000000000E+00 0.  1.
         23    2    1    2    0    0  0.54616399500E+02  0.11549014186E+03 -0.10686065146E+03  0.18929303170E+03  0.89954038588E+02 0.  0.
        254    2    1    2    0    0 -0.54616399500E+02 -0.11549014186E+03  0.64370403291E+03  0.11146210723E+04  0.90094635182E+03 0.  0.
        -24    2    4    4    0    0  0.40208693216E+03  0.41649187797E+02  0.22412900441E+03  0.46985327045E+03  0.84378488229E+02 0.  0.
         24    2    4    4    0    0 -0.45670333166E+03 -0.15713932966E+03  0.41957502851E+03  0.64476780184E+03  0.80072540035E+02 0.  0.
         11    1    3    3    0    0  0.31986257923E+02 -0.41309061081E+01 -0.10147163156E+02  0.33810501346E+02  0.00000000000E+00 0. -1.
        -11    1    3    3    0    0  0.22630141577E+02  0.11962104797E+03 -0.96713488307E+02  0.15548253036E+03  0.00000000000E+00 0.  1.
          2    1    6    6  502    0 -0.41746425775E+03 -0.11775178188E+03  0.36558066679E+03  0.56726635064E+03  0.00000000000E+00 0. -1.
          1    1    5    5  503    0  0.39455042509E+03  0.47376257626E+02  0.20198666735E+03  0.44577254459E+03  0.00000000000E+00 0. -1.
         -2    1    5    5    0  503  0.75365070766E+01 -0.57270698289E+01  0.22142337052E+02  0.24080725859E+02  0.00000000000E+00 0.  1.
         -1    1    6    6    0  502 -0.39239073910E+02 -0.39387547776E+02  0.53994361722E+02  0.77501451205E+02  0.00000000000E+00 0.  1.
<mgrwt>
<rscale>  0 0.11882723E+04</rscale>
<asrwt>0</asrwt>
<pdfrwt beam="1">  1        2 0.59005440E-01 0.11882723E+04</pdfrwt>
<pdfrwt beam="2">  1       -2 0.14159673E+00 0.11882723E+04</pdfrwt>
<totfact> 0.28684712E+01</totfact>
</mgrwt>
</event>
<event>
12    1  0.1442183E-007  0.1435293E+04  0.7818608E-02  0.8928660E-01
         -1   -1    0    0    0  501 -0.00000000000E+00  0.00000000000E+00  0.79045828833E+03  0.79045828833E+03  0.00000000000E+00 0.  1.
          1   -1    0    0  501    0  0.00000000000E+00 -0.00000000000E+00 -0.65154197288E+03  0.65154197288E+03  0.00000000000E+00 0. -1.
         23    2    1    2    0    0 -0.46492561752E+01  0.37206001285E+03  0.27251737486E+03  0.46955081024E+03  0.88102071779E+02 0.  0.
        254    2    1    2    0    0  0.46492561752E+01 -0.37206001285E+03 -0.13360105942E+03  0.97244945097E+03  0.88845845309E+03 0.  0.
        -24    2    4    4    0    0  0.24085787291E+03 -0.44560551214E+03  0.19901751718E+03  0.55027058563E+03  0.81320095108E+02 0.  0.
         24    2    4    4    0    0 -0.23620861673E+03  0.73545499294E+02 -0.33261857659E+03  0.42217886534E+03  0.79977657895E+02 0.  0.
         11    1    3    3    0    0 -0.17364095309E+02  0.27556176450E+03  0.15387020279E+03  0.31608833760E+03  0.00000000000E+00 0.  1.
        -11    1    3    3    0    0  0.12714839133E+02  0.96498248350E+02  0.11864717207E+03  0.15346247264E+03  0.00000000000E+00 0. -1.
          2    1    6    6  502    0 -0.18327728574E+02 -0.13055015054E+02 -0.50945108205E+02  0.55693294953E+02  0.00000000000E+00 0. -1.
          1    1    5    5  503    0 -0.40050744802E+01 -0.99782184315E+01  0.13405000775E+02  0.17184280911E+02  0.00000000000E+00 0. -1.
         -2    1    5    5    0  503  0.24486294739E+03 -0.43562729371E+03  0.18561251640E+03  0.53308630472E+03  0.00000000000E+00 0.  1.
         -1    1    6    6    0  502 -0.21788088816E+03  0.86600514349E+02 -0.28167346839E+03  0.36648557039E+03  0.00000000000E+00 0.  1.
<mgrwt>
<rscale>  0 0.14352934E+04</rscale>
<asrwt>0</asrwt>
<pdfrwt beam="1">  1        1 0.10023723E+00 0.14352934E+04</pdfrwt>
<pdfrwt beam="2">  1       -1 0.12160897E+00 0.14352934E+04</pdfrwt>
<totfact> 0.17686463E+01</totfact>
</mgrwt>
</event>
<event>
12    1  0.1442183E-007  0.1247642E+04  0.7818608E-02  0.9072148E-01
         -2   -1    0    0    0  501 -0.00000000000E+00  0.00000000000E+00  0.46554912238E+03  0.46554912238E+03  0.00000000000E+00 0.  1.
          2   -1    0    0  501    0  0.00000000000E+00 -0.00000000000E+00 -0.83590091664E+03  0.83590091664E+03  0.00000000000E+00 0. -1.
         23    2    1    2    0    0 -0.38241984025E+02 -0.28301897819E+03 -0.57597146101E+02  0.30572211718E+03  0.92662777507E+02 0.  0.
        254    2    1    2    0    0  0.38241984025E+02  0.28301897819E+03 -0.31275464815E+03  0.99572792184E+03  0.90116393239E+03 0.  0.
        -24    2    4    4    0    0  0.17760919873E+03 -0.13063831691E+03  0.20635084048E+03  0.31257429321E+03  0.80688425991E+02 0.  0.
         24    2    4    4    0    0 -0.13936721471E+03  0.41365729510E+03 -0.51910548864E+03  0.68315362863E+03  0.81809496125E+02 0.  0.
         11    1    3    3    0    0 -0.35582490851E+02 -0.57857595952E+02 -0.42317085177E+02  0.80027187646E+02  0.00000000000E+00 0. -1.
        -11    1    3    3    0    0 -0.26594931736E+01 -0.22516138224E+03 -0.15280060924E+02  0.22569492953E+03  0.00000000000E+00 0.  1.
          2    1    6    6  502    0 -0.70724371583E+02  0.18921843279E+03 -0.17883865474E+03  0.26979402601E+03  0.00000000000E+00 0. -1.
          1    1    5    5  503    0  0.53241738726E+01  0.10394926655E+02  0.63852500953E+01  0.13310625319E+02  0.00000000000E+00 0. -1.
         -2    1    5    5    0  503  0.17228502486E+03 -0.14103324356E+03  0.19996559039E+03  0.29926366789E+03  0.00000000000E+00 0.  1.
         -1    1    6    6    0  502 -0.68642843126E+02  0.22443886231E+03 -0.34026683390E+03  0.41335960262E+03  0.00000000000E+00 0.  1.
<mgrwt>
<rscale>  0 0.12476425E+04</rscale>
<asrwt>0</asrwt>
<pdfrwt beam="1">  1        2 0.12860014E+00 0.12476425E+04</pdfrwt>
<pdfrwt beam="2">  1       -2 0.71622942E-01 0.12476425E+04</pdfrwt>
<totfact> 0.56487360E+01</totfact>
</mgrwt>
</event>
<event>
12    1  0.1442183E-007  0.1433217E+04  0.7818608E-02  0.8930119E-01
         -1   -1    0    0    0  501 -0.00000000000E+00  0.00000000000E+00  0.20890481134E+04  0.20890481134E+04  0.00000000000E+00 0.  1.
          1   -1    0    0  501    0  0.00000000000E+00 -0.00000000000E+00 -0.24581909939E+03  0.24581909939E+03  0.00000000000E+00 0. -1.
         23    2    1    2    0    0  0.80913223945E+02  0.35497973982E+03  0.80242351566E+03  0.88605363034E+03  0.93005224940E+02 0.  0.
        254    2    1    2    0    0 -0.80913223945E+02 -0.35497973982E+03  0.10408054983E+04  0.14488135824E+04  0.93980165236E+03 0.  0.
        -24    2    4    4    0    0 -0.11166406184E+03  0.15108614687E+03  0.89220979607E+03  0.91530319921E+03  0.80285364733E+02 0.  0.
         24    2    4    4    0    0  0.30750837897E+02 -0.50606588668E+03  0.14859570223E+03  0.53351038320E+03  0.74191310555E+02 0.  0.
         13    1    3    3    0    0  0.85929471652E+02  0.35910875423E+03  0.79000005158E+03  0.87203385999E+03  0.00000000000E+00 0.  1.
        -13    1    3    3    0    0 -0.50162477076E+01 -0.41290144132E+01  0.12423464072E+02  0.14019770349E+02  0.00000000000E+00 0. -1.
          2    1    6    6  502    0  0.55050711129E+02 -0.32638254913E+03  0.10070399291E+03  0.34597318301E+03  0.00000000000E+00 0. -1.
          1    1    5    5  503    0 -0.25031226745E+02 -0.10740729825E+01  0.62804698360E+02  0.67617646227E+02  0.00000000000E+00 0. -1.
         -2    1    5    5    0  503 -0.86632835097E+02  0.15216021985E+03  0.82940509771E+03  0.84768555298E+03  0.00000000000E+00 0.  1.
         -1    1    6    6    0  502 -0.24299873232E+02 -0.17968333755E+03  0.47891709326E+02  0.18753720019E+03  0.00000000000E+00 0.  1.
<mgrwt>
<rscale>  0 0.14332173E+04</rscale>
<asrwt>0</asrwt>
<pdfrwt beam="1">  1        1 0.37818324E-01 0.14332173E+04</pdfrwt>
<pdfrwt beam="2">  1       -1 0.32139201E+00 0.14332173E+04</pdfrwt>
<totfact> 0.26615662E+00</totfact>
</mgrwt>
</event>
<event>
12    1  0.1523309E-007  0.1750357E+04  0.7818608E-02  0.8733154E-01
         -1   -1    0    0    0  501 -0.00000000000E+00  0.00000000000E+00  0.11008356113E+04  0.11008356113E+04  0.00000000000E+00 0.  1.
          1   -1    0    0  501    0  0.00000000000E+00 -0.00000000000E+00 -0.69577787256E+03  0.69577787256E+03  0.00000000000E+00 0. -1.
         23    2    1    2    0    0 -0.32772522252E+03  0.24142227569E+03  0.69945727818E+03  0.81442616005E+03  0.91438227736E+02 0.  0.
        254    2    1    2    0    0  0.32772522252E+03 -0.24142227569E+03 -0.29439953946E+03  0.98218732379E+03  0.84399781606E+03 0.  0.
        -24    2    4    4    0    0  0.19792913583E+03 -0.24579872906E+03  0.25425441040E+03  0.41292811326E+03  0.79191940835E+02 0.  0.
         24    2    4    4    0    0  0.12979608669E+03  0.43764533715E+01 -0.54865394986E+03  0.56925921054E+03  0.78541165106E+02 0.  0.
         11    1    3    3    0    0 -0.32782437781E+03  0.22658087696E+03  0.64672701998E+03  0.75964699359E+03  0.00000000000E+00 0.  1.
        -11    1    3    3    0    0  0.99155293135E-01  0.14841398724E+02  0.52730258201E+02  0.54779166458E+02  0.00000000000E+00 0. -1.
          4    1    6    6  502    0  0.27315689358E+02 -0.15128433767E+02 -0.44110734384E+02  0.54044178976E+02  0.00000000000E+00 0. -1.
          1    1    5    5  503    0  0.21060869992E+02 -0.31250289322E+02  0.69595128617E+02  0.79143052473E+02  0.00000000000E+00 0. -1.
         -2    1    5    5    0  503  0.17686826584E+03 -0.21454843973E+03  0.18465928178E+03  0.33378506078E+03  0.00000000000E+00 0.  1.
         -3    1    6    6    0  502  0.10248039733E+03  0.19504887138E+02 -0.50454321548E+03  0.51521503156E+03  0.00000000000E+00 0.  1.
<mgrwt>
<rscale>  0 0.17503566E+04</rscale>
<asrwt>0</asrwt>
<pdfrwt beam="1">  1        1 0.10704275E+00 0.17503566E+04</pdfrwt>
<pdfrwt beam="2">  1       -1 0.16935933E+00 0.17503566E+04</pdfrwt>
<totfact> 0.64809350E+00</totfact>
</mgrwt>
</event>
<event>
12    1  0.2009347E-007  0.1778351E+04  0.7818608E-02  0.8717898E-01
          1   -1    0    0  501    0  0.00000000000E+00  0.00000000000E+00  0.12084658542E+04  0.12084658542E+04  0.00000000000E+00 0. -1.
         -1   -1    0    0    0  501 -0.00000000000E+00 -0.00000000000E+00 -0.65424515710E+03  0.65424515710E+03  0.00000000000E+00 0.  1.
         23    2    1    2    0    0 -0.53977200873E+03  0.27286468265E+03 -0.54369755174E+02  0.61409302174E+03  0.91352135347E+02 0.  0.
        254    2    1    2    0    0  0.53977200873E+03 -0.27286468265E+03  0.60859045225E+03  0.12486179895E+04  0.90711387863E+03 0.  0.
        -24    2    4    4    0    0  0.11819880933E+03  0.26187551649E+03  0.45706618914E+03  0.54600775289E+03  0.81640800447E+02 0.  0.
         24    2    4    4    0    0  0.42157319940E+03 -0.53474019914E+03  0.15152426311E+03  0.70261023666E+03  0.83848072847E+02 0.  0.
         13    1    3    3    0    0 -0.87428109531E+02  0.67909914103E+02  0.18259939978E+02  0.11220007209E+03  0.00000000000E+00 0. -1.
        -13    1    3    3    0    0 -0.45234389920E+03  0.20495476854E+03 -0.72629695152E+02  0.50189294965E+03  0.00000000000E+00 0.  1.
          2    1    6    6  502    0  0.13836435772E+02 -0.43852872379E+02 -0.28274089324E+01  0.46070767435E+02  0.00000000000E+00 0. -1.
          1    1    5    5  503    0 -0.11494715993E+02  0.11184132709E+02  0.31508102972E+02  0.35354969567E+02  0.00000000000E+00 0. -1.
         -2    1    5    5    0  503  0.12969352532E+03  0.25069138378E+03  0.42555808617E+03  0.51065278332E+03  0.00000000000E+00 0.  1.
         -1    1    6    6    0  502  0.40773676362E+03 -0.49088732676E+03  0.15435167204E+03  0.65653946922E+03  0.00000000000E+00 0.  1.
<mgrwt>
<rscale>  0 0.17783508E+04</rscale>
<asrwt>0</asrwt>
<pdfrwt beam="1">  1        1 0.18591782E+00 0.17783508E+04</pdfrwt>
<pdfrwt beam="2">  1       -1 0.10065310E+00 0.17783508E+04</pdfrwt>
<totfact> 0.93519013E+00</totfact>
</mgrwt>
</event>
<event>
12    1  0.1442183E-007  0.3056849E+04  0.7818608E-02  0.8227681E-01
          2   -1    0    0  501    0  0.00000000000E+00  0.00000000000E+00  0.16573296257E+04  0.16573296257E+04  0.00000000000E+00 0. -1.
         -2   -1    0    0    0  501 -0.00000000000E+00 -0.00000000000E+00 -0.14095450569E+04  0.14095450569E+04  0.00000000000E+00 0.  1.
         23    2    1    2    0    0 -0.11237984977E+04  0.53622128903E+02  0.93968781069E+03  0.14686835300E+04  0.90662747097E+02 0.  0.
        254    2    1    2    0    0  0.11237984977E+04 -0.53622128903E+02 -0.69190324188E+03  0.15981911525E+04  0.89982579862E+03 0.  0.
        -24    2    4    4    0    0  0.12051648137E+03 -0.79252366245E+02  0.19622391493E+03  0.25565277791E+03  0.77777620344E+02 0.  0.
         24    2    4    4    0    0  0.10032820163E+04  0.25630237342E+02 -0.88812715681E+03  0.13425383746E+04  0.80048281682E+02 0.  0.
         11    1    3    3    0    0 -0.98496847417E+03  0.35320296912E+02  0.85683511694E+03  0.13059773490E+04  0.00000000000E+00 0. -1.
        -11    1    3    3    0    0 -0.13883002350E+03  0.18301831991E+02  0.82852693753E+02  0.16270618102E+03  0.00000000000E+00 0.  1.
          2    1    6    6  502    0  0.88702172962E+03  0.38849600526E+02 -0.81003806271E+03  0.12018645944E+04  0.00000000000E+00 0. -1.
          1    1    5    5  503    0  0.10646999482E+03 -0.83713081460E+02  0.19893929021E+03  0.24066695036E+03  0.00000000000E+00 0. -1.
         -2    1    5    5    0  503  0.14046486544E+02  0.44607152147E+01 -0.27153752829E+01  0.14985827551E+02  0.00000000000E+00 0.  1.
         -1    1    6    6    0  502  0.11626028669E+03 -0.13219363184E+02 -0.78089094101E+02  0.14067378022E+03  0.00000000000E+00 0.  1.
<mgrwt>
<rscale>  0 0.30568486E+04</rscale>
<asrwt>0</asrwt>
<pdfrwt beam="1">  1        2 0.25497379E+00 0.30568486E+04</pdfrwt>
<pdfrwt beam="2">  1       -2 0.21685308E+00 0.30568486E+04</pdfrwt>
<totfact> 0.91352157E-01</totfact>
</mgrwt>
</event>
<event>
12    1  0.1442183E-007  0.1820138E+04  0.7818608E-02  0.8695663E-01
         -2   -1    0    0    0  501 -0.00000000000E+00  0.00000000000E+00  0.62331955410E+03  0.62331955410E+03  0.00000000000E+00 0.  1.
          2   -1    0    0  501    0  0.00000000000E+00 -0.00000000000E+00 -0.13287328777E+04  0.13287328777E+04  0.00000000000E+00 0. -1.
         23    2    1    2    0    0 -0.14976858834E+03  0.16866215158E+03 -0.95011714119E+03  0.98071761321E+03  0.90591961309E+02 0.  0.
        254    2    1    2    0    0  0.14976858834E+03 -0.16866215158E+03  0.24470381756E+03  0.97133481862E+03  0.91254250318E+03 0.  0.
        -24    2    4    4    0    0 -0.12212566853E+03 -0.47696236096E+03  0.23644432280E+03  0.55216793842E+03  0.81090947408E+02 0.  0.
         24    2    4    4    0    0  0.27189425687E+03  0.30830020938E+03  0.82594947691E+01  0.41916688020E+03  0.81591348648E+02 0.  0.
         13    1    3    3    0    0 -0.84992937754E+02  0.31119698037E+02 -0.38638563478E+03  0.39684517615E+03  0.00000000000E+00 0.  1.
        -13    1    3    3    0    0 -0.64775650582E+02  0.13754245354E+03 -0.56373150641E+03  0.58387243706E+03  0.00000000000E+00 0. -1.
          2    1    6    6  502    0  0.10462628074E+03  0.17709704884E+03  0.17047506929E+02  0.20639922680E+03  0.00000000000E+00 0. -1.
          3    1    5    5  503    0 -0.60032689221E+02 -0.37293826803E+03  0.17434724888E+03  0.41603345867E+03  0.00000000000E+00 0. -1.
         -4    1    5    5    0  503 -0.62092979313E+02 -0.10402409293E+03  0.62097073916E+02  0.13613447976E+03  0.00000000000E+00 0.  1.
         -1    1    6    6    0  502  0.16726797613E+03  0.13120316054E+03 -0.87880121599E+01  0.21276765340E+03  0.00000000000E+00 0.  1.
<mgrwt>
<rscale>  0 0.18201376E+04</rscale>
<asrwt>0</asrwt>
<pdfrwt beam="1">  1        2 0.20442044E+00 0.18201376E+04</pdfrwt>
<pdfrwt beam="2">  1       -2 0.95895316E-01 0.18201376E+04</pdfrwt>
<totfact> 0.13671860E+01</totfact>
</mgrwt>
</event>
<event>
12    1  0.1442183E-007  0.3950484E+04  0.7818608E-02  0.8014611E-01
         -2   -1    0    0    0  501 -0.00000000000E+00  0.00000000000E+00  0.14243250210E+04  0.14243250210E+04  0.00000000000E+00 0.  1.
          2   -1    0    0  501    0  0.00000000000E+00 -0.00000000000E+00 -0.27392483883E+04  0.27392483883E+04  0.00000000000E+00 0. -1.
         23    2    1    2    0    0  0.13438418344E+04 -0.13046401034E+04 -0.57067874214E+03  0.19600821649E+04  0.90836068110E+02 0.  0.
        254    2    1    2    0    0 -0.13438418344E+04  0.13046401034E+04 -0.74424462517E+03  0.22034912445E+04  0.89077321878E+03 0.  0.
        -24    2    4    4    0    0  0.11400084700E+03  0.18667807453E+03 -0.11057769705E+03  0.25834816814E+03  0.81678958539E+02 0.  0.
         24    2    4    4    0    0 -0.14578426814E+04  0.11179620289E+04 -0.63366692812E+03  0.19451430763E+04  0.83086882859E+02 0.  0.
         11    1    3    3    0    0  0.69658093826E+03 -0.65760628848E+03 -0.33719066284E+03  0.10155631823E+04  0.00000000000E+00 0. -1.
        -11    1    3    3    0    0  0.64726089609E+03 -0.64703381490E+03 -0.23348807930E+03  0.94451898256E+03  0.00000000000E+00 0.  1.
          2    1    6    6  502    0 -0.93916697608E+03  0.74729511286E+03 -0.37859010078E+03  0.12584971431E+04  0.00000000000E+00 0. -1.
          1    1    5    5  503    0  0.61566739813E+02  0.42352961764E+02 -0.62568965201E+02  0.97463389166E+02  0.00000000000E+00 0. -1.
         -2    1    5    5    0  503  0.52434107191E+02  0.14432511277E+03 -0.48008731854E+02  0.16088477898E+03  0.00000000000E+00 0.  1.
         -1    1    6    6    0  502 -0.51867570527E+03  0.37066691599E+03 -0.25507682734E+03  0.68664593328E+03  0.00000000000E+00 0.  1.
<mgrwt>
<rscale>  0 0.39504835E+04</rscale>
<asrwt>0</asrwt>
<pdfrwt beam="1">  1        2 0.42142282E+00 0.39504835E+04</pdfrwt>
<pdfrwt beam="2">  1       -2 0.21912693E+00 0.39504835E+04</pdfrwt>
<totfact> 0.19942574E-01</totfact>
</mgrwt>
</event>
<event>
12    1  0.1442183E-007  0.2208486E+04  0.7818608E-02  0.8514904E-01
          1   -1    0    0  501    0  0.00000000000E+00  0.00000000000E+00  0.64383893304E+03  0.64383893304E+03  0.00000000000E+00 0. -1.
         -1   -1    0    0    0  501 -0.00000000000E+00 -0.00000000000E+00 -0.18938786755E+04  0.18938786755E+04  0.00000000000E+00 0.  1.
         23    2    1    2    0    0 -0.15838630844E+03 -0.63262496432E+03  0.20429552446E+03  0.68929649824E+03  0.89957951182E+02 0.  0.
        254    2    1    2    0    0  0.15838630844E+03  0.63262496432E+03 -0.14543352669E+04  0.18484211103E+04  0.93609239088E+03 0.  0.
        -24    2    4    4    0    0  0.40247123308E+03 -0.47332960485E+02 -0.56711778922E+03  0.70159781352E+03  0.79958754843E+02 0.  0.
         24    2    4    4    0    0 -0.24408492464E+03  0.67995792481E+03 -0.88721747770E+03  0.11468232968E+04  0.78285320375E+02 0.  0.
         11    1    3    3    0    0 -0.91836125065E+02 -0.49553565589E+03  0.17902439753E+03  0.53482632232E+03  0.00000000000E+00 0. -1.
        -11    1    3    3    0    0 -0.66550183378E+02 -0.13708930843E+03  0.25271126927E+02  0.15447017592E+03  0.00000000000E+00 0.  1.
          2    1    6    6  502    0 -0.19942098114E+03  0.45275890060E+03 -0.58666703854E+03  0.76742267617E+03  0.00000000000E+00 0. -1.
          1    1    5    5  503    0  0.20231077714E+03  0.40650223970E+01 -0.32964823311E+03  0.38679986110E+03  0.00000000000E+00 0. -1.
         -2    1    5    5    0  503  0.20016045594E+03 -0.51397982882E+02 -0.23746955610E+03  0.31479795241E+03  0.00000000000E+00 0.  1.
         -1    1    6    6    0  502 -0.44663943502E+02  0.22719902421E+03 -0.30055043916E+03  0.37940062062E+03  0.00000000000E+00 0.  1.
<mgrwt>
<rscale>  0 0.22084862E+04</rscale>
<asrwt>0</asrwt>
<pdfrwt beam="1">  1        1 0.99052143E-01 0.22084862E+04</pdfrwt>
<pdfrwt beam="2">  1       -1 0.29136595E+00 0.22084862E+04</pdfrwt>
<totfact> 0.10574806E+00</totfact>
</mgrwt>
</event>
<event>
12    1  0.1442183E-007  0.1746604E+04  0.7818608E-02  0.8735222E-01
         -1   -1    0    0    0  501 -0.00000000000E+00  0.00000000000E+00  0.34018327515E+03  0.34018327515E+03  0.00000000000E+00 0.  1.
          1   -1    0    0  501    0  0.00000000000E+00 -0.00000000000E+00 -0.22418974684E+04  0.22418974684E+04  0.00000000000E+00 0. -1.
         23    2    1    2    0    0 -0.22177815434E+03 -0.34412328507E+03  0.42831160507E-01  0.41997824287E+03  0.93676771802E+02 0.  0.
        254    2    1    2    0    0  0.22177815434E+03  0.34412328507E+03 -0.19017570244E+04  0.21621025007E+04  0.94361064985E+03 0.  0.
        -24    2    4    4    0    0  0.43741756587E+03  0.51760039670E+03 -0.16245493833E+04  0.17621441371E+04  0.82139902213E+02 0.  0.
         24    2    4    4    0    0 -0.21563941153E+03 -0.17347711163E+03 -0.27720764119E+03  0.39995836366E+03  0.80795744074E+02 0.  0.
         11    1    3    3    0    0 -0.18302925701E+03 -0.32146380419E+03 -0.20770344777E+02  0.37049978886E+03  0.00000000000E+00 0.  1.
        -11    1    3    3    0    0 -0.38748897324E+02 -0.22659480885E+02  0.20813175938E+02  0.49478454002E+02  0.00000000000E+00 0. -1.
          4    1    6    6  502    0 -0.12744256483E+03 -0.51307769972E+02 -0.12392789726E+03  0.18501950791E+03  0.00000000000E+00 0. -1.
          3    1    5    5  503    0  0.18887042056E+03  0.16570768954E+03 -0.56441101989E+03  0.61781135754E+03  0.00000000000E+00 0. -1.
         -4    1    5    5    0  503  0.24854714532E+03  0.35189270716E+03 -0.10601383634E+04  0.11443327795E+04  0.00000000000E+00 0.  1.
         -3    1    6    6    0  502 -0.88196846707E+02 -0.12216934166E+03 -0.15327974393E+03  0.21493885574E+03  0.00000000000E+00 0.  1.
<mgrwt>
<rscale>  0 0.17466036E+04</rscale>
<asrwt>0</asrwt>
<pdfrwt beam="1">  1        1 0.34490731E+00 0.17466036E+04</pdfrwt>
<pdfrwt beam="2">  1       -1 0.52335888E-01 0.17466036E+04</pdfrwt>
<totfact> 0.71147945E+00</totfact>
</mgrwt>
</event>
<event>
12    1  0.1442183E-007  0.1579963E+04  0.7818608E-02  0.8832953E-01
         -2   -1    0    0    0  501 -0.00000000000E+00  0.00000000000E+00  0.28382405949E+03  0.28382405949E+03  0.00000000000E+00 0.  1.
          2   -1    0    0  501    0  0.00000000000E+00 -0.00000000000E+00 -0.21987940642E+04  0.21987940642E+04  0.00000000000E+00 0. -1.
         23    2    1    2    0    0 -0.34212970883E+03 -0.25167397159E+03 -0.15438349889E+03  0.46139155247E+03  0.93034264221E+02 0.  0.
        254    2    1    2    0    0  0.34212970883E+03  0.25167397159E+03 -0.17605865059E+04  0.20212265713E+04  0.89738480161E+03 0.  0.
        -24    2    4    4    0    0  0.58672984205E+03  0.90323928186E+02 -0.15195538642E+04  0.16335386873E+04  0.83632393468E+02 0.  0.
         24    2    4    4    0    0 -0.24460013322E+03  0.16135004341E+03 -0.24103264170E+03  0.38768788398E+03  0.79637298694E+02 0.  0.
         11    1    3    3    0    0 -0.27847232772E+03 -0.17061788756E+03 -0.14676235329E+03  0.35804537311E+03  0.00000000000E+00 0. -1.
        -11    1    3    3    0    0 -0.63657381110E+02 -0.81056084030E+02 -0.76211456012E+01  0.10334617936E+03  0.00000000000E+00 0.  1.
          4    1    6    6  502    0 -0.27888126142E+02  0.24645784759E+02 -0.19933878480E+01  0.37271113228E+02  0.00000000000E+00 0. -1.
          3    1    5    5  503    0  0.32613592468E+03  0.67460885932E+02 -0.95273015974E+03  0.10092622899E+04  0.00000000000E+00 0. -1.
         -4    1    5    5    0  503  0.26059391736E+03  0.22863042254E+02 -0.56682370443E+03  0.62427639741E+03  0.00000000000E+00 0.  1.
         -3    1    6    6    0  502 -0.21671200708E+03  0.13670425865E+03 -0.23903925385E+03  0.35041677075E+03  0.00000000000E+00 0.  1.
<mgrwt>
<rscale>  0 0.15799629E+04</rscale>
<asrwt>0</asrwt>
<pdfrwt beam="1">  1        2 0.33827601E+00 0.15799629E+04</pdfrwt>
<pdfrwt beam="2">  1       -2 0.43665239E-01 0.15799629E+04</pdfrwt>
<totfact> 0.24723849E+01</totfact>
</mgrwt>
</event>
<event>
12    1  0.1442183E-007  0.1758446E+04  0.7818608E-02  0.8728715E-01
          1   -1    0    0  501    0  0.00000000000E+00  0.00000000000E+00  0.17271163807E+04  0.17271163807E+04  0.00000000000E+00 0. -1.
         -1   -1    0    0    0  501 -0.00000000000E+00 -0.00000000000E+00 -0.44758604891E+03  0.44758604891E+03  0.00000000000E+00 0.  1.
         23    2    1    2    0    0 -0.50551788792E+03 -0.38203357905E+03  0.38769017507E+03  0.74849247576E+03  0.91865792832E+02 0.  0.
        254    2    1    2    0    0  0.50551788792E+03  0.38203357905E+03  0.89184015671E+03  0.14262099538E+04  0.91498523310E+03 0.  0.
        -24    2    4    4    0    0  0.66197157797E+03  0.55380657320E+03  0.71531899007E+03  0.11237570812E+04  0.78997653930E+02 0.  0.
         24    2    4    4    0    0 -0.15645369005E+03 -0.17177299415E+03  0.17652116664E+03  0.30245287269E+03  0.79588311218E+02 0.  0.
         13    1    3    3    0    0 -0.41821908479E+02 -0.62055169497E+02  0.65738070846E+02  0.99606275147E+02  0.00000000000E+00 0.  1.
        -13    1    3    3    0    0 -0.46369597944E+03 -0.31997840956E+03  0.32195210422E+03  0.64888620061E+03  0.00000000000E+00 0. -1.
          2    1    6    6  502    0  0.57153786904E+01  0.32814682897E+01  0.22473750645E+01  0.69630655887E+01  0.00000000000E+00 0. -1.
          3    1    5    5  503    0  0.56560012216E+02  0.75615589541E+02  0.93330167386E+02  0.13276773896E+03  0.00000000000E+00 0. -1.
         -4    1    5    5    0  503  0.60541156575E+03  0.47819098366E+03  0.62198882269E+03  0.99098934220E+03  0.00000000000E+00 0.  1.
         -1    1    6    6    0  502 -0.16216906874E+03 -0.17505446243E+03  0.17427379157E+03  0.29548980711E+03  0.00000000000E+00 0.  1.
<mgrwt>
<rscale>  0 0.17584461E+04</rscale>
<asrwt>0</asrwt>
<pdfrwt beam="1">  1        1 0.26571021E+00 0.17584461E+04</pdfrwt>
<pdfrwt beam="2">  1       -1 0.68859393E-01 0.17584461E+04</pdfrwt>
<totfact> 0.92289632E+00</totfact>
</mgrwt>
</event>
<event>
12    1  0.1442183E-007  0.2672008E+04  0.7818608E-02  0.8344145E-01
          2   -1    0    0  501    0  0.00000000000E+00  0.00000000000E+00  0.28374692185E+04  0.28374692185E+04  0.00000000000E+00 0.  1.
         -2   -1    0    0    0  501 -0.00000000000E+00 -0.00000000000E+00 -0.62904876663E+03  0.62904876663E+03  0.00000000000E+00 0. -1.
         23    2    1    2    0    0 -0.20273679921E+03  0.35100111478E+03  0.24198156285E+04  0.24552644827E+04  0.92260564871E+02 0.  0.
        254    2    1    2    0    0  0.20273679921E+03 -0.35100111478E+03 -0.21139517662E+03  0.10112535024E+04  0.90202091612E+03 0.  0.
        -24    2    4    4    0    0  0.95225206758E+02 -0.63715619879E+03 -0.36750039979E+02  0.65019347674E+03  0.79781765462E+02 0.  0.
         24    2    4    4    0    0  0.10751159245E+03  0.28615508401E+03 -0.17464513664E+03  0.36106002567E+03  0.80124551601E+02 0.  0.
         11    1    3    3    0    0 -0.17056937195E+03  0.23302714892E+03  0.18568201855E+04  0.18791425609E+04  0.00000000000E+00 0.  1.
        -11    1    3    3    0    0 -0.32167427256E+02  0.11797396586E+03  0.56299544297E+03  0.57612192182E+03  0.00000000000E+00 0. -1.
          2    1    6    6  502    0  0.52630100666E+02  0.50653521153E+02 -0.27826483784E+02  0.78166616283E+02  0.00000000000E+00 0. -1.
          3    1    5    5  503    0  0.36490809618E+02 -0.45752256556E+03 -0.43870910435E+02  0.46106738550E+03  0.00000000000E+00 0. -1.
         -4    1    5    5    0  503  0.58734397139E+02 -0.17963363323E+03  0.71208704559E+01  0.18912609124E+03  0.00000000000E+00 0.  1.
         -1    1    6    6    0  502  0.54881491784E+02  0.23550156286E+03 -0.14681865286E+03  0.28289340939E+03  0.00000000000E+00 0.  1.
<mgrwt>
<rscale>  0 0.26720079E+04</rscale>
<asrwt>0</asrwt>
<pdfrwt beam="1">  1        2 0.43653372E+00 0.26720079E+04</pdfrwt>
<pdfrwt beam="2">  1       -2 0.96776735E-01 0.26720079E+04</pdfrwt>
<totfact> 0.17213829E+00</totfact>
</mgrwt>
</event>
<event>
12    1  0.1442183E-007  0.1406609E+04  0.7818608E-02  0.8949049E-01
         -2   -1    0    0    0  501 -0.00000000000E+00  0.00000000000E+00  0.22870052928E+03  0.22870052928E+03  0.00000000000E+00 0.  1.
          2   -1    0    0  501    0  0.00000000000E+00 -0.00000000000E+00 -0.21628155575E+04  0.21628155575E+04  0.00000000000E+00 0. -1.
         23    2    1    2    0    0 -0.38551439792E+03  0.82066396766E+02 -0.73600220603E+03  0.83986287306E+03  0.91181981714E+02 0.  0.
        254    2    1    2    0    0  0.38551439792E+03 -0.82066396766E+02 -0.11981128222E+04  0.15516532138E+04  0.90376828695E+03 0.  0.
        -24    2    4    4    0    0  0.29969883052E+03 -0.19987676625E+03 -0.28645491789E+02  0.37014509062E+03  0.80104389444E+02 0.  0.
         24    2    4    4    0    0  0.85815567399E+02  0.11781036948E+03 -0.11694673304E+04  0.11815081231E+04  0.84047684802E+02 0.  0.
         11    1    3    3    0    0 -0.25639291734E+03  0.54057473734E+02 -0.39349892225E+03  0.47275886067E+03  0.00000000000E+00 0. -1.
        -11    1    3    3    0    0 -0.12912148057E+03  0.28008923032E+02 -0.34250328378E+03  0.36710401239E+03  0.00000000000E+00 0.  1.
          2    1    6    6  502    0  0.73012130843E+02  0.37083478996E+02 -0.44772449298E+03  0.45515181784E+03  0.00000000000E+00 0. -1.
          1    1    5    5  503    0  0.12456764613E+03 -0.89214347104E+02  0.27131305014E+02  0.15560336084E+03  0.00000000000E+00 0. -1.
         -2    1    5    5    0  503  0.17513118438E+03 -0.11066241914E+03 -0.55776796803E+02  0.21454172978E+03  0.00000000000E+00 0.  1.
         -1    1    6    6    0  502  0.12803436556E+02  0.80726890484E+02 -0.72174283745E+03  0.72635630530E+03  0.00000000000E+00 0.  1.
<mgrwt>
<rscale>  0 0.14066088E+04</rscale>
<asrwt>0</asrwt>
<pdfrwt beam="1">  1        2 0.33274084E+00 0.14066088E+04</pdfrwt>
<pdfrwt beam="2">  1       -2 0.35184698E-01 0.14066088E+04</pdfrwt>
<totfact> 0.40029751E+01</totfact>
</mgrwt>
</event>
<event>
12    1  0.1592001E-007  0.1688875E+04  0.7818608E-02  0.8767735E-01
         -1   -1    0    0    0  501 -0.00000000000E+00  0.00000000000E+00  0.66539273219E+03  0.66539273219E+03  0.00000000000E+00 0.  1.
          1   -1    0    0  501    0  0.00000000000E+00 -0.00000000000E+00 -0.10716593863E+04  0.10716593863E+04  0.00000000000E+00 0. -1.
         23    2    1    2    0    0  0.39589622282E+03 -0.35204175096E+03 -0.45899912093E+03  0.70936551148E+03  0.10886699315E+03 0.  0.
        254    2    1    2    0    0 -0.39589622282E+03  0.35204175096E+03  0.52732466779E+02  0.10276866071E+04  0.87902891625E+03 0.  0.
        -24    2    4    4    0    0 -0.13383733609E+03  0.40732831330E+03 -0.33481764377E+03  0.54998175075E+03  0.80921469541E+02 0.  0.
         24    2    4    4    0    0 -0.26205888673E+03 -0.55286562344E+02  0.38755011055E+03  0.47770485630E+03  0.79217280040E+02 0.  0.
         11    1    3    3    0    0  0.30357779256E+03 -0.29541923557E+03 -0.41330188660E+03  0.59181960963E+03  0.00000000000E+00 0. -1.
        -11    1    3    3    0    0  0.92318430262E+02 -0.56622515390E+02 -0.45697234331E+02  0.11754590185E+03  0.00000000000E+00 0.  1.
          2    1    6    6  502    0 -0.20374153610E+03 -0.27876494685E+02  0.34101838376E+03  0.39822261432E+03  0.00000000000E+00 0. -1.
          1    1    5    5  503    0 -0.12091747824E+03  0.36657679836E+03 -0.32830426061E+03  0.50673787423E+03  0.00000000000E+00 0. -1.
         -2    1    5    5    0  503 -0.12919857852E+02  0.40751514940E+02 -0.65133831589E+01  0.43243876526E+02  0.00000000000E+00 0.  1.
         -1    1    6    6    0  502 -0.58317350624E+02 -0.27410067659E+02  0.46531726788E+02  0.79482241984E+02  0.00000000000E+00 0.  1.
<mgrwt>
<rscale>  0 0.16888746E+04</rscale>
<asrwt>0</asrwt>
<pdfrwt beam="1">  1        1 0.16487067E+00 0.16888746E+04</pdfrwt>
<pdfrwt beam="2">  1       -1 0.10236811E+00 0.16888746E+04</pdfrwt>
<totfact> 0.11460982E+01</totfact>
</mgrwt>
</event>
<event>
12    1  0.1442183E-007  0.1898398E+04  0.7818608E-02  0.8655654E-01
         -2   -1    0    0    0  501 -0.00000000000E+00  0.00000000000E+00  0.10538254143E+04  0.10538254143E+04  0.00000000000E+00 0.  1.
          2   -1    0    0  501    0  0.00000000000E+00 -0.00000000000E+00 -0.85496031149E+03  0.85496031149E+03  0.00000000000E+00 0. -1.
         23    2    1    2    0    0 -0.52067839732E+03 -0.47477315054E+03 -0.13001723099E+03  0.72216848049E+03  0.90040523890E+02 0.  0.
        254    2    1    2    0    0  0.52067839732E+03  0.47477315054E+03  0.32888233384E+03  0.11866172453E+04  0.89631543528E+03 0.  0.
        -24    2    4    4    0    0 -0.23896050952E+03  0.21034532845E+03  0.50661333538E+02  0.33183524824E+03  0.78745024891E+02 0.  0.
         24    2    4    4    0    0  0.75963890684E+03  0.26442782209E+03  0.27822100030E+03  0.85478199710E+03  0.79195932248E+02 0.  0.
         13    1    3    3    0    0 -0.44427706940E+03 -0.44189744110E+03 -0.12402730977E+03  0.63877870692E+03  0.00000000000E+00 0. -1.
        -13    1    3    3    0    0 -0.76401327920E+02 -0.32875709442E+02 -0.59899212173E+01  0.83389773566E+02  0.00000000000E+00 0.  1.
          4    1    6    6  502    0  0.11291569755E+03  0.44942178494E+02  0.72519709940E+02  0.14152336376E+03  0.00000000000E+00 0. -1.
          3    1    5    5  503    0  0.36082568841E+01  0.12170278887E+02 -0.51011861827E+01  0.13680544813E+02  0.00000000000E+00 0. -1.
         -4    1    5    5    0  503 -0.24256876640E+03  0.19817504957E+03  0.55762519721E+02  0.31815470342E+03  0.00000000000E+00 0.  1.
         -3    1    6    6    0  502  0.64672320929E+03  0.21948564359E+03  0.20570129036E+03  0.71325863334E+03  0.00000000000E+00 0.  1.
<mgrwt>
<rscale>  0 0.18983982E+04</rscale>
<asrwt>0</asrwt>
<pdfrwt beam="1">  1        2 0.13153236E+00 0.18983982E+04</pdfrwt>
<pdfrwt beam="2">  1       -2 0.16212699E+00 0.18983982E+04</pdfrwt>
<totfact> 0.71631533E+00</totfact>
</mgrwt>
</event>
<event>
12    1  0.1442183E-007  0.2491417E+04  0.7818608E-02  0.8406050E-01
         -1   -1    0    0    0  501 -0.00000000000E+00  0.00000000000E+00  0.11390809496E+04  0.11390809496E+04  0.00000000000E+00 0.  1.
          1   -1    0    0  501    0  0.00000000000E+00 -0.00000000000E+00 -0.13623171461E+04  0.13623171461E+04  0.00000000000E+00 0. -1.
         23    2    1    2    0    0  0.67743730517E+02 -0.40739664127E+03  0.90572020864E+03  0.99962647281E+03  0.91448086150E+02 0.  0.
        254    2    1    2    0    0 -0.67743730517E+02  0.40739664127E+03 -0.11289564051E+04  0.15017716228E+04  0.90011899559E+03 0.  0.
        -24    2    4    4    0    0 -0.86872070095E+02 -0.27625712440E+03 -0.35748647930E+03  0.46778526601E+03  0.84626927562E+02 0.  0.
         24    2    4    4    0    0  0.19128339578E+02  0.68365376566E+03 -0.77146992580E+03  0.10339863568E+04  0.78826233154E+02 0.  0.
         13    1    3    3    0    0  0.21978349980E+02 -0.17737640497E+03  0.28883165489E+03  0.33966036238E+03  0.00000000000E+00 0. -1.
        -13    1    3    3    0    0  0.45765380537E+02 -0.23002023630E+03  0.61688855375E+03  0.65996611042E+03  0.00000000000E+00 0.  1.
          2    1    6    6  502    0  0.41721361824E+02  0.60350712080E+03 -0.66918829937E+03  0.90209450553E+03  0.00000000000E+00 0. -1.
          1    1    5    5  503    0 -0.85593667751E+02 -0.13239063939E+03 -0.17874956430E+03  0.23833791997E+03  0.00000000000E+00 0. -1.
         -2    1    5    5    0  503 -0.12784023438E+01 -0.14386648500E+03 -0.17873691500E+03  0.22944734604E+03  0.00000000000E+00 0.  1.
         -1    1    6    6    0  502 -0.22593022246E+02  0.80146644862E+02 -0.10228162643E+03  0.13189185131E+03  0.00000000000E+00 0.  1.
<mgrwt>
<rscale>  0 0.24914169E+04</rscale>
<asrwt>0</asrwt>
<pdfrwt beam="1">  1        1 0.20958725E+00 0.24914169E+04</pdfrwt>
<pdfrwt beam="2">  1       -1 0.17524322E+00 0.24914169E+04</pdfrwt>
<totfact> 0.16359142E+00</totfact>
</mgrwt>
</event>
<event>
12    1  0.1442183E-007  0.1338947E+04  0.7818608E-02  0.8999237E-01
         -1   -1    0    0    0  501 -0.00000000000E+00  0.00000000000E+00  0.62381867980E+03  0.62381867980E+03  0.00000000000E+00 0.  1.
          1   -1    0    0  501    0  0.00000000000E+00 -0.00000000000E+00 -0.71846978368E+03  0.71846978368E+03  0.00000000000E+00 0. -1.
         23    2    1    2    0    0 -0.25577186540E+03 -0.31014888969E+03 -0.31926797425E+02  0.41338251407E+03  0.90852636944E+02 0.  0.
        254    2    1    2    0    0  0.25577186540E+03  0.31014888969E+03 -0.62724306461E+02  0.92890594940E+03  0.83505708985E+03 0.  0.
        -24    2    4    4    0    0  0.36748844983E+03 -0.80476982145E+02 -0.26563494045E+03  0.46718795465E+03  0.78602531582E+02 0.  0.
         24    2    4    4    0    0 -0.11171658442E+03  0.39062587183E+03  0.20291063399E+03  0.46171799475E+03  0.83316350806E+02 0.  0.
         13    1    3    3    0    0 -0.22317828835E+03 -0.26810464494E+03 -0.58835642889E+02  0.35376585746E+03  0.00000000000E+00 0.  1.
        -13    1    3    3    0    0 -0.32593577059E+02 -0.42044244748E+02  0.26908845464E+02  0.59616656617E+02  0.00000000000E+00 0. -1.
          4    1    6    6  502    0 -0.68104736102E+02  0.28661530999E+03  0.10621822562E+03  0.31315954792E+03  0.00000000000E+00 0. -1.
          1    1    5    5  503    0  0.55758426695E+02 -0.42440810045E+02 -0.42639508494E+02  0.82026533447E+02  0.00000000000E+00 0. -1.
         -2    1    5    5    0  503  0.31173002313E+03 -0.38036172100E+02 -0.22299543196E+03  0.38516142120E+03  0.00000000000E+00 0.  1.
         -3    1    6    6    0  502 -0.43611848321E+02  0.10401056185E+03  0.96692408370E+02  0.14855844684E+03  0.00000000000E+00 0.  1.
<mgrwt>
<rscale>  0 0.13389472E+04</rscale>
<asrwt>0</asrwt>
<pdfrwt beam="1">  1        1 0.11053381E+00 0.13389472E+04</pdfrwt>
<pdfrwt beam="2">  1       -1 0.95972105E-01 0.13389472E+04</pdfrwt>
<totfact> 0.26851500E+01</totfact>
</mgrwt>
</event>
<event>
12    1  0.1442183E-007  0.1542786E+04  0.7818608E-02  0.8856489E-01
         -2   -1    0    0    0  501 -0.00000000000E+00  0.00000000000E+00  0.51220867708E+03  0.51220867708E+03  0.00000000000E+00 0. -1.
          2   -1    0    0  501    0  0.00000000000E+00 -0.00000000000E+00 -0.11617286053E+04  0.11617286053E+04  0.00000000000E+00 0.  1.
         23    2    1    2    0    0  0.42153897885E+03  0.15675737757E+03  0.35774645597E+02  0.46048085562E+03  0.92167277344E+02 0.  0.
        254    2    1    2    0    0 -0.42153897885E+03 -0.15675737757E+03 -0.68529457379E+03  0.12134564267E+04  0.89475128420E+03 0.  0.
        -24    2    4    4    0    0 -0.23564976485E+03 -0.48083123792E+03 -0.62341723509E+03  0.82579539021E+03  0.80990656512E+02 0.  0.
         24    2    4    4    0    0 -0.18588921400E+03  0.32407386035E+03 -0.61877338702E+02  0.38766103652E+03  0.82907221300E+02 0.  0.
         13    1    3    3    0    0  0.83157858035E+02  0.20494177560E+02  0.42545071505E+02  0.95631186212E+02  0.00000000000E+00 0.  1.
        -13    1    3    3    0    0  0.33838112082E+03  0.13626320001E+03 -0.67704259084E+01  0.36484966941E+03  0.00000000000E+00 0. -1.
          2    1    6    6  502    0 -0.14649200663E+02  0.11605262899E+02  0.14007607476E+02  0.23355818851E+02  0.00000000000E+00 0. -1.
          3    1    5    5  503    0 -0.13385854902E+03 -0.22709016700E+03 -0.35957242326E+03  0.44584793670E+03  0.00000000000E+00 0. -1.
         -4    1    5    5    0  503 -0.10179121584E+03 -0.25374107093E+03 -0.26384481183E+03  0.37994745351E+03  0.00000000000E+00 0.  1.
         -1    1    6    6    0  502 -0.17124001334E+03  0.31246859745E+03 -0.75884946178E+02  0.36430521766E+03  0.00000000000E+00 0.  1.
<mgrwt>
<rscale>  0 0.15427864E+04</rscale>
<asrwt>0</asrwt>
<pdfrwt beam="1">  1        2 0.17872748E+00 0.15427864E+04</pdfrwt>
<pdfrwt beam="2">  1       -2 0.78801336E-01 0.15427864E+04</pdfrwt>
<totfact> 0.27511000E+01</totfact>
</mgrwt>
</event>
<event>
12    1  0.1442183E-007  0.1719981E+04  0.7818608E-02  0.8750050E-01
          2   -1    0    0  501    0  0.00000000000E+00  0.00000000000E+00  0.51426806694E+03  0.51426806694E+03  0.00000000000E+00 0. -1.
         -2   -1    0    0    0  501 -0.00000000000E+00 -0.00000000000E+00 -0.14381293603E+04  0.14381293603E+04  0.00000000000E+00 0.  1.
         23    2    1    2    0    0 -0.34586953590E+03  0.18437863527E+02  0.24882677438E+03  0.43600707985E+03  0.90673697180E+02 0.  0.
        254    2    1    2    0    0  0.34586953590E+03 -0.18437863527E+02 -0.11726880677E+04  0.15163903474E+04  0.89681474718E+03 0.  0.
        -24    2    4    4    0    0  0.27529015721E+03 -0.38296201328E+03 -0.98032812509E+03  0.10907957009E+04  0.79670910251E+02 0.  0.
         24    2    4    4    0    0  0.70579378688E+02  0.36452414975E+03 -0.19235994265E+03  0.42559464651E+03  0.79177971397E+02 0.  0.
         11    1    3    3    0    0 -0.27692772710E+03 -0.20547249863E+02  0.17868220062E+03  0.33020975808E+03  0.00000000000E+00 0. -1.
        -11    1    3    3    0    0 -0.68941808800E+02  0.38985113390E+02  0.70144573756E+02  0.10579732177E+03  0.00000000000E+00 0.  1.
          2    1    6    6  502    0  0.13381956938E+02  0.20732883083E+03 -0.13916437439E+03  0.25006208022E+03  0.00000000000E+00 0. -1.
          1    1    5    5  503    0  0.11080738867E+03 -0.10830416211E+03 -0.26260478367E+03  0.30490874261E+03  0.00000000000E+00 0. -1.
         -2    1    5    5    0  503  0.16448276854E+03 -0.27465785117E+03 -0.71772334142E+03  0.78588695827E+03  0.00000000000E+00 0.  1.
         -1    1    6    6    0  502  0.57197421750E+02  0.15719531892E+03 -0.53195568257E+02  0.17553256629E+03  0.00000000000E+00 0.  1.
<mgrwt>
<rscale>  0 0.17199814E+04</rscale>
<asrwt>0</asrwt>
<pdfrwt beam="1">  1        2 0.79118166E-01 0.17199814E+04</pdfrwt>
<pdfrwt beam="2">  1       -2 0.22125066E+00 0.17199814E+04</pdfrwt>
<totfact> 0.54905151E+00</totfact>
</mgrwt>
</event>
<event>
12    1  0.1442183E-007  0.1619282E+04  0.7818608E-02  0.8808789E-01
         -1   -1    0    0    0  501 -0.00000000000E+00  0.00000000000E+00  0.14302600563E+04  0.14302600563E+04  0.00000000000E+00 0.  1.
          1   -1    0    0  501    0  0.00000000000E+00 -0.00000000000E+00 -0.45832143821E+03  0.45832143821E+03  0.00000000000E+00 0. -1.
         23    2    1    2    0    0  0.70048060297E+02  0.45316607800E+03  0.70674405643E+03  0.84722144453E+03  0.89614673904E+02 0.  0.
        254    2    1    2    0    0 -0.70048060297E+02 -0.45316607800E+03  0.26519456165E+03  0.10413600500E+04  0.89656922383E+03 0.  0.
        -24    2    4    4    0    0  0.80557235537E+02 -0.34835247401E+03 -0.27964152823E+03  0.46091525982E+03  0.80028607861E+02 0.  0.
         24    2    4    4    0    0 -0.15060529583E+03 -0.10481360399E+03  0.54483608988E+03  0.58044479014E+03  0.80012141895E+02 0.  0.
         13    1    3    3    0    0  0.53858081954E+02  0.30253464864E+03  0.39354246806E+03  0.49930309511E+03  0.00000000000E+00 0.  1.
        -13    1    3    3    0    0  0.16189978343E+02  0.15063142936E+03  0.31320158836E+03  0.34791834942E+03  0.00000000000E+00 0. -1.
          4    1    6    6  502    0 -0.10083679973E+03 -0.93247417685E+02  0.47127182030E+03  0.49087704131E+03  0.00000000000E+00 0. -1.
          3    1    5    5  503    0  0.10196360509E+02 -0.17685251707E+03 -0.17013073211E+03  0.24561197970E+03  0.00000000000E+00 0. -1.
         -4    1    5    5    0  503  0.70360875028E+02 -0.17149995693E+03 -0.10951079612E+03  0.21530328012E+03  0.00000000000E+00 0.  1.
         -3    1    6    6    0  502 -0.49768496107E+02 -0.11566186306E+02  0.73564269583E+02  0.89567748826E+02  0.00000000000E+00 0.  1.
<mgrwt>
<rscale>  0 0.16192824E+04</rscale>
<asrwt>0</asrwt>
<pdfrwt beam="1">  1        1 0.70510991E-01 0.16192824E+04</pdfrwt>
<pdfrwt beam="2">  1       -1 0.22004001E+00 0.16192824E+04</pdfrwt>
<totfact> 0.52619013E+00</totfact>
</mgrwt>
</event>
<event>
12    1  0.1641213E-007  0.1668787E+04  0.7818608E-02  0.8779369E-01
         -1   -1    0    0    0  501 -0.00000000000E+00  0.00000000000E+00  0.49205956117E+03  0.49205956117E+03  0.00000000000E+00 0.  1.
          1   -1    0    0  501    0  0.00000000000E+00 -0.00000000000E+00 -0.14148940446E+04  0.14148940446E+04  0.00000000000E+00 0. -1.
         23    2    1    2    0    0  0.43544852939E+03  0.28416944101E+03 -0.64546207418E+03  0.83389264443E+03  0.91585808308E+02 0.  0.
        254    2    1    2    0    0 -0.43544852939E+03 -0.28416944101E+03 -0.27737240928E+03  0.10730609614E+04  0.89674783548E+03 0.  0.
        -24    2    4    4    0    0  0.23428889544E+03 -0.12915804661E+03  0.85293339313E+02  0.29202167061E+03  0.80178643333E+02 0.  0.
         24    2    4    4    0    0 -0.66973742482E+03 -0.15501139440E+03 -0.36266574860E+03  0.78103929076E+03  0.76936193663E+02 0.  0.
         11    1    3    3    0    0  0.41140580558E+01  0.20501370511E+02 -0.14789942434E+02  0.25611990624E+02  0.00000000000E+00 0. -1.
        -11    1    3    3    0    0  0.43133447133E+03  0.26366807049E+03 -0.63067213175E+03  0.80828065381E+03  0.00000000000E+00 0.  1.
          4    1    6    6  502    0 -0.41639032205E+03 -0.13440719232E+03 -0.22799924077E+03  0.49338610381E+03  0.00000000000E+00 0. -1.
          3    1    5    5  503    0  0.20315422270E+03 -0.74639062005E+02  0.63306912632E+02  0.22550031700E+03  0.00000000000E+00 0. -1.
         -4    1    5    5    0  503  0.31134672736E+02 -0.54518984605E+02  0.21986426681E+02  0.66521353616E+02  0.00000000000E+00 0.  1.
         -3    1    6    6    0  502 -0.25334710277E+03 -0.20604202072E+02 -0.13466650783E+03  0.28765318694E+03  0.00000000000E+00 0.  1.
<mgrwt>
<rscale>  0 0.16687866E+04</rscale>
<asrwt>0</asrwt>
<pdfrwt beam="1">  1        1 0.21767600E+00 0.16687866E+04</pdfrwt>
<pdfrwt beam="2">  1       -1 0.75701473E-01 0.16687866E+04</pdfrwt>
<totfact> 0.12546081E+01</totfact>
</mgrwt>
</event>
<event>
12    1  0.1442183E-007  0.1615472E+04  0.7818608E-02  0.8811099E-01
         -2   -1    0    0    0  501 -0.00000000000E+00  0.00000000000E+00  0.14061618953E+04  0.14061618953E+04  0.00000000000E+00 0.  1.
          2   -1    0    0  501    0  0.00000000000E+00 -0.00000000000E+00 -0.46398487112E+03  0.46398487112E+03  0.00000000000E+00 0. -1.
         23    2    1    2    0    0  0.20262667499E+02  0.53308397212E+03  0.18681293929E+03  0.57353329298E+03  0.97222769148E+02 0.  0.
        254    2    1    2    0    0 -0.20262667499E+02 -0.53308397212E+03  0.75536408488E+03  0.12966134734E+04  0.90886880334E+03 0.  0.
        -24    2    4    4    0    0 -0.29269605479E+03 -0.49076756411E+03  0.81843444381E+03  0.10013482094E+04  0.79621072238E+02 0.  0.
         24    2    4    4    0    0  0.27243338729E+03 -0.42316408015E+02 -0.63070358929E+02  0.29526526404E+03  0.84812010201E+02 0.  0.
         11    1    3    3    0    0 -0.58150093138E+01  0.49067025168E+03  0.18255520344E+03  0.52356232917E+03  0.00000000000E+00 0. -1.
        -11    1    3    3    0    0  0.26077676813E+02  0.42413720440E+02  0.42577358421E+01  0.49970963809E+02  0.00000000000E+00 0.  1.
          4    1    6    6  502    0  0.26086357162E+03 -0.38123592414E+02 -0.78924994535E+02  0.27519514178E+03  0.00000000000E+00 0. -1.
          1    1    5    5  503    0 -0.24162528496E+03 -0.33778505278E+03  0.57358096213E+03  0.70815015380E+03  0.00000000000E+00 0. -1.
         -2    1    5    5    0  503 -0.51070769830E+02 -0.15298251133E+03  0.24485348168E+03  0.29319805558E+03  0.00000000000E+00 0.  1.
         -1    1    6    6    0  502  0.11569815674E+02 -0.41928156018E+01  0.15854635606E+02  0.20070122262E+02  0.00000000000E+00 0.  1.
<mgrwt>
<rscale>  0 0.16154725E+04</rscale>
<asrwt>0</asrwt>
<pdfrwt beam="1">  1        2 0.71382289E-01 0.16154725E+04</pdfrwt>
<pdfrwt beam="2">  1       -2 0.21633260E+00 0.16154725E+04</pdfrwt>
<totfact> 0.67019089E+00</totfact>
</mgrwt>
</event>
<event>
12    1  0.1442183E-007  0.2588866E+04  0.7818608E-02  0.8371993E-01
          1   -1    0    0  501    0  0.00000000000E+00  0.00000000000E+00  0.16772519041E+04  0.16772519041E+04  0.00000000000E+00 0. -1.
         -1   -1    0    0    0  501 -0.00000000000E+00 -0.00000000000E+00 -0.99898962865E+03  0.99898962865E+03  0.00000000000E+00 0.  1.
         23    2    1    2    0    0  0.18135420741E+03 -0.10045741598E+04  0.79422330870E+03  0.12966533689E+04  0.91982085102E+02 0.  0.
        254    2    1    2    0    0 -0.18135420741E+03  0.10045741598E+04 -0.11596103322E+03  0.13795881638E+04  0.92073772024E+03 0.  0.
        -24    2    4    4    0    0 -0.22583676362E+03  0.40799663996E+03  0.37368044201E+03  0.60237104276E+03  0.75830721976E+02 0.  0.
         24    2    4    4    0    0  0.44482556213E+02  0.59657751986E+03 -0.48964147523E+03  0.77721712108E+03  0.80213739656E+02 0.  0.
         13    1    3    3    0    0  0.19779406809E+02 -0.76174636202E+02  0.33363719233E+02  0.85480628772E+02  0.00000000000E+00 0.  1.
        -13    1    3    3    0    0  0.16157480060E+03 -0.92839952362E+03  0.76085958947E+03  0.12111727402E+04  0.00000000000E+00 0. -1.
          4    1    6    6  502    0  0.63767338177E+01  0.34491821399E+01 -0.15834461587E+00  0.72515284343E+01  0.00000000000E+00 0. -1.
          1    1    5    5  503    0 -0.48730885725E+02  0.43820765799E+02  0.34095710591E+02  0.73874733295E+02  0.00000000000E+00 0. -1.
         -2    1    5    5    0  503 -0.17710587789E+03  0.36417587416E+03  0.33958473142E+03  0.52849630947E+03  0.00000000000E+00 0.  1.
         -3    1    6    6    0  502  0.38105822395E+02  0.59312833772E+03 -0.48948313061E+03  0.76996559265E+03  0.00000000000E+00 0.  1.
<mgrwt>
<rscale>  0 0.25888664E+04</rscale>
<asrwt>0</asrwt>
<pdfrwt beam="1">  1        1 0.25803875E+00 0.25888664E+04</pdfrwt>
<pdfrwt beam="2">  1       -1 0.15369071E+00 0.25888664E+04</pdfrwt>
<totfact> 0.14223536E+00</totfact>
</mgrwt>
</event>
<event>
12    1  0.1442183E-007  0.1649731E+04  0.7818608E-02  0.8790566E-01
          2   -1    0    0  501    0  0.00000000000E+00  0.00000000000E+00  0.66028195138E+03  0.66028195138E+03  0.00000000000E+00 0. -1.
         -2   -1    0    0    0  501 -0.00000000000E+00 -0.00000000000E+00 -0.10304733053E+04  0.10304733053E+04  0.00000000000E+00 0.  1.
         23    2    1    2    0    0 -0.52805740441E+03 -0.12331078092E+03  0.52344829687E+02  0.55240603831E+03  0.91445496998E+02 0.  0.
        254    2    1    2    0    0  0.52805740441E+03  0.12331078092E+03 -0.42253618362E+03  0.11383492184E+04  0.90733232362E+03 0.  0.
        -24    2    4    4    0    0  0.29158712469E+02  0.41421705412E+03 -0.78952852793E+01  0.42281533544E+03  0.79274673856E+02 0.  0.
         24    2    4    4    0    0  0.49889869194E+03 -0.29090627320E+03 -0.41464089834E+03  0.71553388295E+03  0.80841192835E+02 0.  0.
         13    1    3    3    0    0 -0.12789607169E+03 -0.25278265807E+02 -0.26237544770E+02  0.13298422700E+03  0.00000000000E+00 0.  1.
        -13    1    3    3    0    0 -0.40016133272E+03 -0.98032515118E+02  0.78582374457E+02  0.41942181131E+03  0.00000000000E+00 0. -1.
          2    1    6    6  502    0  0.47102493807E+03 -0.28841000177E+03 -0.37734139687E+03  0.66890309552E+03  0.00000000000E+00 0. -1.
          3    1    5    5  503    0 -0.23498028318E+02  0.18554607894E+03  0.11349395362E+02  0.18737212579E+03  0.00000000000E+00 0. -1.
         -4    1    5    5    0  503  0.52656740787E+02  0.22867097518E+03 -0.19244680641E+02  0.23544320965E+03  0.00000000000E+00 0.  1.
         -1    1    6    6    0  502  0.27873753871E+02 -0.24962714290E+01 -0.37299501471E+02  0.46630787425E+02  0.00000000000E+00 0.  1.
<mgrwt>
<rscale>  0 0.16497308E+04</rscale>
<asrwt>0</asrwt>
<pdfrwt beam="1">  1        2 0.10158184E+00 0.16497308E+04</pdfrwt>
<pdfrwt beam="2">  1       -2 0.15853435E+00 0.16497308E+04</pdfrwt>
<totfact> 0.10871573E+01</totfact>
</mgrwt>
</event>
<event>
12    1  0.1442183E-007  0.1534678E+04  0.7818608E-02  0.8861715E-01
         -1   -1    0    0    0  501 -0.00000000000E+00  0.00000000000E+00  0.62202105338E+03  0.62202105338E+03  0.00000000000E+00 0. -1.
          1   -1    0    0  501    0  0.00000000000E+00 -0.00000000000E+00 -0.94660584918E+03  0.94660584918E+03  0.00000000000E+00 0.  1.
         23    2    1    2    0    0 -0.94482262862E+02  0.83249927467E+02 -0.60277217233E+03  0.62222300141E+03  0.89273306883E+02 0.  0.
        254    2    1    2    0    0  0.94482262862E+02 -0.83249927467E+02  0.27818737653E+03  0.94640390115E+03  0.89578718412E+03 0.  0.
        -24    2    4    4    0    0 -0.19339060580E+03 -0.12937960190E+02 -0.25598882284E+03  0.32954456491E+03  0.74175640340E+02 0.  0.
         24    2    4    4    0    0  0.28787286867E+03 -0.70311967278E+02  0.53417619936E+03  0.61685933624E+03  0.85771017721E+02 0.  0.
         11    1    3    3    0    0 -0.17363216349E+01  0.21355352399E+02 -0.21500641090E+02  0.30353639917E+02  0.00000000000E+00 0. -1.
        -11    1    3    3    0    0 -0.92745941227E+02  0.61894575068E+02 -0.58127153124E+03  0.59186936149E+03  0.00000000000E+00 0.  1.
          4    1    6    6  502    0  0.14675588308E+03 -0.22162155877E+02  0.18498664727E+03  0.23716768338E+03  0.00000000000E+00 0. -1.
          1    1    5    5  503    0 -0.17015028578E+03 -0.21966020562E+02 -0.17609879108E+03  0.24585444887E+03  0.00000000000E+00 0. -1.
         -2    1    5    5    0  503 -0.23240320021E+02  0.90280603725E+01 -0.79890031754E+02  0.83690116038E+02  0.00000000000E+00 0.  1.
         -3    1    6    6    0  502  0.14111698559E+03 -0.48149811401E+02  0.34918955210E+03  0.37969165286E+03  0.00000000000E+00 0.  1.
<mgrwt>
<rscale>  0 0.15346775E+04</rscale>
<asrwt>0</asrwt>
<pdfrwt beam="1">  1        1 0.14563167E+00 0.15346775E+04</pdfrwt>
<pdfrwt beam="2">  1       -1 0.95695546E-01 0.15346775E+04</pdfrwt>
<totfact> 0.16951679E+01</totfact>
</mgrwt>
</event>
<event>
12    1  0.1442183E-007  0.1357453E+04  0.7818608E-02  0.8985205E-01
          2   -1    0    0  501    0  0.00000000000E+00  0.00000000000E+00  0.10858007717E+04  0.10858007717E+04  0.00000000000E+00 0. -1.
         -2   -1    0    0    0  501 -0.00000000000E+00 -0.00000000000E+00 -0.42426722761E+03  0.42426722761E+03  0.00000000000E+00 0.  1.
         23    2    1    2    0    0  0.11210182842E+03  0.30252168949E+03 -0.51478755054E+01  0.33638838900E+03  0.95102340030E+02 0.  0.
        254    2    1    2    0    0 -0.11210182842E+03 -0.30252168949E+03  0.66668141958E+03  0.11736796103E+04  0.91047982945E+03 0.  0.
        -24    2    4    4    0    0 -0.48358187822E+03 -0.12924806417E+03  0.52938668629E+03  0.73287183400E+03  0.79337043150E+02 0.  0.
         24    2    4    4    0    0  0.37148004980E+03 -0.17327362532E+03  0.13729473329E+03  0.44080777628E+03  0.86258189254E+02 0.  0.
         13    1    3    3    0    0 -0.29731515289E+01  0.74760845490E+02  0.26232450379E+02  0.79285339763E+02  0.00000000000E+00 0. -1.
        -13    1    3    3    0    0  0.11507497995E+03  0.22776084400E+03 -0.31380325885E+02  0.25710304923E+03  0.00000000000E+00 0.  1.
          4    1    6    6  502    0  0.31596530430E+03 -0.12938281134E+03  0.82368414532E+02  0.35122434583E+03  0.00000000000E+00 0. -1.
          1    1    5    5  503    0 -0.46391956106E+03 -0.13970041067E+03  0.50421212625E+03  0.69926206256E+03  0.00000000000E+00 0. -1.
         -2    1    5    5    0  503 -0.19662317162E+02  0.10452346493E+02  0.25174560036E+02  0.33609771442E+02  0.00000000000E+00 0.  1.
         -3    1    6    6    0  502  0.55514745501E+02 -0.43890813981E+02  0.54926318758E+02  0.89583430456E+02  0.00000000000E+00 0.  1.
<mgrwt>
<rscale>  0 0.13574530E+04</rscale>
<asrwt>0</asrwt>
<pdfrwt beam="1">  1        2 0.16704627E+00 0.13574530E+04</pdfrwt>
<pdfrwt beam="2">  1       -2 0.65271882E-01 0.13574530E+04</pdfrwt>
<totfact> 0.46965779E+01</totfact>
</mgrwt>
</event>
<event>
12    1  0.1442183E-007  0.1520013E+04  0.7818608E-02  0.8871253E-01
          2   -1    0    0  501    0  0.00000000000E+00  0.00000000000E+00  0.46721145194E+03  0.46721145194E+03  0.00000000000E+00 0. -1.
         -2   -1    0    0    0  501 -0.00000000000E+00 -0.00000000000E+00 -0.12362920406E+04  0.12362920406E+04  0.00000000000E+00 0.  1.
         23    2    1    2    0    0 -0.25844955173E+03  0.19737894490E+02  0.12585536232E+03  0.30122830424E+03  0.87824619456E+02 0.  0.
        254    2    1    2    0    0  0.25844955173E+03 -0.19737894490E+02 -0.89493595101E+03  0.14022751883E+04  0.10479883549E+04 0.  0.
        -24    2    4    4    0    0 -0.81438343026E+02 -0.46243679481E+03 -0.59907213832E+03  0.76540949517E+03  0.80524999078E+02 0.  0.
         24    2    4    4    0    0  0.33988789475E+03  0.44269890032E+03 -0.29586381268E+03  0.63686569315E+03  0.80971711762E+02 0.  0.
         13    1    3    3    0    0 -0.15120231903E+03  0.42533663203E+02  0.10680222667E+03  0.18994201590E+03  0.00000000000E+00 0. -1.
        -13    1    3    3    0    0 -0.10724723270E+03 -0.22795768713E+02  0.19053135654E+02  0.11128628833E+03  0.00000000000E+00 0.  1.
          2    1    6    6  502    0  0.11265613925E+03  0.12002706864E+03 -0.50628269402E+02  0.17222405343E+03  0.00000000000E+00 0. -1.
          3    1    5    5  503    0 -0.80686542758E+02 -0.38405809765E+03 -0.53861128988E+03  0.66641808359E+03  0.00000000000E+00 0. -1.
         -4    1    5    5    0  503 -0.75180026761E+00 -0.78378697163E+02 -0.60460848445E+02  0.98991411583E+02  0.00000000000E+00 0.  1.
         -1    1    6    6    0  502  0.22723175550E+03  0.32267183168E+03 -0.24523554328E+03  0.46464163971E+03  0.00000000000E+00 0.  1.
<mgrwt>
<rscale>  0 0.15200129E+04</rscale>
<asrwt>0</asrwt>
<pdfrwt beam="1">  1        2 0.71878686E-01 0.15200129E+04</pdfrwt>
<pdfrwt beam="2">  1       -2 0.19019877E+00 0.15200129E+04</pdfrwt>
<totfact> 0.99196373E+00</totfact>
</mgrwt>
</event>
<event>
12    1  0.1442183E-007  0.1977361E+04  0.7818608E-02  0.8617279E-01
         -2   -1    0    0    0  501 -0.00000000000E+00  0.00000000000E+00  0.55603828178E+03  0.55603828178E+03  0.00000000000E+00 0.  1.
          2   -1    0    0  501    0  0.00000000000E+00 -0.00000000000E+00 -0.17579530767E+04  0.17579530767E+04  0.00000000000E+00 0. -1.
         23    2    1    2    0    0  0.59902061009E+03 -0.46744412593E+03 -0.69044968832E+03  0.10307310357E+04  0.91411124853E+02 0.  0.
        254    2    1    2    0    0 -0.59902061009E+03  0.46744412593E+03 -0.51146510661E+03  0.12832603228E+04  0.89879408015E+03 0.  0.
        -24    2    4    4    0    0 -0.29909410235E+03  0.52668251787E+03  0.76179669008E+02  0.61570926462E+03  0.80267053486E+02 0.  0.
         24    2    4    4    0    0 -0.29992650774E+03 -0.59238391938E+02 -0.58764477562E+03  0.66755105814E+03  0.82661573854E+02 0.  0.
         13    1    3    3    0    0  0.20741074174E+03 -0.15043518088E+03 -0.29125977920E+03  0.38792037638E+03  0.00000000000E+00 0. -1.
        -13    1    3    3    0    0  0.39160986835E+03 -0.31700894505E+03 -0.39918990913E+03  0.64281065935E+03  0.00000000000E+00 0.  1.
          2    1    6    6  502    0 -0.28041204044E+03 -0.76470549173E+02 -0.54095660218E+03  0.61409502746E+03  0.00000000000E+00 0. -1.
          3    1    5    5  503    0 -0.27686927975E+03  0.46527449100E+03  0.90284588850E+02  0.54889731009E+03  0.00000000000E+00 0. -1.
         -4    1    5    5    0  503 -0.22224822608E+02  0.61408026872E+02 -0.14104919842E+02  0.66811954529E+02  0.00000000000E+00 0.  1.
         -1    1    6    6    0  502 -0.19514467305E+02  0.17232157235E+02 -0.46688173437E+02  0.53456030680E+02  0.00000000000E+00 0.  1.
<mgrwt>
<rscale>  0 0.19773611E+04</rscale>
<asrwt>0</asrwt>
<pdfrwt beam="1">  1        2 0.27045432E+00 0.19773611E+04</pdfrwt>
<pdfrwt beam="2">  1       -2 0.85544352E-01 0.19773611E+04</pdfrwt>
<totfact> 0.10063546E+01</totfact>
</mgrwt>
</event>
<event>
12    1  0.1442183E-007  0.2291099E+04  0.7818608E-02  0.8481439E-01
         -1   -1    0    0    0  501 -0.00000000000E+00  0.00000000000E+00  0.15153625062E+04  0.15153625062E+04  0.00000000000E+00 0.  1.
          1   -1    0    0  501    0  0.00000000000E+00 -0.00000000000E+00 -0.86598680096E+03  0.86598680096E+03  0.00000000000E+00 0. -1.
         23    2    1    2    0    0 -0.36473438657E+03  0.67540499422E+03 -0.33883956595E+03  0.84406666349E+03  0.91832466986E+02 0.  0.
        254    2    1    2    0    0  0.36473438657E+03 -0.67540499422E+03  0.98821527120E+03  0.15372826437E+04  0.89300919669E+03 0.  0.
        -24    2    4    4    0    0  0.38247442252E+03 -0.63461487384E+03  0.11396476986E+04  0.13616865693E+04  0.79816752223E+02 0.  0.
         24    2    4    4    0    0 -0.17740035950E+02 -0.40790120384E+02 -0.15143242744E+03  0.17559607441E+03  0.76965306936E+02 0.  0.
         13    1    3    3    0    0 -0.16633249524E+03  0.35910106364E+03 -0.13177011037E+03  0.41711321589E+03  0.00000000000E+00 0.  1.
        -13    1    3    3    0    0 -0.19840189132E+03  0.31630393058E+03 -0.20706945558E+03  0.42695344760E+03  0.00000000000E+00 0. -1.
          4    1    6    6  502    0 -0.87539941858E+00  0.22493589302E+02 -0.50329685772E+02  0.55134428026E+02  0.00000000000E+00 0. -1.
          1    1    5    5  503    0  0.12755209570E+03 -0.28186079203E+03  0.44579761750E+03  0.54263298736E+03  0.00000000000E+00 0. -1.
         -2    1    5    5    0  503  0.25492232682E+03 -0.35275408181E+03  0.69385008114E+03  0.81905358191E+03  0.00000000000E+00 0.  1.
         -3    1    6    6    0  502 -0.16864636531E+02 -0.63283709687E+02 -0.10110274167E+03  0.12046164639E+03  0.00000000000E+00 0.  1.
<mgrwt>
<rscale>  0 0.22910992E+04</rscale>
<asrwt>0</asrwt>
<pdfrwt beam="1">  1        1 0.13322874E+00 0.22910992E+04</pdfrwt>
<pdfrwt beam="2">  1       -1 0.23313269E+00 0.22910992E+04</pdfrwt>
<totfact> 0.15804420E+00</totfact>
</mgrwt>
</event>
<event>
12    1  0.1442183E-007  0.1310923E+04  0.7818608E-02  0.9020948E-01
          1   -1    0    0  501    0  0.00000000000E+00  0.00000000000E+00  0.50729071804E+03  0.50729071804E+03  0.00000000000E+00 0. -1.
         -1   -1    0    0    0  501 -0.00000000000E+00 -0.00000000000E+00 -0.84690992983E+03  0.84690992983E+03  0.00000000000E+00 0.  1.
         23    2    1    2    0    0  0.24092596842E+03 -0.11667185329E+03 -0.14813211202E+03  0.31920963410E+03  0.91071533868E+02 0.  0.
        254    2    1    2    0    0 -0.24092596842E+03  0.11667185329E+03 -0.19148709976E+03  0.10349910138E+04  0.98126522694E+03 0.  0.
        -24    2    4    4    0    0 -0.36464641736E+03 -0.35911963990E+03 -0.10321817982E+03  0.52818496873E+03  0.79946501464E+02 0.  0.
         24    2    4    4    0    0  0.12372044894E+03  0.47579149319E+03 -0.88268919943E+02  0.50680604504E+03  0.85887546167E+02 0.  0.
         13    1    3    3    0    0  0.57011938133E+02 -0.99891675322E+01  0.36187685585E+01  0.57993448281E+02  0.00000000000E+00 0. -1.
        -13    1    3    3    0    0  0.18391403028E+03 -0.10668268576E+03 -0.15175088058E+03  0.26121618581E+03  0.00000000000E+00 0.  1.
          4    1    6    6  502    0  0.13205416417E+03  0.41331671710E+03 -0.61135388815E+02  0.43818551627E+03  0.00000000000E+00 0. -1.
          3    1    5    5  503    0 -0.34795235275E+03 -0.35863144206E+03 -0.92053487247E+02  0.50809565588E+03  0.00000000000E+00 0. -1.
         -4    1    5    5    0  503 -0.16694064611E+02 -0.48819783860E+00 -0.11164692573E+02  0.20089312846E+02  0.00000000000E+00 0.  1.
         -3    1    6    6    0  502 -0.83337152257E+01  0.62474776091E+02 -0.27133531127E+02  0.68620528768E+02  0.00000000000E+00 0.  1.
<mgrwt>
<rscale>  0 0.13109226E+04</rscale>
<asrwt>0</asrwt>
<pdfrwt beam="1">  1        1 0.78044726E-01 0.13109226E+04</pdfrwt>
<pdfrwt beam="2">  1       -1 0.13029383E+00 0.13109226E+04</pdfrwt>
<totfact> 0.21511576E+01</totfact>
</mgrwt>
</event>
<event>
12    1  0.1442183E-007  0.1445711E+04  0.7818608E-02  0.8921380E-01
         -2   -1    0    0    0  501 -0.00000000000E+00  0.00000000000E+00  0.59527593648E+03  0.59527593648E+03  0.00000000000E+00 0.  1.
          2   -1    0    0  501    0  0.00000000000E+00 -0.00000000000E+00 -0.87777747333E+03  0.87777747333E+03  0.00000000000E+00 0. -1.
         23    2    1    2    0    0  0.17099840133E+03 -0.37139230640E+03  0.79412971411E+02  0.42583628995E+03  0.88642130509E+02 0.  0.
        254    2    1    2    0    0 -0.17099840133E+03  0.37139230640E+03 -0.36191450826E+03  0.10472171199E+04  0.89359324433E+03 0.  0.
        -24    2    4    4    0    0  0.25239928091E+03  0.15756698680E+03  0.14998925736E+03  0.34478738263E+03  0.88593507451E+02 0.  0.
         24    2    4    4    0    0 -0.42339768224E+03  0.21382531960E+03 -0.51190376562E+03  0.70242973722E+03  0.79844886193E+02 0.  0.
         11    1    3    3    0    0  0.16730459475E+03 -0.27494083422E+03  0.60890564881E+02  0.32755297379E+03  0.00000000000E+00 0.  1.
        -11    1    3    3    0    0  0.36938065833E+01 -0.96451472181E+02  0.18522406531E+02  0.98283316167E+02  0.00000000000E+00 0. -1.
          4    1    6    6  502    0 -0.35333701201E+03  0.15830157480E+03 -0.45029355010E+03  0.59386085399E+03  0.00000000000E+00 0. -1.
          3    1    5    5  503    0  0.20704945846E+03  0.15265466463E+03  0.97130557803E+02  0.27496776200E+03  0.00000000000E+00 0. -1.
         -4    1    5    5    0  503  0.45349822459E+02  0.49123221706E+01  0.52858699557E+02  0.69819620631E+02  0.00000000000E+00 0.  1.
         -3    1    6    6    0  502 -0.70060670237E+02  0.55523744800E+02 -0.61610215514E+02  0.10856888323E+03  0.00000000000E+00 0.  1.
<mgrwt>
<rscale>  0 0.14457106E+04</rscale>
<asrwt>0</asrwt>
<pdfrwt beam="1">  1        2 0.13504269E+00 0.14457106E+04</pdfrwt>
<pdfrwt beam="2">  1       -2 0.91580914E-01 0.14457106E+04</pdfrwt>
<totfact> 0.29907061E+01</totfact>
</mgrwt>
</event>
<event>
12    1  0.1442183E-007  0.1785986E+04  0.7818608E-02  0.8713788E-01
         -2   -1    0    0    0  501 -0.00000000000E+00  0.00000000000E+00  0.95943117404E+03  0.95943117404E+03  0.00000000000E+00 0.  1.
          2   -1    0    0  501    0  0.00000000000E+00 -0.00000000000E+00 -0.83115510263E+03  0.83115510263E+03  0.00000000000E+00 0. -1.
         23    2    1    2    0    0  0.25121438659E+02 -0.62074974370E+03  0.27798043372E+03  0.68670530671E+03  0.91267331224E+02 0.  0.
        254    2    1    2    0    0 -0.25121438659E+02  0.62074974370E+03 -0.14970436231E+03  0.11038809700E+04  0.90010025484E+03 0.  0.
        -24    2    4    4    0    0  0.84879245383E+02  0.43182127441E+03 -0.50782202700E+03  0.67694434237E+03  0.81831120125E+02 0.  0.
         24    2    4    4    0    0 -0.11000068404E+03  0.18892846929E+03  0.35811766469E+03  0.42693662759E+03  0.78946217261E+02 0.  0.
         11    1    3    3    0    0  0.47997699002E+02 -0.57265319404E+03  0.25363141871E+03  0.62814357938E+03  0.00000000000E+00 0.  1.
        -11    1    3    3    0    0 -0.22876260342E+02 -0.48096549659E+02  0.24349015012E+02  0.58561727335E+02  0.00000000000E+00 0. -1.
          2    1    6    6  502    0 -0.56455196412E+02  0.12427165670E+03  0.15151879436E+03  0.20393278036E+03  0.00000000000E+00 0. -1.
          1    1    5    5  503    0  0.54034994326E+02  0.21157157618E+03 -0.31070881756E+03  0.37976608823E+03  0.00000000000E+00 0. -1.
         -2    1    5    5    0  503  0.30844251058E+02  0.22024969824E+03 -0.19711320944E+03  0.29717825413E+03  0.00000000000E+00 0.  1.
         -1    1    6    6    0  502 -0.53545487631E+02  0.64656812589E+02  0.20659887033E+03  0.22300384723E+03  0.00000000000E+00 0.  1.
<mgrwt>
<rscale>  0 0.17859856E+04</rscale>
<asrwt>0</asrwt>
<pdfrwt beam="1">  1        2 0.12787002E+00 0.17859856E+04</pdfrwt>
<pdfrwt beam="2">  1       -2 0.14760480E+00 0.17859856E+04</pdfrwt>
<totfact> 0.96664870E+00</totfact>
</mgrwt>
</event>
<event>
12    1  0.1442183E-007  0.1726292E+04  0.7818608E-02  0.8746509E-01
          1   -1    0    0  501    0  0.00000000000E+00  0.00000000000E+00  0.79000345131E+03  0.79000345131E+03  0.00000000000E+00 0. -1.
         -1   -1    0    0    0  501 -0.00000000000E+00 -0.00000000000E+00 -0.94306085680E+03  0.94306085680E+03  0.00000000000E+00 0.  1.
         23    2    1    2    0    0 -0.46767622928E+03  0.12574550416E+03 -0.44758422012E+03  0.66568063057E+03  0.90917988160E+02 0.  0.
        254    2    1    2    0    0  0.46767622928E+03 -0.12574550416E+03  0.29452681462E+03  0.10673836775E+04  0.90444949185E+03 0.  0.
        -24    2    4    4    0    0  0.44557143427E+03  0.30567875046E+03  0.14316901902E+02  0.54762788743E+03  0.87851738162E+02 0.  0.
         24    2    4    4    0    0  0.22104795014E+02 -0.43142425462E+03  0.28020991272E+03  0.51975579011E+03  0.70802378006E+02 0.  0.
         13    1    3    3    0    0 -0.23923871052E+02  0.45476118479E+01 -0.72500316058E+00  0.24363045975E+02  0.00000000000E+00 0. -1.
        -13    1    3    3    0    0 -0.44375235823E+03  0.12119789231E+03 -0.44685921695E+03  0.64131758460E+03  0.00000000000E+00 0.  1.
          4    1    6    6  502    0 -0.30615978894E+01 -0.18998708414E+03  0.16228901316E+03  0.24988435187E+03  0.00000000000E+00 0. -1.
          3    1    5    5  503    0  0.69038606844E+01  0.54618486000E+01 -0.12614980130E+02  0.15382873794E+02  0.00000000000E+00 0. -1.
         -4    1    5    5    0  503  0.43866757358E+03  0.30021690186E+03  0.26931882032E+02  0.53224501364E+03  0.00000000000E+00 0.  1.
         -3    1    6    6    0  502  0.25166392904E+02 -0.24143717048E+03  0.11792089957E+03  0.26987143824E+03  0.00000000000E+00 0.  1.
<mgrwt>
<rscale>  0 0.17262924E+04</rscale>
<asrwt>0</asrwt>
<pdfrwt beam="1">  1        1 0.12153899E+00 0.17262924E+04</pdfrwt>
<pdfrwt beam="2">  1       -1 0.14508629E+00 0.17262924E+04</pdfrwt>
<totfact> 0.81725503E+00</totfact>
</mgrwt>
</event>
<event>
12    1  0.1442183E-007  0.1735982E+04  0.7818608E-02  0.8741105E-01
          2   -1    0    0  501    0  0.00000000000E+00  0.00000000000E+00  0.24874109766E+04  0.24874109766E+04  0.00000000000E+00 0. -1.
         -2   -1    0    0    0  501 -0.00000000000E+00 -0.00000000000E+00 -0.30288852082E+03  0.30288852082E+03  0.00000000000E+00 0.  1.
         23    2    1    2    0    0 -0.24451457959E+03 -0.54915741797E+03  0.10706148091E+04  0.12331651981E+04  0.11453858263E+03 0.  0.
        254    2    1    2    0    0  0.24451457959E+03  0.54915741797E+03  0.11139076467E+04  0.15571342994E+04  0.90692653039E+03 0.  0.
        -24    2    4    4    0    0  0.43560455077E+03  0.30086010379E+03  0.11116487861E+04  0.12338536954E+04  0.79773375457E+02 0.  0.
         24    2    4    4    0    0 -0.19108997118E+03  0.24829731418E+03  0.22588606320E+01  0.32328060394E+03  0.79613523438E+02 0.  0.
         11    1    3    3    0    0 -0.46844859281E+01 -0.81141951311E+02  0.96548964438E+02  0.12620484620E+03  0.00000000000E+00 0.  1.
        -11    1    3    3    0    0 -0.23983009366E+03 -0.46801546666E+03  0.97406584465E+03  0.11069603519E+04  0.00000000000E+00 0. -1.
          4    1    6    6  502    0 -0.16203452290E+03  0.19582012115E+03  0.32271514355E+02  0.25620725419E+03  0.00000000000E+00 0. -1.
          1    1    5    5  503    0  0.24868075851E+03  0.12437226831E+03  0.55853946448E+03  0.62392059924E+03  0.00000000000E+00 0. -1.
         -2    1    5    5    0  503  0.18692379226E+03  0.17648783548E+03  0.55310932158E+03  0.60993309617E+03  0.00000000000E+00 0.  1.
         -3    1    6    6    0  502 -0.29055448282E+02  0.52477193035E+02 -0.30012653723E+02  0.67073349754E+02  0.00000000000E+00 0.  1.
<mgrwt>
<rscale>  0 0.17359818E+04</rscale>
<asrwt>0</asrwt>
<pdfrwt beam="1">  1        2 0.38267860E+00 0.17359818E+04</pdfrwt>
<pdfrwt beam="2">  1       -2 0.46598236E-01 0.17359818E+04</pdfrwt>
<totfact> 0.14686505E+01</totfact>
</mgrwt>
</event>
<event>
12    1  0.1442183E-007  0.1495146E+04  0.7818608E-02  0.8887687E-01
          2   -1    0    0  501    0  0.00000000000E+00  0.00000000000E+00  0.74487272226E+03  0.74487272226E+03  0.00000000000E+00 0.  1.
         -2   -1    0    0    0  501 -0.00000000000E+00 -0.00000000000E+00 -0.75028341496E+03  0.75028341496E+03  0.00000000000E+00 0. -1.
         23    2    1    2    0    0 -0.34564119764E+03  0.15695258680E+03  0.27865748479E+03  0.47942257791E+03  0.89967007108E+02 0.  0.
        254    2    1    2    0    0  0.34564119764E+03 -0.15695258680E+03 -0.28406817749E+03  0.10157335593E+04  0.89828613595E+03 0.  0.
        -24    2    4    4    0    0  0.30405555117E+03  0.33687004305E+03 -0.53034266504E+02  0.46363757389E+03  0.78841374933E+02 0.  0.
         24    2    4    4    0    0  0.41585646470E+02 -0.49382262984E+03 -0.23103391099E+03  0.55209598541E+03  0.76440521625E+02 0.  0.
         13    1    3    3    0    0 -0.18952373961E+03  0.67682274457E+02  0.95574994304E+02  0.22278850439E+03  0.00000000000E+00 0. -1.
        -13    1    3    3    0    0 -0.15611745803E+03  0.89270312342E+02  0.18308249049E+03  0.25663407352E+03  0.00000000000E+00 0.  1.
          2    1    6    6  502    0  0.61582573266E+02 -0.43043939455E+03 -0.19583286414E+03  0.47688677522E+03  0.00000000000E+00 0. -1.
          3    1    5    5  503    0  0.25424928172E+03  0.31375824197E+03 -0.60062189597E+02  0.40828225320E+03  0.00000000000E+00 0. -1.
         -4    1    5    5    0  503  0.49806269458E+02  0.23111801073E+02  0.70279230926E+01  0.55355320694E+02  0.00000000000E+00 0.  1.
         -1    1    6    6    0  502 -0.19996926796E+02 -0.63383235298E+02 -0.35201046850E+02  0.75209210191E+02  0.00000000000E+00 0.  1.
<mgrwt>
<rscale>  0 0.14951463E+04</rscale>
<asrwt>0</asrwt>
<pdfrwt beam="1">  1        2 0.11459580E+00 0.14951463E+04</pdfrwt>
<pdfrwt beam="2">  1       -2 0.11542822E+00 0.14951463E+04</pdfrwt>
<totfact> 0.21367738E+01</totfact>
</mgrwt>
</event>
<event>
12    1  0.1442183E-007  0.2095246E+04  0.7818608E-02  0.8563341E-01
          1   -1    0    0  501    0  0.00000000000E+00  0.00000000000E+00  0.13931591481E+04  0.13931591481E+04  0.00000000000E+00 0. -1.
         -1   -1    0    0    0  501 -0.00000000000E+00 -0.00000000000E+00 -0.78778758145E+03  0.78778758145E+03  0.00000000000E+00 0.  1.
         23    2    1    2    0    0  0.45965482236E+03 -0.40876840358E+03 -0.36406795115E+03  0.72076519594E+03  0.92643570414E+02 0.  0.
        254    2    1    2    0    0 -0.45965482236E+03  0.40876840358E+03  0.96943951783E+03  0.14601815336E+04  0.90218787898E+03 0.  0.
        -24    2    4    4    0    0 -0.35397974650E+03  0.80940587827E+02  0.10358774669E+04  0.11006315068E+04  0.80588755777E+02 0.  0.
         24    2    4    4    0    0 -0.10567507586E+03  0.32782781575E+03 -0.66437949081E+02  0.35955002687E+03  0.78891839279E+02 0.  0.
         13    1    3    3    0    0  0.56174465362E+02 -0.14712766293E+02 -0.32997935240E+02  0.66789967666E+02  0.00000000000E+00 0. -1.
        -13    1    3    3    0    0  0.40348035700E+03 -0.39405563729E+03 -0.33107001591E+03  0.65397522827E+03  0.00000000000E+00 0.  1.
          4    1    6    6  502    0 -0.26909772363E+02  0.17847983380E+03 -0.61313941360E+02  0.19062682478E+03  0.00000000000E+00 0. -1.
          1    1    5    5  503    0 -0.32061434329E+03  0.47444006310E+02  0.92311273627E+03  0.97835658873E+03  0.00000000000E+00 0. -1.
         -2    1    5    5    0  503 -0.33365403217E+02  0.33496581518E+02  0.11276473065E+03  0.12227491805E+03  0.00000000000E+00 0.  1.
         -3    1    6    6    0  502 -0.78765303493E+02  0.14934798196E+03 -0.51240077207E+01  0.16892320209E+03  0.00000000000E+00 0.  1.
<mgrwt>
<rscale>  0 0.20952455E+04</rscale>
<asrwt>0</asrwt>
<pdfrwt beam="1">  1        1 0.21433218E+00 0.20952455E+04</pdfrwt>
<pdfrwt beam="2">  1       -1 0.12119809E+00 0.20952455E+04</pdfrwt>
<totfact> 0.43182177E+00</totfact>
</mgrwt>
</event>
<event>
12    1  0.1442183E-007  0.1726967E+04  0.7818608E-02  0.8746132E-01
         -1   -1    0    0    0  501 -0.00000000000E+00  0.00000000000E+00  0.42635032597E+03  0.42635032597E+03  0.00000000000E+00 0.  1.
          1   -1    0    0  501    0  0.00000000000E+00 -0.00000000000E+00 -0.17488062344E+04  0.17488062344E+04  0.00000000000E+00 0. -1.
         23    2    1    2    0    0  0.15080793389E+03 -0.31219218101E+02  0.28095205094E+03  0.33300125220E+03  0.90764015654E+02 0.  0.
        254    2    1    2    0    0 -0.15080793389E+03  0.31219218101E+02 -0.16034079593E+04  0.18421553081E+04  0.89381285667E+03 0.  0.
        -24    2    4    4    0    0  0.14054492309E+03  0.83433147251E+02  0.25985741987E+02  0.18410698308E+03  0.80660752333E+02 0.  0.
         24    2    4    4    0    0 -0.29135285698E+03 -0.52213929151E+02 -0.16293937013E+04  0.16580483251E+04  0.81164232547E+02 0.  0.
         13    1    3    3    0    0  0.55111357613E+02 -0.48185763519E+02  0.72624901278E+02  0.10311889172E+03  0.00000000000E+00 0. -1.
        -13    1    3    3    0    0  0.95696576275E+02  0.16966545419E+02  0.20832714966E+03  0.22988236048E+03  0.00000000000E+00 0.  1.
          4    1    6    6  502    0 -0.26480702686E+03 -0.48313815810E+02 -0.15695537687E+04  0.15924685300E+04  0.00000000000E+00 0. -1.
          1    1    5    5  503    0  0.14746881772E+03  0.68446594444E+02  0.33457560484E+02  0.16598613449E+03  0.00000000000E+00 0. -1.
         -2    1    5    5    0  503 -0.69238946315E+01  0.14986552807E+02 -0.74718184968E+01  0.18120848589E+02  0.00000000000E+00 0.  1.
         -3    1    6    6    0  502 -0.26545830115E+02 -0.39001133411E+01 -0.59839932653E+02  0.65579795063E+02  0.00000000000E+00 0.  1.
<mgrwt>
<rscale>  0 0.17269674E+04</rscale>
<asrwt>0</asrwt>
<pdfrwt beam="1">  1        1 0.26904711E+00 0.17269674E+04</pdfrwt>
<pdfrwt beam="2">  1       -1 0.65592358E-01 0.17269674E+04</pdfrwt>
<totfact> 0.98747350E+00</totfact>
</mgrwt>
</event>
<event>
12    1  0.1442183E-007  0.1271812E+04  0.7818608E-02  0.9052222E-01
         -2   -1    0    0    0  501 -0.00000000000E+00  0.00000000000E+00  0.44396330585E+03  0.44396330585E+03  0.00000000000E+00 0.  1.
          2   -1    0    0  501    0  0.00000000000E+00 -0.00000000000E+00 -0.91083257732E+03  0.91083257732E+03  0.00000000000E+00 0. -1.
         23    2    1    2    0    0  0.35284871896E+01  0.13181024575E+03  0.17538120994E+03  0.23794088721E+03  0.92037524402E+02 0.  0.
        254    2    1    2    0    0 -0.35284871896E+01 -0.13181024575E+03 -0.64225048141E+03  0.11168549960E+04  0.90415320053E+03 0.  0.
        -24    2    4    4    0    0 -0.12288841746E+03  0.34741174888E+03 -0.43466624236E+03  0.57526711271E+03  0.78746570099E+02 0.  0.
         24    2    4    4    0    0  0.11935993028E+03 -0.47922199464E+03 -0.20758423904E+03  0.54158788325E+03  0.79534306348E+02 0.  0.
         13    1    3    3    0    0 -0.15237578602E+00  0.13389552194E+03  0.18445513992E+03  0.22792922730E+03  0.00000000000E+00 0.  1.
        -13    1    3    3    0    0  0.36808629756E+01 -0.20852761873E+01 -0.90739299752E+01  0.10011659913E+02  0.00000000000E+00 0. -1.
          4    1    6    6  502    0  0.88689746269E+02 -0.27970715647E+03 -0.15991281185E+03  0.33417670755E+03  0.00000000000E+00 0. -1.
          3    1    5    5  503    0 -0.11860016150E+03  0.34731492988E+03 -0.43676762310E+03  0.57049067951E+03  0.00000000000E+00 0. -1.
         -4    1    5    5    0  503 -0.42882559601E+01  0.96819008619E-01  0.21013807325E+01  0.47764331967E+01  0.00000000000E+00 0.  1.
         -3    1    6    6    0  502  0.30670184006E+02 -0.19951483816E+03 -0.47671427190E+02  0.20741117570E+03  0.00000000000E+00 0.  1.
<mgrwt>
<rscale>  0 0.12718117E+04</rscale>
<asrwt>0</asrwt>
<pdfrwt beam="1">  1        2 0.14012809E+00 0.12718117E+04</pdfrwt>
<pdfrwt beam="2">  1       -2 0.68302047E-01 0.12718117E+04</pdfrwt>
<totfact> 0.55546845E+01</totfact>
</mgrwt>
</event>
<event>
12    1  0.1442183E-007  0.1752827E+04  0.7818608E-02  0.8731796E-01
          1   -1    0    0  501    0  0.00000000000E+00  0.00000000000E+00  0.10183235558E+04  0.10183235558E+04  0.00000000000E+00 0. -1.
         -1   -1    0    0    0  501 -0.00000000000E+00 -0.00000000000E+00 -0.75427951745E+03  0.75427951745E+03  0.00000000000E+00 0.  1.
         23    2    1    2    0    0 -0.65895204267E+02  0.21128935760E+03 -0.50539841320E+03  0.55896200024E+03  0.89585663306E+02 0.  0.
        254    2    1    2    0    0  0.65895204267E+02 -0.21128935760E+03  0.76944245150E+03  0.12136410730E+04  0.91208420512E+03 0.  0.
        -24    2    4    4    0    0  0.24431913121E+03  0.18309689603E+02 -0.11293951435E+03  0.28098512625E+03  0.78550777615E+02 0.  0.
         24    2    4    4    0    0 -0.17842392695E+03 -0.22959904720E+03  0.88238196585E+03  0.93265594671E+03  0.81843515959E+02 0.  0.
         11    1    3    3    0    0  0.10363351919E+02 -0.32913767681E+01 -0.18970939687E+02  0.21866155964E+02  0.00000000000E+00 0. -1.
        -11    1    3    3    0    0 -0.76258556186E+02  0.21458073437E+03 -0.48642747351E+03  0.53709584428E+03  0.00000000000E+00 0.  1.
          2    1    6    6  502    0 -0.15119072067E+03 -0.22359208841E+03  0.74288704489E+03  0.79040066895E+03  0.00000000000E+00 0. -1.
          3    1    5    5  503    0  0.22915725200E+03  0.30071744963E+02 -0.12014883930E+03  0.26048627521E+03  0.00000000000E+00 0. -1.
         -4    1    5    5    0  503  0.15161879215E+02 -0.11762055360E+02  0.72093249556E+01  0.20498851039E+02  0.00000000000E+00 0.  1.
         -1    1    6    6    0  502 -0.27233206280E+02 -0.60069587953E+01  0.13949492096E+03  0.14225527776E+03  0.00000000000E+00 0.  1.
<mgrwt>
<rscale>  0 0.17528270E+04</rscale>
<asrwt>0</asrwt>
<pdfrwt beam="1">  1        1 0.15666516E+00 0.17528270E+04</pdfrwt>
<pdfrwt beam="2">  1       -1 0.11604300E+00 0.17528270E+04</pdfrwt>
<totfact> 0.93181141E+00</totfact>
</mgrwt>
</event>
<event>
12    1  0.1442183E-007  0.1228578E+04  0.7818608E-02  0.9088204E-01
         -1   -1    0    0    0  501 -0.00000000000E+00  0.00000000000E+00  0.33376114032E+03  0.33376114032E+03  0.00000000000E+00 0.  1.
          1   -1    0    0  501    0  0.00000000000E+00 -0.00000000000E+00 -0.11306014684E+04  0.11306014684E+04  0.00000000000E+00 0. -1.
         23    2    1    2    0    0 -0.14164815421E+03  0.20575350863E+03 -0.59525616496E+02  0.27241865981E+03  0.90939107588E+02 0.  0.
        254    2    1    2    0    0  0.14164815421E+03 -0.20575350863E+03 -0.73731471162E+03  0.11919439489E+04  0.90260660731E+03 0.  0.
        -24    2    4    4    0    0  0.21137379117E+03 -0.53754293247E+03 -0.52415768680E+03  0.78396956670E+03  0.78966556364E+02 0.  0.
         24    2    4    4    0    0 -0.69725636955E+02  0.33178942384E+03 -0.21315702482E+03  0.40797438225E+03  0.77854307041E+02 0.  0.
         11    1    3    3    0    0 -0.11765460586E+03  0.18838980512E+03 -0.19974612776E+02  0.22300742164E+03  0.00000000000E+00 0.  1.
        -11    1    3    3    0    0 -0.23993548352E+02  0.17363703515E+02 -0.39551003720E+02  0.49411238171E+02  0.00000000000E+00 0. -1.
          2    1    6    6  502    0 -0.15912296165E+01  0.15804819718E+01  0.56189811422E+01  0.60500317381E+01  0.00000000000E+00 0. -1.
          3    1    5    5  503    0  0.90043143010E+02 -0.15661105656E+03 -0.19788219122E+03  0.26794057595E+03  0.00000000000E+00 0. -1.
         -4    1    5    5    0  503  0.12133064816E+03 -0.38093187591E+03 -0.32627549559E+03  0.51602899074E+03  0.00000000000E+00 0.  1.
         -1    1    6    6    0  502 -0.68134407339E+02  0.33020894187E+03 -0.21877600596E+03  0.40192435052E+03  0.00000000000E+00 0.  1.
<mgrwt>
<rscale>  0 0.12285778E+04</rscale>
<asrwt>0</asrwt>
<pdfrwt beam="1">  1        1 0.17393868E+00 0.12285778E+04</pdfrwt>
<pdfrwt beam="2">  1       -1 0.51347869E-01 0.12285778E+04</pdfrwt>
<totfact> 0.45301286E+01</totfact>
</mgrwt>
</event>
<event>
12    1  0.1442183E-007  0.2403131E+04  0.7818608E-02  0.8438332E-01
         -2   -1    0    0    0  501 -0.00000000000E+00  0.00000000000E+00  0.61510721601E+03  0.61510721601E+03  0.00000000000E+00 0.  1.
          2   -1    0    0  501    0  0.00000000000E+00 -0.00000000000E+00 -0.23471668485E+04  0.23471668485E+04  0.00000000000E+00 0. -1.
         23    2    1    2    0    0  0.20880998030E+03 -0.59118540337E+03  0.26223912955E+03  0.68553054899E+03  0.89894290680E+02 0.  0.
        254    2    1    2    0    0 -0.20880998030E+03  0.59118540337E+03 -0.19942987621E+04  0.22767435156E+04  0.90179359842E+03 0.  0.
        -24    2    4    4    0    0 -0.89503354499E+02 -0.23314413370E+03 -0.47953694699E+03  0.54621572786E+03  0.77645993400E+02 0.  0.
         24    2    4    4    0    0 -0.11930662580E+03  0.82432953707E+03 -0.15147618151E+04  0.17305277877E+04  0.80435134586E+02 0.  0.
         13    1    3    3    0    0  0.18566090658E+03 -0.57359031227E+03  0.25936328746E+03  0.65631176543E+03  0.00000000000E+00 0.  1.
        -13    1    3    3    0    0  0.23149073717E+02 -0.17595091107E+02  0.28758420896E+01  0.29218783561E+02  0.00000000000E+00 0. -1.
          4    1    6    6  502    0 -0.16673758916E+02  0.19955682961E+03 -0.43378954275E+03  0.47778060852E+03  0.00000000000E+00 0. -1.
          3    1    5    5  503    0 -0.30563912540E-02  0.37159660204E+01 -0.30363933781E+02  0.30590470533E+02  0.00000000000E+00 0. -1.
         -4    1    5    5    0  503 -0.89500298107E+02 -0.23686009972E+03 -0.44917301321E+03  0.51562525733E+03  0.00000000000E+00 0.  1.
         -3    1    6    6    0  502 -0.10263286688E+03  0.62477270746E+03 -0.10809722723E+04  0.12527471792E+04  0.00000000000E+00 0.  1.
<mgrwt>
<rscale>  0 0.24031307E+04</rscale>
<asrwt>0</asrwt>
<pdfrwt beam="1">  1        2 0.36110258E+00 0.24031307E+04</pdfrwt>
<pdfrwt beam="2">  1       -2 0.94631883E-01 0.24031307E+04</pdfrwt>
<totfact> 0.36029892E+00</totfact>
</mgrwt>
</event>
<event>
12    1  0.1442183E-007  0.2115738E+04  0.7818608E-02  0.8554342E-01
         -1   -1    0    0    0  501 -0.00000000000E+00  0.00000000000E+00  0.64078884211E+03  0.64078884211E+03  0.00000000000E+00 0.  1.
          1   -1    0    0  501    0  0.00000000000E+00 -0.00000000000E+00 -0.17464198846E+04  0.17464198846E+04  0.00000000000E+00 0. -1.
         23    2    1    2    0    0  0.47441824061E+03 -0.70581545705E+03 -0.63936828652E+03  0.10678567401E+04  0.90983983097E+02 0.  0.
        254    2    1    2    0    0 -0.47441824061E+03  0.70581545705E+03 -0.46626275594E+03  0.13193519866E+04  0.89444987586E+03 0.  0.
        -24    2    4    4    0    0 -0.42883597795E+03 -0.60830662389E+02 -0.28953778129E+03  0.52724817470E+03  0.80980525188E+02 0.  0.
         24    2    4    4    0    0 -0.45582262661E+02  0.76664611944E+03 -0.17672497465E+03  0.79210381186E+03  0.79829298937E+02 0.  0.
         13    1    3    3    0    0  0.36756609343E+03 -0.55981815651E+03 -0.45565870079E+03  0.81001608194E+03  0.00000000000E+00 0. -1.
        -13    1    3    3    0    0  0.10685214718E+03 -0.14599730054E+03 -0.18370958573E+03  0.25784065818E+03  0.00000000000E+00 0.  1.
          2    1    6    6  502    0  0.22680247657E+02  0.21620525750E+03 -0.55170581129E+02  0.22428308012E+03  0.00000000000E+00 0. -1.
          1    1    5    5  503    0 -0.22639742518E+03  0.87371608335E+01 -0.14712597335E+03  0.27014474665E+03  0.00000000000E+00 0. -1.
         -2    1    5    5    0  503 -0.20243855277E+03 -0.69567823223E+02 -0.14241180794E+03  0.25710342805E+03  0.00000000000E+00 0.  1.
         -1    1    6    6    0  502 -0.68262510317E+02  0.55044086194E+03 -0.12155439353E+03  0.56782073174E+03  0.00000000000E+00 0.  1.
<mgrwt>
<rscale>  0 0.21157376E+04</rscale>
<asrwt>0</asrwt>
<pdfrwt beam="1">  1        1 0.26867998E+00 0.21157376E+04</pdfrwt>
<pdfrwt beam="2">  1       -1 0.98582898E-01 0.21157376E+04</pdfrwt>
<totfact> 0.40067373E+00</totfact>
</mgrwt>
</event>
<event>
12    1  0.1442183E-007  0.3552322E+04  0.7818608E-02  0.8101501E-01
         -2   -1    0    0    0  501 -0.00000000000E+00  0.00000000000E+00  0.15154412167E+04  0.15154412167E+04  0.00000000000E+00 0.  1.
          2   -1    0    0  501    0  0.00000000000E+00 -0.00000000000E+00 -0.20817353137E+04  0.20817353137E+04  0.00000000000E+00 0. -1.
         23    2    1    2    0    0  0.13336799927E+04 -0.19313277380E+03  0.71843110618E+03  0.15298626337E+04  0.91289825174E+02 0.  0.
        254    2    1    2    0    0 -0.13336799927E+04  0.19313277380E+03 -0.12847252032E+04  0.20673138968E+04  0.89847944254E+03 0.  0.
        -24    2    4    4    0    0 -0.93636579805E+03  0.54033598433E+03 -0.90582688358E+03  0.14127663174E+04  0.81501170812E+02 0.  0.
         24    2    4    4    0    0 -0.39731419469E+03 -0.34720321053E+03 -0.37889831960E+03  0.65454757935E+03  0.80373865978E+02 0.  0.
         11    1    3    3    0    0  0.52592990713E+03 -0.67206869033E+02  0.23346568692E+03  0.57933173349E+03  0.00000000000E+00 0. -1.
        -11    1    3    3    0    0  0.80775008561E+03 -0.12592590477E+03  0.48496541926E+03  0.95053090016E+03  0.00000000000E+00 0.  1.
          2    1    6    6  502    0 -0.13157301864E+03 -0.12668466767E+03 -0.86657149436E+02  0.20216311683E+03  0.00000000000E+00 0. -1.
          1    1    5    5  503    0 -0.19576307148E+03  0.78273989594E+02 -0.16126267356E+03  0.26543482719E+03  0.00000000000E+00 0. -1.
         -2    1    5    5    0  503 -0.74060272657E+03  0.46206199474E+03 -0.74456421002E+03  0.11473314902E+04  0.00000000000E+00 0.  1.
         -1    1    6    6    0  502 -0.26574117605E+03 -0.22051854286E+03 -0.29224117017E+03  0.45238446253E+03  0.00000000000E+00 0.  1.
<mgrwt>
<rscale>  0 0.35523218E+04</rscale>
<asrwt>0</asrwt>
<pdfrwt beam="1">  1        2 0.32026697E+00 0.35523218E+04</pdfrwt>
<pdfrwt beam="2">  1       -2 0.23314480E+00 0.35523218E+04</pdfrwt>
<totfact> 0.40222723E-01</totfact>
</mgrwt>
</event>
<event>
12    1  0.1442183E-007  0.1939928E+04  0.7818608E-02  0.8635233E-01
          1   -1    0    0  501    0  0.00000000000E+00  0.00000000000E+00  0.20257090174E+04  0.20257090174E+04  0.00000000000E+00 0. -1.
         -1   -1    0    0    0  501 -0.00000000000E+00 -0.00000000000E+00 -0.46444483731E+03  0.46444483731E+03  0.00000000000E+00 0.  1.
         23    2    1    2    0    0  0.51006943808E+02 -0.40596514912E+03 -0.21217078309E+03  0.47051968222E+03  0.94672696959E+02 0.  0.
        254    2    1    2    0    0 -0.51006943808E+02  0.40596514912E+03  0.17734349632E+04  0.20196341725E+04  0.87546628229E+03 0.  0.
        -24    2    4    4    0    0  0.32350823499E+03  0.40576255897E+03  0.13516009530E+04  0.14500685681E+04  0.81073322978E+02 0.  0.
         24    2    4    4    0    0 -0.37451517879E+03  0.20259014470E+00  0.42183401024E+03  0.56956560443E+03  0.78736175714E+02 0.  0.
         13    1    3    3    0    0  0.15207507965E+02 -0.25392706056E+03 -0.17843022816E+03  0.31072104322E+03  0.00000000000E+00 0.  1.
        -13    1    3    3    0    0  0.35799435843E+02 -0.15203808856E+03 -0.33740554932E+02  0.15979863900E+03  0.00000000000E+00 0. -1.
          4    1    6    6  502    0 -0.16375294430E+03 -0.16860644098E+02  0.13316342785E+03  0.21173522759E+03  0.00000000000E+00 0. -1.
          1    1    5    5  503    0  0.11290308315E+03  0.19536411808E+03  0.52239017321E+03  0.56903931137E+03  0.00000000000E+00 0. -1.
         -2    1    5    5    0  503  0.21060515184E+03  0.21039844089E+03  0.82921077975E+03  0.88102925670E+03  0.00000000000E+00 0.  1.
         -3    1    6    6    0  502 -0.21076223449E+03  0.17063234243E+02  0.28867058239E+03  0.35783037684E+03  0.00000000000E+00 0.  1.
<mgrwt>
<rscale>  0 0.19399279E+04</rscale>
<asrwt>0</asrwt>
<pdfrwt beam="1">  1        1 0.31164754E+00 0.19399279E+04</pdfrwt>
<pdfrwt beam="2">  1       -1 0.71453053E-01 0.19399279E+04</pdfrwt>
<totfact> 0.52785762E+00</totfact>
</mgrwt>
</event>
<event>
12    1  0.1442183E-007  0.1756725E+04  0.7818608E-02  0.8729657E-01
         -1   -1    0    0    0  501 -0.00000000000E+00  0.00000000000E+00  0.81531350483E+03  0.81531350483E+03  0.00000000000E+00 0.  1.
          1   -1    0    0  501    0  0.00000000000E+00 -0.00000000000E+00 -0.94628672776E+03  0.94628672776E+03  0.00000000000E+00 0. -1.
         23    2    1    2    0    0  0.37103188770E+02  0.31379689232E+03 -0.60233538802E+03  0.68610607753E+03  0.89936053489E+02 0.  0.
        254    2    1    2    0    0 -0.37103188770E+02 -0.31379689232E+03  0.47136216510E+03  0.10754941551E+04  0.91359742263E+03 0.  0.
        -24    2    4    4    0    0  0.15378640528E+03  0.11023553743E+03  0.55944699628E+03  0.59586042262E+03  0.79161666429E+02 0.  0.
         24    2    4    4    0    0 -0.19088959405E+03 -0.42403242975E+03 -0.88084831187E+02  0.47963373244E+03  0.77764009770E+02 0.  0.
         13    1    3    3    0    0  0.49083674943E+02  0.90218487763E+02 -0.15623568695E+03  0.18697104738E+03  0.00000000000E+00 0.  1.
        -13    1    3    3    0    0 -0.11980486173E+02  0.22357840455E+03 -0.44609970107E+03  0.49913503015E+03  0.00000000000E+00 0. -1.
          2    1    6    6  502    0 -0.10042198703E+03 -0.22597748200E+03 -0.86223146714E+02  0.26188705367E+03  0.00000000000E+00 0. -1.
          1    1    5    5  503    0  0.89816280611E+02  0.93164917488E+02  0.44714112963E+03  0.46549098372E+03  0.00000000000E+00 0. -1.
         -2    1    5    5    0  503  0.63970124667E+02  0.17070619942E+02  0.11230586665E+03  0.13036943890E+03  0.00000000000E+00 0.  1.
         -1    1    6    6    0  502 -0.90467607015E+02 -0.19805494774E+03 -0.18616844729E+01  0.21774667877E+03  0.00000000000E+00 0.  1.
<mgrwt>
<rscale>  0 0.17567246E+04</rscale>
<asrwt>0</asrwt>
<pdfrwt beam="1">  1        1 0.14558257E+00 0.17567246E+04</pdfrwt>
<pdfrwt beam="2">  1       -1 0.12543285E+00 0.17567246E+04</pdfrwt>
<totfact> 0.87709143E+00</totfact>
</mgrwt>
</event>
<event>
12    1  0.1442183E-007  0.1780010E+04  0.7818608E-02  0.8717003E-01
          2   -1    0    0  501    0  0.00000000000E+00  0.00000000000E+00  0.82717401801E+03  0.82717401801E+03  0.00000000000E+00 0. -1.
         -2   -1    0    0    0  501 -0.00000000000E+00 -0.00000000000E+00 -0.95760836452E+03  0.95760836452E+03  0.00000000000E+00 0.  1.
         23    2    1    2    0    0 -0.73163765510E+02  0.41311300879E+03  0.45737801335E+03  0.62747182372E+03  0.92254798532E+02 0.  0.
        254    2    1    2    0    0  0.73163765510E+02 -0.41311300879E+03 -0.58781235986E+03  0.11573105588E+04  0.90433902079E+03 0.  0.
        -24    2    4    4    0    0 -0.68422906697E+02 -0.64576060847E+03 -0.57826093038E+03  0.87334495641E+03  0.81591982862E+02 0.  0.
         24    2    4    4    0    0  0.14158667221E+03  0.23264759968E+03 -0.95514294798E+01  0.28396560240E+03  0.79834467215E+02 0.  0.
         13    1    3    3    0    0 -0.68249542633E+02  0.40336454988E+03  0.46064137336E+03  0.61607745862E+03  0.00000000000E+00 0. -1.
        -13    1    3    3    0    0 -0.49142228769E+01  0.97484589094E+01 -0.32633600046E+01  0.11394365104E+02  0.00000000000E+00 0.  1.
          2    1    6    6  502    0  0.26469145933E+02  0.45153093674E+02 -0.34279778428E+02  0.62566131124E+02  0.00000000000E+00 0. -1.
          1    1    5    5  503    0 -0.67306757957E+02 -0.29585603794E+03 -0.24271430157E+03  0.38855016026E+03  0.00000000000E+00 0. -1.
         -2    1    5    5    0  503 -0.11161487407E+01 -0.34990457054E+03 -0.33554662881E+03  0.48479479615E+03  0.00000000000E+00 0.  1.
         -1    1    6    6    0  502  0.11511752627E+03  0.18749450601E+03  0.24728348948E+02  0.22139947128E+03  0.00000000000E+00 0.  1.
<mgrwt>
<rscale>  0 0.17800098E+04</rscale>
<asrwt>0</asrwt>
<pdfrwt beam="1">  1        2 0.12725754E+00 0.17800098E+04</pdfrwt>
<pdfrwt beam="2">  1       -2 0.14732436E+00 0.17800098E+04</pdfrwt>
<totfact> 0.97830801E+00</totfact>
</mgrwt>
</event>
<event>
12    1  0.1442183E-007  0.2017976E+04  0.7818608E-02  0.8598262E-01
          2   -1    0    0  501    0  0.00000000000E+00  0.00000000000E+00  0.11498471146E+04  0.11498471146E+04  0.00000000000E+00 0. -1.
         -2   -1    0    0    0  501 -0.00000000000E+00 -0.00000000000E+00 -0.88538461330E+03  0.88538461330E+03  0.00000000000E+00 0.  1.
         23    2    1    2    0    0 -0.78517415767E+03 -0.16366893819E+03  0.11199266628E+03  0.81375851825E+03  0.79841026518E+02 0.  0.
        254    2    1    2    0    0  0.78517415767E+03  0.16366893819E+03  0.15246983505E+03  0.12214732097E+04  0.90855036853E+03 0.  0.
        -24    2    4    4    0    0  0.21034948628E+03  0.44287092703E+03 -0.13771527991E+03  0.51536381803E+03  0.79074662392E+02 0.  0.
         24    2    4    4    0    0  0.57482467140E+03 -0.27920198884E+03  0.29018511496E+03  0.70610939165E+03  0.77497861968E+02 0.  0.
         11    1    3    3    0    0 -0.75980367713E+03 -0.14272729311E+03  0.10614309054E+03  0.78034547711E+03  0.00000000000E+00 0.  1.
        -11    1    3    3    0    0 -0.25370480548E+02 -0.20941645084E+02  0.58495757350E+01  0.33413041142E+02  0.00000000000E+00 0. -1.
          2    1    6    6  502    0  0.48683783458E+03 -0.21361815330E+03  0.21711021909E+03  0.57426530439E+03  0.00000000000E+00 0. -1.
          3    1    5    5  503    0  0.19442931461E+03  0.39854093344E+03 -0.98910088014E+02  0.45433560230E+03  0.00000000000E+00 0. -1.
         -4    1    5    5    0  503  0.15920171672E+02  0.44329993588E+02 -0.38805191895E+02  0.61028215733E+02  0.00000000000E+00 0.  1.
         -1    1    6    6    0  502  0.87986836821E+02 -0.65583835544E+02  0.73074895872E+02  0.13184408726E+03  0.00000000000E+00 0.  1.
<mgrwt>
<rscale>  0 0.20179762E+04</rscale>
<asrwt>0</asrwt>
<pdfrwt beam="1">  1        2 0.17689956E+00 0.20179762E+04</pdfrwt>
<pdfrwt beam="2">  1       -2 0.13621302E+00 0.20179762E+04</pdfrwt>
<totfact> 0.72645151E+00</totfact>
</mgrwt>
</event>
<event>
12    1  0.1442183E-007  0.1228827E+04  0.7818608E-02  0.9087992E-01
          1   -1    0    0  501    0  0.00000000000E+00  0.00000000000E+00  0.23780569457E+03  0.23780569457E+03  0.00000000000E+00 0. -1.
         -1   -1    0    0    0  501 -0.00000000000E+00 -0.00000000000E+00 -0.15874464373E+04  0.15874464373E+04  0.00000000000E+00 0.  1.
         23    2    1    2    0    0 -0.12195079543E+03 -0.22936492948E+03 -0.47703224563E+03  0.55029206604E+03  0.88211831367E+02 0.  0.
        254    2    1    2    0    0  0.12195079543E+03  0.22936492948E+03 -0.87260849712E+03  0.12749600658E+04  0.89252300412E+03 0.  0.
        -24    2    4    4    0    0  0.44364207634E+03 -0.76731912412E+02 -0.57584570391E+03  0.73508546710E+03  0.77757899570E+02 0.  0.
         24    2    4    4    0    0 -0.32169128092E+03  0.30609684189E+03 -0.29676279320E+03  0.53987459874E+03  0.78840789593E+02 0.  0.
         11    1    3    3    0    0 -0.51078756083E+02 -0.63238998206E+02 -0.23242379353E+03  0.24622962863E+03  0.00000000000E+00 0. -1.
        -11    1    3    3    0    0 -0.70872039343E+02 -0.16612593128E+03 -0.24460845210E+03  0.30406243740E+03  0.00000000000E+00 0.  1.
          2    1    6    6  502    0 -0.70480906577E+02  0.42553178775E+02 -0.26678140756E+02  0.86545100439E+02  0.00000000000E+00 0. -1.
          1    1    5    5  503    0  0.29765500198E+03 -0.22942945538E+02 -0.41588123209E+03  0.51193952588E+03  0.00000000000E+00 0. -1.
         -2    1    5    5    0  503  0.14598707436E+03 -0.53788966874E+02 -0.15996447183E+03  0.22314594122E+03  0.00000000000E+00 0.  1.
         -1    1    6    6    0  502 -0.25121037434E+03  0.26354366312E+03 -0.27008465244E+03  0.45332949830E+03  0.00000000000E+00 0.  1.
<mgrwt>
<rscale>  0 0.12288268E+04</rscale>
<asrwt>0</asrwt>
<pdfrwt beam="1">  1        1 0.36585491E-01 0.12288268E+04</pdfrwt>
<pdfrwt beam="2">  1       -1 0.24422253E+00 0.12288268E+04</pdfrwt>
<totfact> 0.89336942E+00</totfact>
</mgrwt>
</event>
<event>
12    1  0.1442183E-007  0.1305183E+04  0.7818608E-02  0.9025465E-01
         -2   -1    0    0    0  501 -0.00000000000E+00  0.00000000000E+00  0.56447023912E+03  0.56447023912E+03  0.00000000000E+00 0.  1.
          2   -1    0    0  501    0  0.00000000000E+00 -0.00000000000E+00 -0.75447003498E+03  0.75447003498E+03  0.00000000000E+00 0. -1.
         23    2    1    2    0    0 -0.95906614091E-02 -0.24475822163E+03 -0.12148354350E+03  0.28807401526E+03  0.91223899172E+02 0.  0.
        254    2    1    2    0    0  0.95906614091E-02  0.24475822163E+03 -0.68516252359E+02  0.10308662588E+04  0.99904163057E+03 0.  0.
        -24    2    4    4    0    0 -0.17889334035E+01  0.36602269503E+03  0.39533094415E+03  0.54485577069E+03  0.81273869671E+02 0.  0.
         24    2    4    4    0    0  0.17985240649E+01 -0.12126447340E+03 -0.46384719651E+03  0.48601048814E+03  0.79647132247E+02 0.  0.
         13    1    3    3    0    0  0.94882165034E-02 -0.16577176631E+03 -0.12709845170E+03  0.20888823572E+03  0.00000000000E+00 0. -1.
        -13    1    3    3    0    0 -0.19078877912E-01 -0.78986455323E+02  0.56149082031E+01  0.79185779548E+02  0.00000000000E+00 0.  1.
          2    1    6    6  502    0  0.18039248767E+02 -0.34192942935E+02 -0.27163478020E+03  0.27437205699E+03  0.00000000000E+00 0. -1.
          3    1    5    5  503    0 -0.78732520117E+01  0.19046807067E+03  0.26351237502E+03  0.32523659977E+03  0.00000000000E+00 0. -1.
         -4    1    5    5    0  503  0.60843186082E+01  0.17555462436E+03  0.13181856913E+03  0.21961917092E+03  0.00000000000E+00 0.  1.
         -1    1    6    6    0  502 -0.16240724702E+02 -0.87071530464E+02 -0.19221241631E+03  0.21163843115E+03  0.00000000000E+00 0.  1.
<mgrwt>
<rscale>  0 0.13051833E+04</rscale>
<asrwt>0</asrwt>
<pdfrwt beam="1">  1        2 0.11607231E+00 0.13051833E+04</pdfrwt>
<pdfrwt beam="2">  1       -2 0.86841576E-01 0.13051833E+04</pdfrwt>
<totfact> 0.41848373E+01</totfact>
</mgrwt>
</event>
<event>
12    1  0.1442183E-007  0.2064588E+04  0.7818608E-02  0.8577005E-01
          2   -1    0    0  501    0  0.00000000000E+00  0.00000000000E+00  0.33477878334E+04  0.33477878334E+04  0.00000000000E+00 0. -1.
         -2   -1    0    0    0  501 -0.00000000000E+00 -0.00000000000E+00 -0.31830908074E+03  0.31830908074E+03  0.00000000000E+00 0.  1.
         23    2    1    2    0    0  0.79659326504E+03 -0.21854183729E+03  0.14331812519E+04  0.16566988527E+04  0.91220738348E+02 0.  0.
        254    2    1    2    0    0 -0.79659326504E+03  0.21854183729E+03  0.15962975008E+04  0.20093980615E+04  0.89843947708E+03 0.  0.
        -24    2    4    4    0    0  0.15866786730E+03 -0.18171350093E+02  0.51622400691E+03  0.54602886335E+03  0.78451285653E+02 0.  0.
         24    2    4    4    0    0 -0.95526113234E+03  0.23671318738E+03  0.10800734939E+04  0.14633691981E+04  0.79584507716E+02 0.  0.
         11    1    3    3    0    0  0.69921276889E+03 -0.22162457671E+03  0.12741841157E+04  0.14702248501E+04  0.00000000000E+00 0. -1.
        -11    1    3    3    0    0  0.97380496146E+02  0.30827394218E+01  0.15899713622E+03  0.18647400258E+03  0.00000000000E+00 0.  1.
          2    1    6    6  502    0 -0.20662963748E+03  0.18204262462E+02  0.22003102764E+03  0.30239189040E+03  0.00000000000E+00 0. -1.
          1    1    5    5  503    0  0.10717427383E+03  0.25545855213E+02  0.30705583792E+03  0.32622416111E+03  0.00000000000E+00 0. -1.
         -2    1    5    5    0  503  0.51493593472E+02 -0.43717205306E+02  0.20916816899E+03  0.21980470224E+03  0.00000000000E+00 0.  1.
         -1    1    6    6    0  502 -0.74863149487E+03  0.21850892492E+03  0.86004246623E+03  0.11609773077E+04  0.00000000000E+00 0.  1.
<mgrwt>
<rscale>  0 0.20645884E+04</rscale>
<asrwt>0</asrwt>
<pdfrwt beam="1">  1        2 0.51504426E+00 0.20645884E+04</pdfrwt>
<pdfrwt beam="2">  1       -2 0.48970630E-01 0.20645884E+04</pdfrwt>
<totfact> 0.37896566E+00</totfact>
</mgrwt>
</event>
<event>
12    1  0.1442183E-007  0.2973627E+04  0.7818608E-02  0.8251302E-01
         -1   -1    0    0    0  501 -0.00000000000E+00  0.00000000000E+00  0.15842558968E+04  0.15842558968E+04  0.00000000000E+00 0.  1.
          1   -1    0    0  501    0  0.00000000000E+00 -0.00000000000E+00 -0.13953640364E+04  0.13953640364E+04  0.00000000000E+00 0. -1.
         23    2    1    2    0    0 -0.10591241257E+03  0.13224763180E+04 -0.16243866341E+03  0.13396049940E+04  0.89410122547E+02 0.  0.
        254    2    1    2    0    0  0.10591241257E+03 -0.13224763180E+04  0.35133052389E+03  0.16400149392E+04  0.89780555409E+03 0.  0.
        -24    2    4    4    0    0 -0.68002438255E+01 -0.89348128659E+03 -0.20927718835E+03  0.92138027658E+03  0.82399148644E+02 0.  0.
         24    2    4    4    0    0  0.11271265640E+03 -0.42899503136E+03  0.56060771224E+03  0.71863466258E+03  0.73579150485E+02 0.  0.
         13    1    3    3    0    0 -0.10424073170E+03  0.82653501465E+03 -0.80878587652E+02  0.83699916758E+03  0.00000000000E+00 0. -1.
        -13    1    3    3    0    0 -0.16716808760E+01  0.49594130330E+03 -0.81560075762E+02  0.50260582647E+03  0.00000000000E+00 0.  1.
          4    1    6    6  502    0  0.10875743857E+03 -0.39319814191E+03  0.54115165887E+03  0.67770058075E+03  0.00000000000E+00 0. -1.
          3    1    5    5  503    0 -0.14210041880E+02 -0.76833859037E+03 -0.15113174635E+03  0.78319021923E+03  0.00000000000E+00 0. -1.
         -4    1    5    5    0  503  0.74097980549E+01 -0.12514269623E+03 -0.58145441997E+02  0.13819005735E+03  0.00000000000E+00 0.  1.
         -3    1    6    6    0  502  0.39552178266E+01 -0.35796889452E+02  0.19456053372E+02  0.40934081831E+02  0.00000000000E+00 0.  1.
<mgrwt>
<rscale>  0 0.29736265E+04</rscale>
<asrwt>0</asrwt>
<pdfrwt beam="1">  1        1 0.21467139E+00 0.29736265E+04</pdfrwt>
<pdfrwt beam="2">  1       -1 0.24373168E+00 0.29736265E+04</pdfrwt>
<totfact> 0.50594300E-01</totfact>
</mgrwt>
</event>
<event>
12    1  0.1442183E-007  0.2022933E+04  0.7818608E-02  0.8595973E-01
         -2   -1    0    0    0  501 -0.00000000000E+00  0.00000000000E+00  0.15387718919E+04  0.15387718919E+04  0.00000000000E+00 0.  1.
          2   -1    0    0  501    0  0.00000000000E+00 -0.00000000000E+00 -0.66485749717E+03  0.66485749717E+03  0.00000000000E+00 0. -1.
         23    2    1    2    0    0  0.78324405598E+03  0.55544489225E+02  0.55822256537E+03  0.96813042215E+03  0.95433957704E+02 0.  0.
        254    2    1    2    0    0 -0.78324405598E+03 -0.55544489225E+02  0.31569182939E+03  0.12354989669E+04  0.90013328161E+03 0.  0.
        -24    2    4    4    0    0  0.86923998515E+02  0.22511681786E+03  0.17013462798E+03  0.30634908992E+03  0.81673802758E+02 0.  0.
         24    2    4    4    0    0 -0.87016805450E+03 -0.28066130708E+03  0.14555720141E+03  0.92914987703E+03  0.78545418289E+02 0.  0.
         11    1    3    3    0    0  0.12955633249E+03  0.91010105414E+01  0.13870396430E+03  0.19001700290E+03  0.00000000000E+00 0. -1.
        -11    1    3    3    0    0  0.65368772350E+03  0.46443478684E+02  0.41951860107E+03  0.77811341924E+03  0.00000000000E+00 0.  1.
          2    1    6    6  502    0 -0.10432206658E+03 -0.58161585934E+02  0.31490305956E+02  0.12352126547E+03  0.00000000000E+00 0. -1.
          3    1    5    5  503    0  0.62151369659E+02  0.56279522672E+02  0.62761251902E+02  0.10473372028E+03  0.00000000000E+00 0. -1.
         -4    1    5    5    0  503  0.24772628855E+02  0.16883729519E+03  0.10737337607E+03  0.20161536964E+03  0.00000000000E+00 0.  1.
         -1    1    6    6    0  502 -0.76584598792E+03 -0.22249972115E+03  0.11406689546E+03  0.80562861156E+03  0.00000000000E+00 0.  1.
<mgrwt>
<rscale>  0 0.20229326E+04</rscale>
<asrwt>0</asrwt>
<pdfrwt beam="1">  1        2 0.10228577E+00 0.20229326E+04</pdfrwt>
<pdfrwt beam="2">  1       -2 0.23673414E+00 0.20229326E+04</pdfrwt>
<totfact> 0.31452737E+00</totfact>
</mgrwt>
</event>
<event>
12    1  0.1442183E-007  0.1666902E+04  0.7818608E-02  0.8780470E-01
         -2   -1    0    0    0  501 -0.00000000000E+00  0.00000000000E+00  0.45637230808E+03  0.45637230808E+03  0.00000000000E+00 0.  1.
          2   -1    0    0  501    0  0.00000000000E+00 -0.00000000000E+00 -0.15220925930E+04  0.15220925930E+04  0.00000000000E+00 0. -1.
         23    2    1    2    0    0 -0.13323198256E+03 -0.18097714521E+03  0.26492400936E+03  0.35917277167E+03  0.91196825078E+02 0.  0.
        254    2    1    2    0    0  0.13323198256E+03  0.18097714521E+03 -0.13306442943E+04  0.16192921294E+04  0.89498004122E+03 0.  0.
        -24    2    4    4    0    0 -0.37406852536E+03  0.13958761262E+03 -0.58776140016E+03  0.71537273582E+03  0.82962186401E+02 0.  0.
         24    2    4    4    0    0  0.50730050792E+03  0.41389532598E+02 -0.74288289410E+03  0.90391939357E+03  0.78283950948E+02 0.  0.
         13    1    3    3    0    0 -0.69642152442E+02 -0.37691603654E+02  0.13060548974E+03  0.15273663716E+03  0.00000000000E+00 0.  1.
        -13    1    3    3    0    0 -0.63589830122E+02 -0.14328554156E+03  0.13431851962E+03  0.20643613450E+03  0.00000000000E+00 0. -1.
          2    1    6    6  502    0  0.27350719058E+03  0.36967515130E+02 -0.46504095422E+03  0.54077339947E+03  0.00000000000E+00 0. -1.
          1    1    5    5  503    0 -0.19447413020E+03  0.86586174747E+02 -0.24312827748E+03  0.32315431651E+03  0.00000000000E+00 0. -1.
         -2    1    5    5    0  503 -0.17959439516E+03  0.53001437868E+02 -0.34463312268E+03  0.39221841930E+03  0.00000000000E+00 0.  1.
         -1    1    6    6    0  502  0.23379331734E+03  0.44220174682E+01 -0.27784193988E+03  0.36314599410E+03  0.00000000000E+00 0.  1.
<mgrwt>
<rscale>  0 0.16669024E+04</rscale>
<asrwt>0</asrwt>
<pdfrwt beam="1">  1        2 0.23416809E+00 0.16669024E+04</pdfrwt>
<pdfrwt beam="2">  1       -2 0.70211125E-01 0.16669024E+04</pdfrwt>
<totfact> 0.21728987E+01</totfact>
</mgrwt>
</event>
<event>
12    1  0.1442183E-007  0.3987001E+04  0.7818608E-02  0.8007174E-01
          2   -1    0    0  501    0  0.00000000000E+00  0.00000000000E+00  0.33466142804E+04  0.33466142804E+04  0.00000000000E+00 0. -1.
         -2   -1    0    0    0  501 -0.00000000000E+00 -0.00000000000E+00 -0.11874821518E+04  0.11874821518E+04  0.00000000000E+00 0.  1.
         23    2    1    2    0    0 -0.31231465100E+03  0.14125285723E+04  0.24098866365E+04  0.28123362032E+04  0.94360531256E+02 0.  0.
        254    2    1    2    0    0  0.31231465100E+03 -0.14125285723E+04 -0.25075450800E+03  0.17217602290E+04  0.89933478428E+03 0.  0.
        -24    2    4    4    0    0 -0.72417330965E+02 -0.47918981217E+03 -0.47634298892E+03  0.68445736846E+03  0.81927408348E+02 0.  0.
         24    2    4    4    0    0  0.38473198196E+03 -0.93333876015E+03  0.22558848093E+03  0.10373028606E+04  0.77247153398E+02 0.  0.
         11    1    3    3    0    0 -0.63329674071E+02  0.26106609174E+03  0.38014652989E+03  0.46548634358E+03  0.00000000000E+00 0.  1.
        -11    1    3    3    0    0 -0.24898497693E+03  0.11514624806E+04  0.20297401067E+04  0.23468498596E+04  0.00000000000E+00 0. -1.
          2    1    6    6  502    0  0.38064657599E+03 -0.90685325774E+03  0.23026953358E+03  0.10100983640E+04  0.00000000000E+00 0. -1.
          1    1    5    5  503    0 -0.67644597132E+02 -0.45108458979E+03 -0.47060238861E+03  0.65537753001E+03  0.00000000000E+00 0. -1.
         -2    1    5    5    0  503 -0.47727338335E+01 -0.28105222371E+02 -0.57406003158E+01  0.29079838458E+02  0.00000000000E+00 0.  1.
         -1    1    6    6    0  502  0.40854059767E+01 -0.26485502404E+02 -0.46810526534E+01  0.27204496569E+02  0.00000000000E+00 0.  1.
<mgrwt>
<rscale>  0 0.39870012E+04</rscale>
<asrwt>0</asrwt>
<pdfrwt beam="1">  1        2 0.51486373E+00 0.39870012E+04</pdfrwt>
<pdfrwt beam="2">  1       -2 0.18268956E+00 0.39870012E+04</pdfrwt>
<totfact> 0.14201803E-01</totfact>
</mgrwt>
</event>
<event>
12    1  0.1442183E-007  0.1774362E+04  0.7818608E-02  0.8720053E-01
         -2   -1    0    0    0  501 -0.00000000000E+00  0.00000000000E+00  0.46208581382E+03  0.46208581382E+03  0.00000000000E+00 0.  1.
          2   -1    0    0  501    0  0.00000000000E+00 -0.00000000000E+00 -0.17033428480E+04  0.17033428480E+04  0.00000000000E+00 0. -1.
         23    2    1    2    0    0  0.11592298828E+03 -0.38688843926E+03 -0.10846503229E+04  0.11609732637E+04  0.90949394818E+02 0.  0.
        254    2    1    2    0    0 -0.11592298828E+03  0.38688843926E+03 -0.15660671129E+03  0.10044553981E+04  0.90624730684E+03 0.  0.
        -24    2    4    4    0    0 -0.32628073750E+03  0.58508384688E+03 -0.20481116664E+02  0.67514343877E+03  0.81344693962E+02 0.  0.
         24    2    4    4    0    0  0.21035774922E+03 -0.19819540761E+03 -0.13612559462E+03  0.32931195936E+03  0.79902357985E+02 0.  0.
         13    1    3    3    0    0  0.96028525835E+02 -0.38099117403E+03 -0.10397312406E+04  0.11114930522E+04  0.00000000000E+00 0. -1.
        -13    1    3    3    0    0  0.19894462447E+02 -0.58972652303E+01 -0.44919082317E+02  0.49480211494E+02  0.00000000000E+00 0.  1.
          4    1    6    6  502    0  0.13900273690E+03 -0.17456322023E+03 -0.11600999254E+03  0.25150029243E+03  0.00000000000E+00 0. -1.
          1    1    5    5  503    0 -0.16687483000E+03  0.21794791618E+03 -0.13663330592E+02  0.27483665996E+03  0.00000000000E+00 0. -1.
         -2    1    5    5    0  503 -0.15940590750E+03  0.36713593070E+03 -0.68177860715E+01  0.40030677881E+03  0.00000000000E+00 0.  1.
         -3    1    6    6    0  502  0.71355012318E+02 -0.23632187381E+02 -0.20115602085E+02  0.77811666931E+02  0.00000000000E+00 0.  1.
<mgrwt>
<rscale>  0 0.17743625E+04</rscale>
<asrwt>0</asrwt>
<pdfrwt beam="1">  1        2 0.26205274E+00 0.17743625E+04</pdfrwt>
<pdfrwt beam="2">  1       -2 0.71090126E-01 0.17743625E+04</pdfrwt>
<totfact> 0.16598812E+01</totfact>
</mgrwt>
</event>
<event>
12    1  0.1442183E-007  0.2479328E+04  0.7818608E-02  0.8410387E-01
          1   -1    0    0  501    0  0.00000000000E+00  0.00000000000E+00  0.72477796420E+03  0.72477796420E+03  0.00000000000E+00 0. -1.
         -1   -1    0    0    0  501 -0.00000000000E+00 -0.00000000000E+00 -0.21203282986E+04  0.21203282986E+04  0.00000000000E+00 0.  1.
         23    2    1    2    0    0 -0.95030515520E+03  0.34749895534E+03 -0.19319252845E+03  0.10341462176E+04  0.91102329379E+02 0.  0.
        254    2    1    2    0    0  0.95030515520E+03 -0.34749895534E+03 -0.12023578059E+04  0.18109600451E+04  0.90004254326E+03 0.  0.
        -24    2    4    4    0    0  0.56659921235E+03 -0.57442690936E+03 -0.10626458141E+04  0.13366480332E+04  0.80068074804E+02 0.  0.
         24    2    4    4    0    0  0.38370594285E+03  0.22692795402E+03 -0.13971199177E+03  0.47431201197E+03  0.82011567236E+02 0.  0.
         13    1    3    3    0    0 -0.46095746848E+03  0.17288192411E+03 -0.14018098700E+03  0.51187953324E+03  0.00000000000E+00 0. -1.
        -13    1    3    3    0    0 -0.48934768673E+03  0.17461703123E+03 -0.53011541447E+02  0.52226668439E+03  0.00000000000E+00 0.  1.
          2    1    6    6  502    0  0.26488412890E+03  0.17646222400E+03 -0.13327334503E+03  0.34505695579E+03  0.00000000000E+00 0. -1.
          1    1    5    5  503    0  0.19602853018E+03 -0.24422904917E+03 -0.37462854616E+03  0.48828430315E+03  0.00000000000E+00 0. -1.
         -2    1    5    5    0  503  0.37057068217E+03 -0.33019786020E+03 -0.68801726799E+03  0.84836373002E+03  0.00000000000E+00 0.  1.
         -1    1    6    6    0  502  0.11882181395E+03  0.50465730019E+02 -0.64386467388E+01  0.12925505618E+03  0.00000000000E+00 0.  1.
<mgrwt>
<rscale>  0 0.24793283E+04</rscale>
<asrwt>0</asrwt>
<pdfrwt beam="1">  1        1 0.11150430E+00 0.24793283E+04</pdfrwt>
<pdfrwt beam="2">  1       -1 0.32620435E+00 0.24793283E+04</pdfrwt>
<totfact> 0.51257581E-01</totfact>
</mgrwt>
</event>
<event>
12    1  0.1629991E-007  0.1984013E+04  0.7818608E-02  0.8614132E-01
          1   -1    0    0  501    0  0.00000000000E+00  0.00000000000E+00  0.27884014344E+04  0.27884014344E+04  0.00000000000E+00 0. -1.
         -1   -1    0    0    0  501 -0.00000000000E+00 -0.00000000000E+00 -0.35291808085E+03  0.35291808085E+03  0.00000000000E+00 0.  1.
         23    2    1    2    0    0 -0.50926579879E+03 -0.39609767723E+03  0.16889005171E+04  0.18097655580E+04  0.81371950815E+02 0.  0.
        254    2    1    2    0    0  0.50926579879E+03  0.39609767723E+03  0.74658283648E+03  0.13315539573E+04  0.89409450610E+03 0.  0.
        -24    2    4    4    0    0  0.25426273863E+03  0.23601035384E+03  0.91141160404E+03  0.97846921872E+03  0.79877860715E+02 0.  0.
         24    2    4    4    0    0  0.25500306016E+03  0.16008732338E+03 -0.16482876756E+03  0.35308473861E+03  0.82739339040E+02 0.  0.
         11    1    3    3    0    0 -0.30697316777E+03 -0.19767273197E+03  0.88345349669E+03  0.95592735891E+03  0.00000000000E+00 0.  1.
        -11    1    3    3    0    0 -0.20229263102E+03 -0.19842494525E+03  0.80544702042E+03  0.85383819906E+03  0.00000000000E+00 0. -1.
          4    1    6    6  502    0  0.21101468961E+03  0.14475222501E+03 -0.16845074515E+03  0.30635936320E+03  0.00000000000E+00 0. -1.
          1    1    5    5  503    0  0.25330832476E+03  0.23614588556E+03  0.91307712529E+03  0.97654483942E+03  0.00000000000E+00 0. -1.
         -2    1    5    5    0  503  0.95441387211E+00 -0.13553171203E+00 -0.16655212514E+01  0.19243793085E+01  0.00000000000E+00 0.  1.
         -3    1    6    6    0  502  0.43988370548E+02  0.15335098373E+02  0.36219775919E+01  0.46725375411E+02  0.00000000000E+00 0.  1.
<mgrwt>
<rscale>  0 0.19840134E+04</rscale>
<asrwt>0</asrwt>
<pdfrwt beam="1">  1        1 0.42898482E+00 0.19840134E+04</pdfrwt>
<pdfrwt beam="2">  1       -1 0.54295091E-01 0.19840134E+04</pdfrwt>
<totfact> 0.27064672E+00</totfact>
</mgrwt>
</event>
<event>
12    1  0.1442183E-007  0.1560380E+04  0.7818608E-02  0.8845265E-01
         -1   -1    0    0    0  501 -0.00000000000E+00  0.00000000000E+00  0.93453833942E+03  0.93453833942E+03  0.00000000000E+00 0.  1.
          1   -1    0    0  501    0  0.00000000000E+00 -0.00000000000E+00 -0.65133404461E+03  0.65133404461E+03  0.00000000000E+00 0. -1.
         23    2    1    2    0    0  0.24413069055E+03 -0.10606327581E+03  0.54040892741E+03  0.60926472954E+03  0.91172853977E+02 0.  0.
        254    2    1    2    0    0 -0.24413069055E+03  0.10606327581E+03 -0.25720463260E+03  0.97660765448E+03  0.90374724078E+03 0.  0.
        -24    2    4    4    0    0 -0.25578940841E+03  0.21900790951E+03 -0.55166875647E+03  0.65090649150E+03  0.77124301805E+02 0.  0.
         24    2    4    4    0    0  0.11658717857E+02 -0.11294463370E+03  0.29446412387E+03  0.32570116299E+03  0.80496654240E+02 0.  0.
         13    1    3    3    0    0  0.44939277307E+02 -0.56991240041E+02  0.18756862215E+03  0.20112068044E+03  0.00000000000E+00 0. -1.
        -13    1    3    3    0    0  0.19919141324E+03 -0.49072035773E+02  0.35284030525E+03  0.40814404910E+03  0.00000000000E+00 0.  1.
          4    1    6    6  502    0  0.40342703114E+01  0.41025451986E+01 -0.26033957609E+01  0.63153688364E+01  0.00000000000E+00 0. -1.
          1    1    5    5  503    0 -0.64217092275E+02  0.95072365496E+02 -0.14855693112E+03  0.18770122910E+03  0.00000000000E+00 0. -1.
         -2    1    5    5    0  503 -0.19157231613E+03  0.12393554401E+03 -0.40311182535E+03  0.46320526240E+03  0.00000000000E+00 0.  1.
         -3    1    6    6    0  502  0.76244475452E+01 -0.11704717889E+03  0.29706751963E+03  0.31938579415E+03  0.00000000000E+00 0.  1.
<mgrwt>
<rscale>  0 0.15603803E+04</rscale>
<asrwt>0</asrwt>
<pdfrwt beam="1">  1        1 0.10020524E+00 0.15603803E+04</pdfrwt>
<pdfrwt beam="2">  1       -1 0.14377513E+00 0.15603803E+04</pdfrwt>
<totfact> 0.11423810E+01</totfact>
</mgrwt>
</event>
<event>
12    1  0.1442183E-007  0.2278209E+04  0.7818608E-02  0.8486563E-01
          2   -1    0    0  501    0  0.00000000000E+00  0.00000000000E+00  0.21541081764E+04  0.21541081764E+04  0.00000000000E+00 0. -1.
         -2   -1    0    0    0  501 -0.00000000000E+00 -0.00000000000E+00 -0.60236509153E+03  0.60236509153E+03  0.00000000000E+00 0.  1.
         23    2    1    2    0    0  0.20118752855E+03 -0.34718138183E+03  0.17063137118E+04  0.17551281943E+04  0.89202925295E+02 0.  0.
        254    2    1    2    0    0 -0.20118752855E+03  0.34718138183E+03 -0.15457062690E+03  0.10013450736E+04  0.90431661728E+03 0.  0.
        -24    2    4    4    0    0 -0.36435078887E+03  0.13036958078E+03  0.27832346079E+03  0.48435156584E+03  0.85934658670E+02 0.  0.
         24    2    4    4    0    0  0.16316326032E+03  0.21681180105E+03 -0.43289408769E+03  0.51699350780E+03  0.79091019477E+02 0.  0.
         11    1    3    3    0    0  0.18713997042E+03 -0.26292129271E+03  0.12570173350E+04  0.12977833236E+04  0.00000000000E+00 0.  1.
        -11    1    3    3    0    0  0.14047558126E+02 -0.84260089117E+02  0.44929637682E+03  0.45734487067E+03  0.00000000000E+00 0. -1.
          2    1    6    6  502    0  0.16683188738E+03  0.21957660735E+03 -0.41319879864E+03  0.49676957671E+03  0.00000000000E+00 0. -1.
          1    1    5    5  503    0 -0.26699381337E+03  0.11022180862E+03  0.16143860464E+03  0.33090325858E+03  0.00000000000E+00 0. -1.
         -2    1    5    5    0  503 -0.97356975505E+02  0.20147772152E+02  0.11688485615E+03  0.15344830726E+03  0.00000000000E+00 0.  1.
         -1    1    6    6    0  502 -0.36686270591E+01 -0.27648062997E+01 -0.19695289047E+02  0.20223931097E+02  0.00000000000E+00 0.  1.
<mgrwt>
<rscale>  0 0.22782094E+04</rscale>
<asrwt>0</asrwt>
<pdfrwt beam="1">  1        2 0.33140125E+00 0.22782094E+04</pdfrwt>
<pdfrwt beam="2">  1       -2 0.92671554E-01 0.22782094E+04</pdfrwt>
<totfact> 0.49142684E+00</totfact>
</mgrwt>
</event>
<event>
12    1  0.1442183E-007  0.1362076E+04  0.7818608E-02  0.8981737E-01
         -1   -1    0    0    0  501 -0.00000000000E+00  0.00000000000E+00  0.14968552977E+03  0.14968552977E+03  0.00000000000E+00 0.  1.
          1   -1    0    0  501    0  0.00000000000E+00 -0.00000000000E+00 -0.30985807670E+04  0.30985807670E+04  0.00000000000E+00 0. -1.
         23    2    1    2    0    0  0.23605087652E+03  0.70251599558E+02 -0.16150624922E+03  0.30799272879E+03  0.90110759098E+02 0.  0.
        254    2    1    2    0    0 -0.23605087652E+03 -0.70251599558E+02 -0.27873889881E+04  0.29402735680E+04  0.90278235500E+03 0.  0.
        -24    2    4    4    0    0  0.17868627215E+03 -0.27596886008E+03 -0.19590830534E+04  0.19881179398E+04  0.80739933724E+02 0.  0.
         24    2    4    4    0    0 -0.41473714867E+03  0.20571726052E+03 -0.82830593468E+03  0.95215562823E+03  0.78632850514E+02 0.  0.
         13    1    3    3    0    0 -0.55976853903E+01  0.38231972251E+01 -0.17923952351E+02  0.19162958713E+02  0.00000000000E+00 0. -1.
        -13    1    3    3    0    0  0.24164856191E+03  0.66428402333E+02 -0.14358229687E+03  0.28882977008E+03  0.00000000000E+00 0.  1.
          4    1    6    6  502    0 -0.22532579771E+03  0.98613874503E+02 -0.36294482995E+03  0.43843512740E+03  0.00000000000E+00 0. -1.
          3    1    5    5  503    0  0.15186308778E+03 -0.17533324120E+03 -0.14567809243E+04  0.14751321311E+04  0.00000000000E+00 0. -1.
         -4    1    5    5    0  503  0.26823184367E+02 -0.10063561888E+03 -0.50230212907E+03  0.51298580865E+03  0.00000000000E+00 0.  1.
         -1    1    6    6    0  502 -0.18941135096E+03  0.10710338602E+03 -0.46536110473E+03  0.51372050082E+03  0.00000000000E+00 0.  1.
<mgrwt>
<rscale>  0 0.13620759E+04</rscale>
<asrwt>0</asrwt>
<pdfrwt beam="1">  1        1 0.47670472E+00 0.13620759E+04</pdfrwt>
<pdfrwt beam="2">  1       -1 0.23028544E-01 0.13620759E+04</pdfrwt>
<totfact> 0.80537797E+00</totfact>
</mgrwt>
</event>
<event>
12    1  0.1442183E-007  0.2081221E+04  0.7818608E-02  0.8569561E-01
          1   -1    0    0  501    0  0.00000000000E+00  0.00000000000E+00  0.81983038714E+03  0.81983038714E+03  0.00000000000E+00 0. -1.
         -1   -1    0    0    0  501 -0.00000000000E+00 -0.00000000000E+00 -0.13208470265E+04  0.13208470265E+04  0.00000000000E+00 0.  1.
         23    2    1    2    0    0  0.25657391619E+03 -0.50144887874E+03 -0.94198024391E+03  0.11014850985E+04  0.93067125277E+02 0.  0.
        254    2    1    2    0    0 -0.25657391619E+03  0.50144887874E+03  0.44096360451E+03  0.10391923152E+04  0.75378419658E+03 0.  0.
        -24    2    4    4    0    0 -0.33221800051E+03 -0.73544285627E+02  0.21831180067E+03  0.41230005348E+03  0.80955110854E+02 0.  0.
         24    2    4    4    0    0  0.75644084320E+02  0.57499316437E+03  0.22265180383E+03  0.62689226172E+03  0.84148175803E+02 0.  0.
         13    1    3    3    0    0  0.23789393498E+03 -0.48223677859E+03 -0.85109270013E+03  0.10067296654E+04  0.00000000000E+00 0.  1.
        -13    1    3    3    0    0  0.18679981207E+02 -0.19212100154E+02 -0.90887543778E+02  0.94755433112E+02  0.00000000000E+00 0. -1.
          2    1    6    6  502    0  0.42112565868E+02  0.86752458034E+02  0.42715642101E+02  0.10547076969E+03  0.00000000000E+00 0. -1.
          3    1    5    5  503    0 -0.40901956406E+02 -0.16948810111E+02  0.63981309014E+02  0.77806427145E+02  0.00000000000E+00 0. -1.
         -4    1    5    5    0  503 -0.29131604410E+03 -0.56595475516E+02  0.15433049166E+03  0.33449362633E+03  0.00000000000E+00 0.  1.
         -1    1    6    6    0  502  0.33531518452E+02  0.48824070634E+03  0.17993616173E+03  0.52142149203E+03  0.00000000000E+00 0.  1.
<mgrwt>
<rscale>  0 0.20812213E+04</rscale>
<asrwt>0</asrwt>
<pdfrwt beam="1">  1        1 0.12612775E+00 0.20812213E+04</pdfrwt>
<pdfrwt beam="2">  1       -1 0.20320723E+00 0.20812213E+04</pdfrwt>
<totfact> 0.27999027E+00</totfact>
</mgrwt>
</event>
<event>
12    1  0.1442183E-007  0.1750386E+04  0.7818608E-02  0.8733138E-01
         -1   -1    0    0    0  501 -0.00000000000E+00  0.00000000000E+00  0.88127094217E+03  0.88127094217E+03  0.00000000000E+00 0.  1.
          1   -1    0    0  501    0  0.00000000000E+00 -0.00000000000E+00 -0.86915704606E+03  0.86915704606E+03  0.00000000000E+00 0. -1.
         23    2    1    2    0    0  0.60851616914E+02 -0.19506099828E+03  0.60951633187E+03  0.64931004252E+03  0.91332689447E+02 0.  0.
        254    2    1    2    0    0 -0.60851616914E+02  0.19506099828E+03 -0.59740243575E+03  0.11011179457E+04  0.90211936450E+03 0.  0.
        -24    2    4    4    0    0  0.21551793330E+03 -0.21785570189E+03  0.42713761582E+01  0.31658857986E+03  0.79378824802E+02 0.  0.
         24    2    4    4    0    0 -0.27636955021E+03  0.41291670018E+03 -0.60167381191E+03  0.78452936585E+03  0.81207267995E+02 0.  0.
         11    1    3    3    0    0  0.60473173319E+02 -0.17434100700E+03  0.59751864163E+03  0.62536414872E+03  0.00000000000E+00 0.  1.
        -11    1    3    3    0    0  0.37844359473E+00 -0.20719991286E+02  0.11997690242E+02  0.23945893793E+02  0.00000000000E+00 0. -1.
          4    1    6    6  502    0 -0.26045328584E+03  0.38703809004E+03 -0.58959350282E+03  0.75183435397E+03  0.00000000000E+00 0. -1.
          1    1    5    5  503    0  0.15358727788E+03 -0.11151281850E+03 -0.21000662105E+02  0.19095860395E+03  0.00000000000E+00 0. -1.
         -2    1    5    5    0  503  0.61930655418E+02 -0.10634288339E+03  0.25272038263E+02  0.12562997591E+03  0.00000000000E+00 0.  1.
         -3    1    6    6    0  502 -0.15916264367E+02  0.25878610136E+02 -0.12080309095E+02  0.32695011880E+02  0.00000000000E+00 0.  1.
<mgrwt>
<rscale>  0 0.17503861E+04</rscale>
<asrwt>0</asrwt>
<pdfrwt beam="1">  1        1 0.13371647E+00 0.17503861E+04</pdfrwt>
<pdfrwt beam="2">  1       -1 0.13558015E+00 0.17503861E+04</pdfrwt>
<totfact> 0.83329804E+00</totfact>
</mgrwt>
</event>
<event>
12    1  0.1442183E-007  0.1357939E+04  0.7818608E-02  0.8984840E-01
         -1   -1    0    0    0  501 -0.00000000000E+00  0.00000000000E+00  0.48672529315E+03  0.48672529315E+03  0.00000000000E+00 0.  1.
          1   -1    0    0  501    0  0.00000000000E+00 -0.00000000000E+00 -0.94714482692E+03  0.94714482692E+03  0.00000000000E+00 0. -1.
         23    2    1    2    0    0  0.17781802238E+03 -0.66635109362E+02  0.23618458791E+03  0.31680374947E+03  0.92314512562E+02 0.  0.
        254    2    1    2    0    0 -0.17781802238E+03  0.66635109362E+02 -0.69660412168E+03  0.11170663706E+04  0.85236171142E+03 0.  0.
        -24    2    4    4    0    0  0.26193358526E+03  0.19158251546E+03 -0.77021411219E+02  0.34296484981E+03  0.79871941889E+02 0.  0.
         24    2    4    4    0    0 -0.43975160764E+03 -0.12494740610E+03 -0.61958271046E+03  0.77410152078E+03  0.79731415798E+02 0.  0.
         13    1    3    3    0    0  0.46862892816E+01 -0.29992611453E+02  0.59161129160E+02  0.66494791168E+02  0.00000000000E+00 0. -1.
        -13    1    3    3    0    0  0.17313173310E+03 -0.36642497910E+02  0.17702345875E+03  0.25030895830E+03  0.00000000000E+00 0.  1.
          4    1    6    6  502    0 -0.29083617359E+03 -0.86694472941E+02 -0.47088246937E+03  0.56020702554E+03  0.00000000000E+00 0. -1.
          1    1    5    5  503    0  0.11478646256E+03  0.58132456796E+02  0.32563699531E+01  0.12870865730E+03  0.00000000000E+00 0. -1.
         -2    1    5    5    0  503  0.14714712271E+03  0.13345005867E+03 -0.80277781172E+02  0.21425619251E+03  0.00000000000E+00 0.  1.
         -3    1    6    6    0  502 -0.14891543406E+03 -0.38252933159E+02 -0.14870024109E+03  0.21389449524E+03  0.00000000000E+00 0.  1.
<mgrwt>
<rscale>  0 0.13579386E+04</rscale>
<asrwt>0</asrwt>
<pdfrwt beam="1">  1        1 0.14571459E+00 0.13579386E+04</pdfrwt>
<pdfrwt beam="2">  1       -1 0.74880815E-01 0.13579386E+04</pdfrwt>
<totfact> 0.29246744E+01</totfact>
</mgrwt>
</event>
<event>
12    1  0.1442183E-007  0.2118259E+04  0.7818608E-02  0.8553243E-01
         -1   -1    0    0    0  501 -0.00000000000E+00  0.00000000000E+00  0.39857707545E+03  0.39857707545E+03  0.00000000000E+00 0.  1.
          1   -1    0    0  501    0  0.00000000000E+00 -0.00000000000E+00 -0.28143993124E+04  0.28143993124E+04  0.00000000000E+00 0. -1.
         23    2    1    2    0    0 -0.84936477987E+03  0.85111257363E+02 -0.11672859704E+04  0.14489573523E+04  0.90864826069E+02 0.  0.
        254    2    1    2    0    0  0.84936477987E+03 -0.85111257363E+02 -0.12485362665E+04  0.17640190355E+04  0.90788539668E+03 0.  0.
        -24    2    4    4    0    0  0.48453205907E+03  0.39893337126E+03 -0.68563329283E+03  0.93295805649E+03  0.79991074347E+02 0.  0.
         24    2    4    4    0    0  0.36483272080E+03 -0.48404462862E+03 -0.56290297366E+03  0.83106097901E+03  0.80002977607E+02 0.  0.
         13    1    3    3    0    0 -0.65185485370E+02 -0.13819389180E+02 -0.70044118815E+02  0.96676272171E+02  0.00000000000E+00 0. -1.
        -13    1    3    3    0    0 -0.78417929450E+03  0.98930646544E+02 -0.10972418516E+04  0.13522810801E+04  0.00000000000E+00 0.  1.
          2    1    6    6  502    0  0.20477773946E+03 -0.27281741409E+03 -0.37012654669E+03  0.50334573066E+03  0.00000000000E+00 0. -1.
          3    1    5    5  503    0  0.41251376998E+03  0.31603510003E+03 -0.59963805181E+03  0.79348067907E+03  0.00000000000E+00 0. -1.
         -4    1    5    5    0  503  0.72018289086E+02  0.82898271233E+02 -0.85995241012E+02  0.13947737742E+03  0.00000000000E+00 0.  1.
         -1    1    6    6    0  502  0.16005498133E+03 -0.21122721453E+03 -0.19277642697E+03  0.32771524835E+03  0.00000000000E+00 0.  1.
<mgrwt>
<rscale>  0 0.21182588E+04</rscale>
<asrwt>0</asrwt>
<pdfrwt beam="1">  1        1 0.43298452E+00 0.21182588E+04</pdfrwt>
<pdfrwt beam="2">  1       -1 0.61319548E-01 0.21182588E+04</pdfrwt>
<totfact> 0.20174131E+00</totfact>
</mgrwt>
</event>
<event>
12    1  0.1442183E-007  0.1713783E+04  0.7818608E-02  0.8753542E-01
         -2   -1    0    0    0  501 -0.00000000000E+00  0.00000000000E+00  0.17026289366E+04  0.17026289366E+04  0.00000000000E+00 0.  1.
          2   -1    0    0  501    0  0.00000000000E+00 -0.00000000000E+00 -0.43125261623E+03  0.43125261623E+03  0.00000000000E+00 0. -1.
         23    2    1    2    0    0  0.31225821481E+03 -0.40792562680E+03  0.42545605181E+02  0.52349264707E+03  0.91246442667E+02 0.  0.
        254    2    1    2    0    0 -0.31225821481E+03  0.40792562680E+03  0.12288307151E+04  0.16103889057E+04  0.90521764867E+03 0.  0.
        -24    2    4    4    0    0 -0.14631381314E+03  0.67927174337E+03  0.95663227050E+03  0.11850966027E+04  0.80565647323E+02 0.  0.
         24    2    4    4    0    0 -0.16594440167E+03 -0.27134611657E+03  0.27219844464E+03  0.42529230301E+03  0.74935240806E+02 0.  0.
         13    1    3    3    0    0  0.82973671295E+02 -0.66453143673E+02 -0.17787763429E+02  0.10778244273E+03  0.00000000000E+00 0.  1.
        -13    1    3    3    0    0  0.22928454352E+03 -0.34147248313E+03  0.60333368610E+02  0.41571020434E+03  0.00000000000E+00 0. -1.
          2    1    6    6  502    0 -0.31372562690E+02 -0.15923039420E+02  0.49238083247E+02  0.60515863341E+02  0.00000000000E+00 0. -1.
          1    1    5    5  503    0 -0.20224587499E+02  0.22293578779E+02  0.33207079236E+02  0.44819055162E+02  0.00000000000E+00 0. -1.
         -2    1    5    5    0  503 -0.12608922564E+03  0.65697816459E+03  0.92342519127E+03  0.11402775475E+04  0.00000000000E+00 0.  1.
         -1    1    6    6    0  502 -0.13457183898E+03 -0.25542307715E+03  0.22296036139E+03  0.36477643967E+03  0.00000000000E+00 0.  1.
<mgrwt>
<rscale>  0 0.17137832E+04</rscale>
<asrwt>0</asrwt>
<pdfrwt beam="1">  1        2 0.66346557E-01 0.17137832E+04</pdfrwt>
<pdfrwt beam="2">  1       -2 0.26194291E+00 0.17137832E+04</pdfrwt>
<totfact> 0.37693050E+00</totfact>
</mgrwt>
</event>
<event>
12    1  0.1442183E-007  0.2052769E+04  0.7818608E-02  0.8582339E-01
         -1   -1    0    0    0  501 -0.00000000000E+00  0.00000000000E+00  0.48753223170E+03  0.48753223170E+03  0.00000000000E+00 0.  1.
          1   -1    0    0  501    0  0.00000000000E+00 -0.00000000000E+00 -0.21608114189E+04  0.21608114189E+04  0.00000000000E+00 0. -1.
         23    2    1    2    0    0  0.45083891609E+03 -0.53604406997E+02  0.21064507332E+03  0.50867961836E+03  0.90853984526E+02 0.  0.
        254    2    1    2    0    0 -0.45083891609E+03  0.53604406997E+02 -0.18839242605E+04  0.21396640322E+04  0.90711762783E+03 0.  0.
        -24    2    4    4    0    0 -0.54408458004E+03 -0.20632835443E+03 -0.17021076614E+04  0.18005774947E+04  0.79431751266E+02 0.  0.
         24    2    4    4    0    0  0.93245663943E+02  0.25993276142E+03 -0.18181659904E+03  0.33908653752E+03  0.75250315200E+02 0.  0.
         13    1    3    3    0    0  0.12720551956E+03 -0.26334771266E+02  0.18218053049E+02  0.13117416606E+03  0.00000000000E+00 0. -1.
        -13    1    3    3    0    0  0.32363339653E+03 -0.27269635731E+02  0.19242702027E+03  0.37750545229E+03  0.00000000000E+00 0.  1.
          2    1    6    6  502    0 -0.34692816722E+01  0.94652013996E+02 -0.61306704299E+02  0.11282531481E+03  0.00000000000E+00 0. -1.
          3    1    5    5  503    0 -0.44030298151E+03 -0.13212101727E+03 -0.13283980008E+04  0.14056898404E+04  0.00000000000E+00 0. -1.
         -4    1    5    5    0  503 -0.10378159853E+03 -0.74207337155E+02 -0.37370966060E+03  0.39488765428E+03  0.00000000000E+00 0.  1.
         -1    1    6    6    0  502  0.96714945615E+02  0.16528074743E+03 -0.12050989474E+03  0.22626122272E+03  0.00000000000E+00 0.  1.
<mgrwt>
<rscale>  0 0.20527691E+04</rscale>
<asrwt>0</asrwt>
<pdfrwt beam="1">  1        1 0.33243252E+00 0.20527691E+04</pdfrwt>
<pdfrwt beam="2">  1       -1 0.75004959E-01 0.20527691E+04</pdfrwt>
<totfact> 0.38244210E+00</totfact>
</mgrwt>
</event>
<event>
12    1  0.1442183E-007  0.1432949E+04  0.7818608E-02  0.8930308E-01
          1   -1    0    0  501    0  0.00000000000E+00  0.00000000000E+00  0.90170073174E+03  0.90170073174E+03  0.00000000000E+00 0. -1.
         -1   -1    0    0    0  501 -0.00000000000E+00 -0.00000000000E+00 -0.56929702271E+03  0.56929702271E+03  0.00000000000E+00 0.  1.
         23    2    1    2    0    0  0.21575662610E+03 -0.19492242467E+03 -0.22978959734E+03  0.38073619942E+03  0.87241739755E+02 0.  0.
        254    2    1    2    0    0 -0.21575662610E+03  0.19492242467E+03  0.56219330637E+03  0.10902615550E+04  0.88772927817E+03 0.  0.
        -24    2    4    4    0    0 -0.46994715747E+03  0.12137753045E+03  0.32656703202E+02  0.49305851645E+03  0.80357978209E+02 0.  0.
         24    2    4    4    0    0  0.25419053137E+03  0.73544894218E+02  0.52953660317E+03  0.59720303859E+03  0.78871905669E+02 0.  0.
         13    1    3    3    0    0  0.11909356042E+03 -0.16071256470E+03 -0.13700737387E+03  0.24245169639E+03  0.00000000000E+00 0.  1.
        -13    1    3    3    0    0  0.96663065680E+02 -0.34209859965E+02 -0.92782223467E+02  0.13828450303E+03  0.00000000000E+00 0. -1.
          2    1    6    6  502    0  0.20371920271E+03  0.90434428401E+02  0.42927101165E+03  0.48368739992E+03  0.00000000000E+00 0. -1.
          1    1    5    5  503    0 -0.44370756436E+03  0.93271294652E+02  0.33022780436E+02  0.45460580848E+03  0.00000000000E+00 0. -1.
         -2    1    5    5    0  503 -0.26239593117E+02  0.28106235799E+02 -0.36607723406E+00  0.38452707971E+02  0.00000000000E+00 0.  1.
         -1    1    6    6    0  502  0.50471328667E+02 -0.16889534183E+02  0.10026559151E+03  0.11351563868E+03  0.00000000000E+00 0.  1.
<mgrwt>
<rscale>  0 0.14329488E+04</rscale>
<asrwt>0</asrwt>
<pdfrwt beam="1">  1        1 0.13872319E+00 0.14329488E+04</pdfrwt>
<pdfrwt beam="2">  1       -1 0.87584157E-01 0.14329488E+04</pdfrwt>
<totfact> 0.22630918E+01</totfact>
</mgrwt>
</event>
<event>
12    1  0.1442183E-007  0.2410515E+04  0.7818608E-02  0.8435577E-01
          2   -1    0    0  501    0  0.00000000000E+00  0.00000000000E+00  0.42929598258E+03  0.42929598258E+03  0.00000000000E+00 0. -1.
         -2   -1    0    0    0  501 -0.00000000000E+00 -0.00000000000E+00 -0.33837858071E+04  0.33837858071E+04  0.00000000000E+00 0.  1.
         23    2    1    2    0    0  0.90836858868E+03 -0.49263313014E+03 -0.11609850175E+04  0.15570362463E+04  0.93031004270E+02 0.  0.
        254    2    1    2    0    0 -0.90836858868E+03  0.49263313014E+03 -0.17935048071E+04  0.22560455434E+04  0.89736341967E+03 0.  0.
        -24    2    4    4    0    0 -0.10482654892E+04  0.49200875683E+03 -0.13301157688E+04  0.17654585028E+04  0.81869492346E+02 0.  0.
         24    2    4    4    0    0  0.13989690051E+03  0.62437330447E+00 -0.46338903820E+03  0.49058704060E+03  0.79841787699E+02 0.  0.
         11    1    3    3    0    0  0.21401507969E+03 -0.12909462073E+03 -0.22559309478E+03  0.33668994617E+03  0.00000000000E+00 0.  1.
        -11    1    3    3    0    0  0.69435350899E+03 -0.36353850941E+03 -0.93539192269E+03  0.12203463002E+04  0.00000000000E+00 0. -1.
          2    1    6    6  502    0  0.10405567856E+03  0.16024660968E+02 -0.21771376213E+03  0.24183394349E+03  0.00000000000E+00 0. -1.
          3    1    5    5  503    0 -0.80658525386E+03  0.40761947617E+03 -0.10684323505E+04  0.13993859713E+04  0.00000000000E+00 0. -1.
         -4    1    5    5    0  503 -0.24168023533E+03  0.84389280665E+02 -0.26168341833E+03  0.36607253143E+03  0.00000000000E+00 0.  1.
         -1    1    6    6    0  502  0.35841221946E+02 -0.15400287663E+02 -0.24567527607E+03  0.24875309711E+03  0.00000000000E+00 0.  1.
<mgrwt>
<rscale>  0 0.24105150E+04</rscale>
<asrwt>0</asrwt>
<pdfrwt beam="1">  1        2 0.66045536E-01 0.24105150E+04</pdfrwt>
<pdfrwt beam="2">  1       -2 0.52058243E+00 0.24105150E+04</pdfrwt>
<totfact> 0.81184195E-02</totfact>
</mgrwt>
</event>
<event>
12    1  0.1442183E-007  0.2999367E+04  0.7818608E-02  0.8243912E-01
         -2   -1    0    0    0  501 -0.00000000000E+00  0.00000000000E+00  0.16584685904E+04  0.16584685904E+04  0.00000000000E+00 0.  1.
          2   -1    0    0  501    0  0.00000000000E+00 -0.00000000000E+00 -0.13561011420E+04  0.13561011420E+04  0.00000000000E+00 0. -1.
         23    2    1    2    0    0 -0.36908490860E+03 -0.12776985090E+04 -0.17679367133E+03  0.13447107476E+04  0.90850662476E+02 0.  0.
        254    2    1    2    0    0  0.36908490860E+03  0.12776985090E+04  0.47916111977E+03  0.16698589848E+04  0.88887372595E+03 0.  0.
        -24    2    4    4    0    0  0.25138997272E+03  0.10336003339E+04 -0.52094573124E+02  0.10680559360E+04  0.80641609487E+02 0.  0.
         24    2    4    4    0    0  0.11769493589E+03  0.24409817506E+03  0.53125569290E+03  0.60180304878E+03  0.80611917759E+02 0.  0.
         11    1    3    3    0    0 -0.26748481534E+03 -0.99113109852E+03 -0.17012899849E+03  0.10405925509E+04  0.00000000000E+00 0. -1.
        -11    1    3    3    0    0 -0.10160009327E+03 -0.28656741047E+03 -0.66646728319E+01  0.30411819669E+03  0.00000000000E+00 0.  1.
          4    1    6    6  502    0  0.96849485891E+02  0.14696728609E+03  0.40149896056E+03  0.43838410261E+03  0.00000000000E+00 0. -1.
          3    1    5    5  503    0  0.21289960103E+03  0.87626167819E+03 -0.14973819969E+02  0.90187858610E+03  0.00000000000E+00 0. -1.
         -2    1    5    5    0  503  0.38490371687E+02  0.15733865573E+03 -0.37120753155E+02  0.16617734988E+03  0.00000000000E+00 0.  1.
         -3    1    6    6    0  502  0.20845449997E+02  0.97130888976E+02  0.12975673234E+03  0.16341894617E+03  0.00000000000E+00 0.  1.
<mgrwt>
<rscale>  0 0.29993674E+04</rscale>
<asrwt>0</asrwt>
<pdfrwt beam="1">  1        2 0.20863095E+00 0.29993674E+04</pdfrwt>
<pdfrwt beam="2">  1       -2 0.25514901E+00 0.29993674E+04</pdfrwt>
<totfact> 0.78442688E-01</totfact>
</mgrwt>
</event>
<event>
12    1  0.1442183E-007  0.2278971E+04  0.7818608E-02  0.8486259E-01
          4   -1    0    0  501    0  0.00000000000E+00  0.00000000000E+00  0.17521490126E+04  0.17521490126E+04  0.00000000000E+00 0. -1.
         -4   -1    0    0    0  501 -0.00000000000E+00 -0.00000000000E+00 -0.74104807023E+03  0.74104807023E+03  0.00000000000E+00 0.  1.
         23    2    1    2    0    0 -0.83994122687E+02  0.85489569481E+03  0.84209104064E+03  0.12061160634E+04  0.87732411727E+02 0.  0.
        254    2    1    2    0    0  0.83994122687E+02 -0.85489569481E+03  0.16900990172E+03  0.12870810194E+04  0.94345722848E+03 0.  0.
        -24    2    4    4    0    0 -0.28773735974E+03 -0.19063551192E+03 -0.23156902705E+03  0.42324460405E+03  0.79856708987E+02 0.  0.
         24    2    4    4    0    0  0.37173148243E+03 -0.66426018289E+03  0.40057892876E+03  0.86383641535E+03  0.79523510451E+02 0.  0.
         13    1    3    3    0    0 -0.27909448701E+02  0.55530516634E+03  0.58857797902E+03  0.80967079883E+03  0.00000000000E+00 0. -1.
        -13    1    3    3    0    0 -0.56084673986E+02  0.29959052848E+03  0.25351306162E+03  0.39644526460E+03  0.00000000000E+00 0.  1.
          2    1    6    6  502    0  0.19309044336E+03 -0.28983417278E+03  0.15015817718E+03  0.37925617358E+03  0.00000000000E+00 0. -1.
          1    1    5    5  503    0 -0.41581509609E+02 -0.64381255623E+02 -0.37559683489E+02  0.85350441362E+02  0.00000000000E+00 0. -1.
         -2    1    5    5    0  503 -0.24615585013E+03 -0.12625425630E+03 -0.19400934356E+03  0.33789416268E+03  0.00000000000E+00 0.  1.
         -1    1    6    6    0  502  0.17864103907E+03 -0.37442601011E+03  0.25042075158E+03  0.48458024177E+03  0.00000000000E+00 0.  1.
<mgrwt>
<rscale>  0 0.22789705E+04</rscale>
<asrwt>0</asrwt>
<pdfrwt beam="1">  1        4 0.26956138E+00 0.22789705E+04</pdfrwt>
<pdfrwt beam="2">  1       -4 0.11400740E+00 0.22789705E+04</pdfrwt>
<totfact> 0.52067899E-02</totfact>
</mgrwt>
</event>
<event>
12    1  0.1442183E-007  0.2217335E+04  0.7818608E-02  0.8511247E-01
         -1   -1    0    0    0  501 -0.00000000000E+00  0.00000000000E+00  0.91142758926E+03  0.91142758926E+03  0.00000000000E+00 0.  1.
          1   -1    0    0  501    0  0.00000000000E+00 -0.00000000000E+00 -0.13485921647E+04  0.13485921647E+04  0.00000000000E+00 0. -1.
         23    2    1    2    0    0 -0.34758973503E+03  0.65252362546E+03 -0.75189507966E+03  0.10583976010E+04  0.90849134505E+02 0.  0.
        254    2    1    2    0    0  0.34758973503E+03 -0.65252362546E+03  0.31473050426E+03  0.12016221529E+04  0.89343987064E+03 0.  0.
        -24    2    4    4    0    0  0.19513121201E+03 -0.44549839157E+03  0.62152345342E+03  0.79323036053E+03  0.79862349820E+02 0.  0.
         24    2    4    4    0    0  0.15245852302E+03 -0.20702523389E+03 -0.30679294916E+03  0.40839179242E+03  0.80986997422E+02 0.  0.
         13    1    3    3    0    0 -0.28042378179E+03  0.53298842246E+03 -0.65918814499E+03  0.89288474417E+03  0.00000000000E+00 0. -1.
        -13    1    3    3    0    0 -0.67165953242E+02  0.11953520300E+03 -0.92706934663E+02  0.16551285680E+03  0.00000000000E+00 0.  1.
          2    1    6    6  502    0  0.30435707754E+02 -0.25417116775E+02 -0.99010772648E+02  0.10665596670E+03  0.00000000000E+00 0. -1.
          1    1    5    5  503    0  0.13608414087E+03 -0.38405812296E+03  0.50524160985E+03  0.64906749998E+03  0.00000000000E+00 0. -1.
         -2    1    5    5    0  503  0.59047071137E+02 -0.61440268616E+02  0.11628184357E+03  0.14416286055E+03  0.00000000000E+00 0.  1.
         -1    1    6    6    0  502  0.12202281527E+03 -0.18160811711E+03 -0.20778217651E+03  0.30173582572E+03  0.00000000000E+00 0.  1.
<mgrwt>
<rscale>  0 0.22173354E+04</rscale>
<asrwt>0</asrwt>
<pdfrwt beam="1">  1        1 0.20747572E+00 0.22173354E+04</pdfrwt>
<pdfrwt beam="2">  1       -1 0.14021963E+00 0.22173354E+04</pdfrwt>
<totfact> 0.31743405E+00</totfact>
</mgrwt>
</event>
<event>
12    1  0.1442183E-007  0.2283825E+04  0.7818608E-02  0.8484326E-01
         -2   -1    0    0    0  501 -0.00000000000E+00  0.00000000000E+00  0.11793129609E+04  0.11793129609E+04  0.00000000000E+00 0.  1.
          2   -1    0    0  501    0  0.00000000000E+00 -0.00000000000E+00 -0.11056980528E+04  0.11056980528E+04  0.00000000000E+00 0. -1.
         23    2    1    2    0    0 -0.15673292179E+03  0.17063832592E+03 -0.90026320867E+03  0.93414568579E+03  0.92041677228E+02 0.  0.
        254    2    1    2    0    0  0.15673292179E+03 -0.17063832592E+03  0.97387811679E+03  0.13508653279E+04  0.90703687941E+03 0.  0.
        -24    2    4    4    0    0  0.48647074480E+03 -0.20724442489E+01  0.78855771862E+03  0.92991296572E+03  0.79099732259E+02 0.  0.
         24    2    4    4    0    0 -0.32973782301E+03 -0.16856588167E+03  0.18532039817E+03  0.42095236214E+03  0.75602598041E+02 0.  0.
         13    1    3    3    0    0 -0.57379963436E+02  0.10774545619E+03 -0.32924875059E+03  0.35114994418E+03  0.00000000000E+00 0.  1.
        -13    1    3    3    0    0 -0.99352958359E+02  0.62892869733E+02 -0.57101445808E+03  0.58299574161E+03  0.00000000000E+00 0. -1.
          4    1    6    6  502    0 -0.71330020806E+02 -0.68688081812E+02  0.30640252711E+02  0.10365736605E+03  0.00000000000E+00 0. -1.
          3    1    5    5  503    0  0.11311069318E+03 -0.31048500328E+02  0.21531009273E+03  0.24518661121E+03  0.00000000000E+00 0. -1.
         -4    1    5    5    0  503  0.37336005162E+03  0.28976056079E+02  0.57324762589E+03  0.68472635451E+03  0.00000000000E+00 0.  1.
         -3    1    6    6    0  502 -0.25840780220E+03 -0.99877799858E+02  0.15468014546E+03  0.31729499609E+03  0.00000000000E+00 0.  1.
<mgrwt>
<rscale>  0 0.22838249E+04</rscale>
<asrwt>0</asrwt>
<pdfrwt beam="1">  1        2 0.17010739E+00 0.22838249E+04</pdfrwt>
<pdfrwt beam="2">  1       -2 0.18143276E+00 0.22838249E+04</pdfrwt>
<totfact> 0.34769490E+00</totfact>
</mgrwt>
</event>
<event>
12    1  0.1442183E-007  0.2595006E+04  0.7818608E-02  0.8369900E-01
          2   -1    0    0  501    0  0.00000000000E+00  0.00000000000E+00  0.21415207445E+04  0.21415207445E+04  0.00000000000E+00 0. -1.
         -2   -1    0    0    0  501 -0.00000000000E+00 -0.00000000000E+00 -0.78612999866E+03  0.78612999866E+03  0.00000000000E+00 0.  1.
         23    2    1    2    0    0 -0.11310486709E+04  0.11696495765E+03  0.47514814344E+03  0.12356702110E+04  0.90350511455E+02 0.  0.
        254    2    1    2    0    0  0.11310486709E+04 -0.11696495765E+03  0.88024260238E+03  0.16919805322E+04  0.89163848334E+03 0.  0.
        -24    2    4    4    0    0  0.10295831492E+04 -0.41715546342E+03  0.62664348125E+03  0.12779419934E+04  0.79959639994E+02 0.  0.
         24    2    4    4    0    0  0.10146552167E+03  0.30019050577E+03  0.25359912113E+03  0.41403853880E+03  0.81888982946E+02 0.  0.
         13    1    3    3    0    0 -0.34903468069E+03  0.54086334724E+01  0.17659007201E+03  0.39120137419E+03  0.00000000000E+00 0. -1.
        -13    1    3    3    0    0 -0.78201399017E+03  0.11155632418E+03  0.29855807143E+03  0.84446883678E+03  0.00000000000E+00 0.  1.
          4    1    6    6  502    0  0.26860712920E+02  0.15849531065E+02  0.11594630047E+02  0.33273728067E+02  0.00000000000E+00 0. -1.
          3    1    5    5  503    0  0.15856507201E+03 -0.71461215808E+02  0.66633464176E+02  0.18625145898E+03  0.00000000000E+00 0. -1.
         -4    1    5    5    0  503  0.87101807718E+03 -0.34569424761E+03  0.56001001708E+03  0.10916905344E+04  0.00000000000E+00 0.  1.
         -3    1    6    6    0  502  0.74604808746E+02  0.28434097471E+03  0.24200449108E+03  0.38076481073E+03  0.00000000000E+00 0.  1.
<mgrwt>
<rscale>  0 0.25950057E+04</rscale>
<asrwt>0</asrwt>
<pdfrwt beam="1">  1        2 0.32946473E+00 0.25950057E+04</pdfrwt>
<pdfrwt beam="2">  1       -2 0.12094308E+00 0.25950057E+04</pdfrwt>
<totfact> 0.25664570E+00</totfact>
</mgrwt>
</event>
<event>
12    1  0.1442183E-007  0.1435859E+04  0.7818608E-02  0.8928263E-01
         -2   -1    0    0    0  501 -0.00000000000E+00  0.00000000000E+00  0.52420772643E+03  0.52420772643E+03  0.00000000000E+00 0.  1.
          2   -1    0    0  501    0  0.00000000000E+00 -0.00000000000E+00 -0.98324197979E+03  0.98324197979E+03  0.00000000000E+00 0. -1.
         23    2    1    2    0    0 -0.11818601729E+02 -0.85985659783E+02  0.29164219428E+03  0.32617696588E+03  0.11748629942E+03 0.  0.
        254    2    1    2    0    0  0.11818601729E+02  0.85985659783E+02 -0.75067644765E+03  0.11812727403E+04  0.90794104708E+03 0.  0.
        -24    2    4    4    0    0 -0.32796201657E+03  0.12841726430E+03 -0.10579933669E+02  0.36151488891E+03  0.80814613915E+02 0.  0.
         24    2    4    4    0    0  0.33978061830E+03 -0.42431604520E+02 -0.74009651398E+03  0.81975785143E+03  0.83718428911E+02 0.  0.
         11    1    3    3    0    0  0.10931624920E+02  0.12882656669E+02  0.15537501728E+03  0.15629094428E+03  0.00000000000E+00 0.  1.
        -11    1    3    3    0    0 -0.22750226648E+02 -0.98868316452E+02  0.13626717699E+03  0.16988602160E+03  0.00000000000E+00 0. -1.
          2    1    6    6  502    0  0.24241398897E+01  0.92542141037E+01 -0.10056088653E+02  0.13879547971E+02  0.00000000000E+00 0. -1.
          3    1    5    5  503    0 -0.12812803221E+03  0.42622900315E+02 -0.42836362222E+02  0.14166318575E+03  0.00000000000E+00 0. -1.
         -4    1    5    5    0  503 -0.19983398437E+03  0.85794363988E+02  0.32256428553E+02  0.21985170316E+03  0.00000000000E+00 0.  1.
         -1    1    6    6    0  502  0.33735647841E+03 -0.51685818623E+02 -0.73004042533E+03  0.80587830346E+03  0.00000000000E+00 0.  1.
<mgrwt>
<rscale>  0 0.14358594E+04</rscale>
<asrwt>0</asrwt>
<pdfrwt beam="1">  1        2 0.15126800E+00 0.14358594E+04</pdfrwt>
<pdfrwt beam="2">  1       -2 0.80647343E-01 0.14358594E+04</pdfrwt>
<totfact> 0.34039425E+01</totfact>
</mgrwt>
</event>
<event>
12    1  0.1442183E-007  0.2572151E+04  0.7818608E-02  0.8377723E-01
          2   -1    0    0  501    0  0.00000000000E+00  0.00000000000E+00  0.21847490558E+04  0.21847490558E+04  0.00000000000E+00 0. -1.
         -2   -1    0    0    0  501 -0.00000000000E+00 -0.00000000000E+00 -0.75706211356E+03  0.75706211356E+03  0.00000000000E+00 0.  1.
         23    2    1    2    0    0  0.66168658287E+03 -0.85174640225E+03  0.25401356422E+03  0.11118739031E+04  0.91867393454E+02 0.  0.
        254    2    1    2    0    0 -0.66168658287E+03  0.85174640225E+03  0.11736733780E+04  0.18299372662E+04  0.89881039847E+03 0.  0.
        -24    2    4    4    0    0 -0.39857295775E+03  0.20146930369E+03 -0.83750878320E+01  0.45365716001E+03  0.79274168211E+02 0.  0.
         24    2    4    4    0    0 -0.26311362512E+03  0.65027709855E+03  0.11820484659E+04  0.13762801062E+04  0.69420966182E+02 0.  0.
         13    1    3    3    0    0  0.66046712566E+03 -0.85203930991E+03  0.25732419712E+03  0.11083336827E+04  0.00000000000E+00 0.  1.
        -13    1    3    3    0    0  0.12194572103E+01  0.29290766660E+00 -0.33106328975E+01  0.35402204692E+01  0.00000000000E+00 0. -1.
          4    1    6    6  502    0 -0.19387174100E+03  0.49942317178E+03  0.95537228158E+03  0.10953291528E+04  0.00000000000E+00 0. -1.
          3    1    5    5  503    0 -0.15664470702E+03  0.12320148664E+03 -0.56265978289E+01  0.19936857614E+03  0.00000000000E+00 0. -1.
         -4    1    5    5    0  503 -0.24192825073E+03  0.78267817053E+02 -0.27484900031E+01  0.25428858386E+03  0.00000000000E+00 0.  1.
         -1    1    6    6    0  502 -0.69241884117E+02  0.15085392678E+03  0.22667618428E+03  0.28095095348E+03  0.00000000000E+00 0.  1.
<mgrwt>
<rscale>  0 0.25721514E+04</rscale>
<asrwt>0</asrwt>
<pdfrwt beam="1">  1        2 0.33611524E+00 0.25721514E+04</pdfrwt>
<pdfrwt beam="2">  1       -2 0.11647109E+00 0.25721514E+04</pdfrwt>
<totfact> 0.26688410E+00</totfact>
</mgrwt>
</event>
<event>
12    1  0.1442183E-007  0.1754813E+04  0.7818608E-02  0.8730706E-01
         -1   -1    0    0    0  501 -0.00000000000E+00  0.00000000000E+00  0.70562209516E+03  0.70562209516E+03  0.00000000000E+00 0.  1.
          1   -1    0    0  501    0  0.00000000000E+00 -0.00000000000E+00 -0.10910116887E+04  0.10910116887E+04  0.00000000000E+00 0. -1.
         23    2    1    2    0    0 -0.24917951016E+03 -0.10105206070E+03  0.45370258259E+03  0.53507062505E+03  0.90291711078E+02 0.  0.
        254    2    1    2    0    0  0.24917951016E+03  0.10105206070E+03 -0.83909217611E+03  0.12615631588E+04  0.90286431779E+03 0.  0.
        -24    2    4    4    0    0 -0.19877804497E+03  0.34083552933E+03 -0.51598301236E+03  0.65420788168E+03  0.77896817535E+02 0.  0.
         24    2    4    4    0    0  0.44795755513E+03 -0.23978346863E+03 -0.32310916375E+03  0.60735527711E+03  0.79490992641E+02 0.  0.
         13    1    3    3    0    0 -0.23994443694E+03 -0.81702753595E+02  0.36882605782E+03  0.44752802559E+03  0.00000000000E+00 0.  1.
        -13    1    3    3    0    0 -0.92350732143E+01 -0.19349307106E+02  0.84876524767E+02  0.87542599455E+02  0.00000000000E+00 0. -1.
          4    1    6    6  502    0  0.42045928976E+03 -0.22932529901E+03 -0.32346674100E+03  0.57793324843E+03  0.00000000000E+00 0. -1.
          1    1    5    5  503    0 -0.18202925676E+03  0.33392440636E+03 -0.46880761166E+03  0.60367270622E+03  0.00000000000E+00 0. -1.
         -2    1    5    5    0  503 -0.16748788213E+02  0.69111229698E+01 -0.47175400699E+02  0.50535175456E+02  0.00000000000E+00 0.  1.
         -3    1    6    6    0  502  0.27498265366E+02 -0.10458169624E+02  0.35757725080E+00  0.29422028677E+02  0.00000000000E+00 0.  1.
<mgrwt>
<rscale>  0 0.17548128E+04</rscale>
<asrwt>0</asrwt>
<pdfrwt beam="1">  1        1 0.16784795E+00 0.17548128E+04</pdfrwt>
<pdfrwt beam="2">  1       -1 0.10855724E+00 0.17548128E+04</pdfrwt>
<totfact> 0.96065773E+00</totfact>
</mgrwt>
</event>
<event>
12    1  0.1442183E-007  0.1479116E+04  0.7818608E-02  0.8898460E-01
         -1   -1    0    0    0  501 -0.00000000000E+00  0.00000000000E+00  0.61253377580E+03  0.61253377580E+03  0.00000000000E+00 0.  1.
          1   -1    0    0  501    0  0.00000000000E+00 -0.00000000000E+00 -0.89292407641E+03  0.89292407641E+03  0.00000000000E+00 0. -1.
         23    2    1    2    0    0  0.12625176710E+03 -0.32523986098E+03  0.21819908384E+03  0.42516842848E+03  0.10694333322E+03 0.  0.
        254    2    1    2    0    0 -0.12625176710E+03  0.32523986098E+03 -0.49858938446E+03  0.10802894237E+04  0.89258802863E+03 0.  0.
        -24    2    4    4    0    0 -0.96341284940E+02 -0.30088675713E+03 -0.15380847826E+03  0.36035747589E+03  0.79912318475E+02 0.  0.
         24    2    4    4    0    0 -0.29910482159E+02  0.62612661811E+03 -0.34478090620E+03  0.71993194784E+03  0.80616111192E+02 0.  0.
         11    1    3    3    0    0 -0.25543972577E+01 -0.11488739111E+02 -0.10769361693E+02  0.15952906411E+02  0.00000000000E+00 0. -1.
        -11    1    3    3    0    0  0.12880616436E+03 -0.31375112187E+03  0.22896844554E+03  0.40921552207E+03  0.00000000000E+00 0.  1.
          2    1    6    6  502    0 -0.47617911126E+02  0.33538160901E+03 -0.15694529754E+03  0.37333646425E+03  0.00000000000E+00 0. -1.
          1    1    5    5  503    0 -0.43100505133E+02 -0.21617176882E+03 -0.13519806632E+03  0.25858539076E+03  0.00000000000E+00 0. -1.
         -2    1    5    5    0  503 -0.53240779807E+02 -0.84714988309E+02 -0.18610411937E+02  0.10177208513E+03  0.00000000000E+00 0.  1.
         -1    1    6    6    0  502  0.17707428967E+02  0.29074500910E+03 -0.18783560866E+03  0.34659548358E+03  0.00000000000E+00 0.  1.
<mgrwt>
<rscale>  0 0.14791162E+04</rscale>
<asrwt>0</asrwt>
<pdfrwt beam="1">  1        1 0.13737293E+00 0.14791162E+04</pdfrwt>
<pdfrwt beam="2">  1       -1 0.94235966E-01 0.14791162E+04</pdfrwt>
<totfact> 0.19491332E+01</totfact>
</mgrwt>
</event>
<event>
12    1  0.1442183E-007  0.1802272E+04  0.7818608E-02  0.8705092E-01
         -1   -1    0    0    0  501 -0.00000000000E+00  0.00000000000E+00  0.31948275106E+03  0.31948275106E+03  0.00000000000E+00 0.  1.
          1   -1    0    0  501    0  0.00000000000E+00 -0.00000000000E+00 -0.25417523084E+04  0.25417523084E+04  0.00000000000E+00 0. -1.
         23    2    1    2    0    0 -0.61522001258E+03  0.24377144363E+03 -0.10122280325E+04  0.12129438286E+04  0.93311098351E+02 0.  0.
        254    2    1    2    0    0  0.61522001258E+03 -0.24377144363E+03 -0.12100415248E+04  0.16482912308E+04  0.90263132512E+03 0.  0.
        -24    2    4    4    0    0  0.46488080394E+03  0.11020943906E+03 -0.13372249719E+03  0.50251363720E+03  0.79862174910E+02 0.  0.
         24    2    4    4    0    0  0.15033920864E+03 -0.35398088269E+03 -0.10763190277E+04  0.11457775936E+04  0.80245259992E+02 0.  0.
         11    1    3    3    0    0 -0.19117304615E+02  0.19216501969E+02 -0.19383254992E+02  0.33323503084E+02  0.00000000000E+00 0. -1.
        -11    1    3    3    0    0 -0.59610270796E+03  0.22455494166E+03 -0.99284477749E+03  0.11796203255E+04  0.00000000000E+00 0.  1.
          2    1    6    6  502    0  0.74452383229E+02 -0.14423659130E+03 -0.56659961419E+03  0.58939161381E+03  0.00000000000E+00 0. -1.
          3    1    5    5  503    0  0.41000682971E+03  0.10415915599E+03 -0.14297232492E+03  0.44653758618E+03  0.00000000000E+00 0. -1.
         -4    1    5    5    0  503  0.54873974237E+02  0.60502830731E+01  0.92498277331E+01  0.55976051012E+02  0.00000000000E+00 0.  1.
         -1    1    6    6    0  502  0.75886825408E+02 -0.20974429139E+03 -0.50971941347E+03  0.55638597979E+03  0.00000000000E+00 0.  1.
<mgrwt>
<rscale>  0 0.18022719E+04</rscale>
<asrwt>0</asrwt>
<pdfrwt beam="1">  1        1 0.39103881E+00 0.18022719E+04</pdfrwt>
<pdfrwt beam="2">  1       -1 0.49151193E-01 0.18022719E+04</pdfrwt>
<totfact> 0.49633587E+00</totfact>
</mgrwt>
</event>
<event>
12    1  0.1442183E-007  0.1425432E+04  0.7818608E-02  0.8935612E-01
         -2   -1    0    0    0  501 -0.00000000000E+00  0.00000000000E+00  0.19277696838E+03  0.19277696838E+03  0.00000000000E+00 0. -1.
          2   -1    0    0  501    0  0.00000000000E+00 -0.00000000000E+00 -0.26349850331E+04  0.26349850331E+04  0.00000000000E+00 0.  1.
         23    2    1    2    0    0 -0.16202768576E+03 -0.31473707542E+03 -0.11763180880E+04  0.12319033769E+04  0.92462361071E+02 0.  0.
        254    2    1    2    0    0  0.16202768576E+03  0.31473707542E+03 -0.12658899768E+04  0.15958586246E+04  0.90497233050E+03 0.  0.
        -24    2    4    4    0    0 -0.29523122073E+02  0.51088572219E+03 -0.32116507840E+03  0.60903939190E+03  0.76851398378E+02 0.  0.
         24    2    4    4    0    0  0.19155080783E+03 -0.19614864677E+03 -0.94472489836E+03  0.98681923274E+03  0.78364921385E+02 0.  0.
         13    1    3    3    0    0 -0.38911376391E+02 -0.10942526136E+03 -0.25872962047E+03  0.28360006972E+03  0.00000000000E+00 0. -1.
        -13    1    3    3    0    0 -0.12311630937E+03 -0.20531181406E+03 -0.91758846754E+03  0.94830330716E+03  0.00000000000E+00 0.  1.
          2    1    6    6  502    0  0.99057658891E+02 -0.14875835729E+03 -0.53233086302E+03  0.56153149188E+03  0.00000000000E+00 0. -1.
          3    1    5    5  503    0  0.60264094131E+01  0.32887687532E+03 -0.23680063242E+03  0.40530341257E+03  0.00000000000E+00 0. -1.
         -4    1    5    5    0  503 -0.35549531486E+02  0.18200884687E+03 -0.84364445985E+02  0.20373597933E+03  0.00000000000E+00 0.  1.
         -1    1    6    6    0  502  0.92493148944E+02 -0.47390289478E+02 -0.41239403534E+03  0.42528774086E+03  0.00000000000E+00 0.  1.
<mgrwt>
<rscale>  0 0.14254325E+04</rscale>
<asrwt>0</asrwt>
<pdfrwt beam="1">  1        2 0.40538231E+00 0.14254325E+04</pdfrwt>
<pdfrwt beam="2">  1       -2 0.29657995E-01 0.14254325E+04</pdfrwt>
<totfact> 0.29674732E+01</totfact>
</mgrwt>
</event>
<event>
12    1  0.1442183E-007  0.2367726E+04  0.7818608E-02  0.8451686E-01
          1   -1    0    0  501    0  0.00000000000E+00  0.00000000000E+00  0.18543244157E+04  0.18543244157E+04  0.00000000000E+00 0.  1.
         -1   -1    0    0    0  501 -0.00000000000E+00 -0.00000000000E+00 -0.75581796214E+03  0.75581796214E+03  0.00000000000E+00 0. -1.
         23    2    1    2    0    0  0.49035452967E+03 -0.84328504237E+03  0.74713332459E+03  0.12322400119E+04  0.92897872293E+02 0.  0.
        254    2    1    2    0    0 -0.49035452967E+03  0.84328504237E+03  0.35137312898E+03  0.13779023660E+04  0.90751012497E+03 0.  0.
        -24    2    4    4    0    0 -0.24493141821E+03 -0.12766134395E+03  0.22358038662E+03  0.36495844513E+03  0.83172465571E+02 0.  0.
         24    2    4    4    0    0 -0.24542311147E+03  0.97094638632E+03  0.12779274236E+03  0.10129439208E+04  0.82188886173E+02 0.  0.
         11    1    3    3    0    0  0.25488019054E+03 -0.37780722766E+03  0.30454409407E+03  0.54813257341E+03  0.00000000000E+00 0.  1.
        -11    1    3    3    0    0  0.23547433913E+03 -0.46547781471E+03  0.44258923052E+03  0.68410743846E+03  0.00000000000E+00 0. -1.
          4    1    6    6  502    0 -0.21064910139E+03  0.75689768040E+03  0.71553822718E+02  0.78891513615E+03  0.00000000000E+00 0. -1.
          3    1    5    5  503    0 -0.21237117582E+03 -0.13879149303E+03  0.19089106965E+03  0.31749644932E+03  0.00000000000E+00 0. -1.
         -4    1    5    5    0  503 -0.32560242384E+02  0.11130149082E+02  0.32689316968E+02  0.47461995813E+02  0.00000000000E+00 0.  1.
         -3    1    6    6    0  502 -0.34774010077E+02  0.21404870593E+03  0.56238919642E+02  0.22402878469E+03  0.00000000000E+00 0.  1.
<mgrwt>
<rscale>  0 0.23677261E+04</rscale>
<asrwt>0</asrwt>
<pdfrwt beam="1">  1        1 0.28528068E+00 0.23677261E+04</pdfrwt>
<pdfrwt beam="2">  1       -1 0.11627969E+00 0.23677261E+04</pdfrwt>
<totfact> 0.22471658E+00</totfact>
</mgrwt>
</event>
<event>
12    1  0.1442183E-007  0.1749497E+04  0.7818608E-02  0.8733627E-01
          2   -1    0    0  501    0  0.00000000000E+00  0.00000000000E+00  0.27976783572E+04  0.27976783572E+04  0.00000000000E+00 0. -1.
         -2   -1    0    0    0  501 -0.00000000000E+00 -0.00000000000E+00 -0.27350705858E+03  0.27350705858E+03  0.00000000000E+00 0.  1.
         23    2    1    2    0    0 -0.96370986277E+02  0.12150325123E+03  0.18402991314E+04  0.18490966428E+04  0.91690208179E+02 0.  0.
        254    2    1    2    0    0  0.96370986277E+02 -0.12150325123E+03  0.68387216723E+03  0.12220887730E+04  0.10008843195E+04 0.  0.
        -24    2    4    4    0    0  0.27348209876E+03 -0.45802747804E+03  0.63099778961E+03  0.83010215789E+03  0.79559745165E+02 0.  0.
         24    2    4    4    0    0 -0.17711111249E+03  0.33652422682E+03  0.52874377616E+02  0.39198661511E+03  0.78999400077E+02 0.  0.
         13    1    3    3    0    0 -0.23615802241E+01 -0.87629447596E+01  0.23227866362E+02  0.24937923686E+02  0.00000000000E+00 0.  1.
        -13    1    3    3    0    0 -0.94009406053E+02  0.13026619598E+03  0.18170712651E+04  0.18241587191E+04  0.00000000000E+00 0. -1.
          2    1    6    6  502    0 -0.93191294891E+02  0.24467230830E+03  0.55085648962E+02  0.26755108786E+03  0.00000000000E+00 0. -1.
          3    1    5    5  503    0  0.25162002099E+03 -0.36761843064E+03  0.53911327412E+03  0.69935618096E+03  0.00000000000E+00 0. -1.
         -4    1    5    5    0  503  0.21862077774E+02 -0.90409047405E+02  0.91884515489E+02  0.13074597693E+03  0.00000000000E+00 0.  1.
         -1    1    6    6    0  502 -0.83919817597E+02  0.91851918522E+02 -0.22112713462E+01  0.12443552725E+03  0.00000000000E+00 0.  1.
<mgrwt>
<rscale>  0 0.17494968E+04</rscale>
<asrwt>0</asrwt>
<pdfrwt beam="1">  1        2 0.43041204E+00 0.17494968E+04</pdfrwt>
<pdfrwt beam="2">  1       -2 0.42078011E-01 0.17494968E+04</pdfrwt>
<totfact> 0.11805334E+01</totfact>
</mgrwt>
</event>
<event>
12    1  0.1442183E-007  0.1639898E+04  0.7818608E-02  0.8796405E-01
         -2   -1    0    0    0  501 -0.00000000000E+00  0.00000000000E+00  0.41498690182E+03  0.41498690182E+03  0.00000000000E+00 0.  1.
          2   -1    0    0  501    0  0.00000000000E+00 -0.00000000000E+00 -0.16200911781E+04  0.16200911781E+04  0.00000000000E+00 0. -1.
         23    2    1    2    0    0 -0.31583734982E+03  0.45667716505E+03 -0.28826895755E+03  0.63155202914E+03  0.86323281938E+02 0.  0.
        254    2    1    2    0    0  0.31583734982E+03 -0.45667716505E+03 -0.91683531870E+03  0.14035260508E+04  0.90608559690E+03 0.  0.
        -24    2    4    4    0    0  0.46934584269E+03 -0.42504311930E+02 -0.12655899723E+03  0.49451993800E+03  0.80253677244E+02 0.  0.
         24    2    4    4    0    0 -0.15350849288E+03 -0.41417285312E+03 -0.79027632147E+03  0.90900611275E+03  0.81556355402E+02 0.  0.
         11    1    3    3    0    0 -0.70506557770E+01  0.98404051189E+00  0.41526515671E+01  0.82416380443E+01  0.00000000000E+00 0. -1.
        -11    1    3    3    0    0 -0.30878669404E+03  0.45569312454E+03 -0.29242160912E+03  0.62331039110E+03  0.00000000000E+00 0.  1.
          2    1    6    6  502    0 -0.12488606495E+03 -0.39495712804E+03 -0.71781037973E+03  0.82875774715E+03  0.00000000000E+00 0. -1.
          1    1    5    5  503    0  0.41301779829E+03 -0.63616056898E+02 -0.10966978964E+03  0.43203954351E+03  0.00000000000E+00 0. -1.
         -2    1    5    5    0  503  0.56328044403E+02  0.21111744968E+02 -0.16889207597E+02  0.62480394486E+02  0.00000000000E+00 0.  1.
         -1    1    6    6    0  502 -0.28622427927E+02 -0.19215725080E+02 -0.72465941734E+02  0.80248365604E+02  0.00000000000E+00 0.  1.
<mgrwt>
<rscale>  0 0.16398983E+04</rscale>
<asrwt>0</asrwt>
<pdfrwt beam="1">  1        2 0.24924479E+00 0.16398983E+04</pdfrwt>
<pdfrwt beam="2">  1       -2 0.63844140E-01 0.16398983E+04</pdfrwt>
<totfact> 0.23568953E+01</totfact>
</mgrwt>
</event>
<event>
12    1  0.1442183E-007  0.1471853E+04  0.7818608E-02  0.8903389E-01
          2   -1    0    0  501    0  0.00000000000E+00  0.00000000000E+00  0.20807157312E+04  0.20807157312E+04  0.00000000000E+00 0. -1.
         -2   -1    0    0    0  501 -0.00000000000E+00 -0.00000000000E+00 -0.26028925164E+03  0.26028925164E+03  0.00000000000E+00 0.  1.
         23    2    1    2    0    0  0.40683387898E+03  0.17770031292E+03  0.66544060383E+03  0.80521318862E+03  0.92010192950E+02 0.  0.
        254    2    1    2    0    0 -0.40683387898E+03 -0.17770031292E+03  0.11549858757E+04  0.15357917942E+04  0.90971031420E+03 0.  0.
        -24    2    4    4    0    0  0.49394962692E+02  0.33882323757E+02 -0.12371967862E+03  0.15935067500E+03  0.80611441771E+02 0.  0.
         24    2    4    4    0    0 -0.45622884167E+03 -0.21158263668E+03  0.12787055544E+04  0.13764411192E+04  0.81180612511E+02 0.  0.
         13    1    3    3    0    0  0.36573197293E+03  0.14317409966E+03  0.53113606007E+03  0.66057869565E+03  0.00000000000E+00 0.  1.
        -13    1    3    3    0    0  0.41101906046E+02  0.34526213261E+02  0.13430454376E+03  0.14463449297E+03  0.00000000000E+00 0. -1.
          4    1    6    6  502    0 -0.21538247534E+03 -0.64986307801E+02  0.50068120449E+03  0.54890299636E+03  0.00000000000E+00 0. -1.
          3    1    5    5  503    0 -0.36204388506E+01  0.14030303982E+00  0.10521778197E+02  0.11128121084E+02  0.00000000000E+00 0. -1.
         -4    1    5    5    0  503  0.53015401543E+02  0.33742020717E+02 -0.13424145681E+03  0.14822255392E+03  0.00000000000E+00 0.  1.
         -3    1    6    6    0  502 -0.24084636633E+03 -0.14659632888E+03  0.77802434986E+03  0.82753812286E+03  0.00000000000E+00 0.  1.
<mgrwt>
<rscale>  0 0.14718532E+04</rscale>
<asrwt>0</asrwt>
<pdfrwt beam="1">  1        2 0.32011010E+00 0.14718532E+04</pdfrwt>
<pdfrwt beam="2">  1       -2 0.40044502E-01 0.14718532E+04</pdfrwt>
<totfact> 0.34441727E+01</totfact>
</mgrwt>
</event>
<event>
12    1  0.1442183E-007  0.1955595E+04  0.7818608E-02  0.8627667E-01
          2   -1    0    0  501    0  0.00000000000E+00  0.00000000000E+00  0.27975703412E+04  0.27975703412E+04  0.00000000000E+00 0. -1.
         -2   -1    0    0    0  501 -0.00000000000E+00 -0.00000000000E+00 -0.34175659435E+03  0.34175659435E+03  0.00000000000E+00 0.  1.
         23    2    1    2    0    0 -0.67687242284E+03 -0.33217561597E+03  0.11391119770E+04  0.13688701196E+04  0.87934017407E+02 0.  0.
        254    2    1    2    0    0  0.67687242284E+03  0.33217561597E+03  0.13167017698E+04  0.17704568160E+04  0.91231401937E+03 0.  0.
        -24    2    4    4    0    0  0.74231321016E+02  0.52623845356E+03  0.50315312958E+03  0.73638843893E+03  0.81655754021E+02 0.  0.
         24    2    4    4    0    0  0.60264110183E+03 -0.19406283759E+03  0.81354864025E+03  0.10340683770E+04  0.81236296179E+02 0.  0.
         11    1    3    3    0    0 -0.41908854590E+03 -0.17621216472E+03  0.62284854339E+03  0.77112012313E+03  0.00000000000E+00 0. -1.
        -11    1    3    3    0    0 -0.25778387694E+03 -0.15596345125E+03  0.51626343365E+03  0.59774999645E+03  0.00000000000E+00 0.  1.
          4    1    6    6  502    0  0.94057528365E+02 -0.15654343437E+02  0.16732519589E+03  0.19258659945E+03  0.00000000000E+00 0. -1.
          3    1    5    5  503    0  0.48909146652E+02  0.37911905597E+03  0.30932960369E+03  0.49173993832E+03  0.00000000000E+00 0. -1.
         -4    1    5    5    0  503  0.25322174363E+02  0.14711939759E+03  0.19382352589E+03  0.24464850061E+03  0.00000000000E+00 0.  1.
         -3    1    6    6    0  502  0.50858357346E+03 -0.17840849416E+03  0.64622344436E+03  0.84148177760E+03  0.00000000000E+00 0.  1.
<mgrwt>
<rscale>  0 0.19555952E+04</rscale>
<asrwt>0</asrwt>
<pdfrwt beam="1">  1        2 0.43039542E+00 0.19555952E+04</pdfrwt>
<pdfrwt beam="2">  1       -2 0.52577939E-01 0.19555952E+04</pdfrwt>
<totfact> 0.73965689E+00</totfact>
</mgrwt>
</event>
<event>
12    1  0.1442183E-007  0.1473596E+04  0.7818608E-02  0.8902203E-01
          1   -1    0    0  501    0  0.00000000000E+00  0.00000000000E+00  0.58159820931E+03  0.58159820931E+03  0.00000000000E+00 0. -1.
         -1   -1    0    0    0  501 -0.00000000000E+00 -0.00000000000E+00 -0.93341348510E+03  0.93341348510E+03  0.00000000000E+00 0.  1.
         23    2    1    2    0    0  0.19156617958E+03  0.38055592853E+03 -0.27563217952E+03  0.51528019083E+03  0.89555350404E+02 0.  0.
        254    2    1    2    0    0 -0.19156617958E+03 -0.38055592853E+03 -0.76183096268E+02  0.99973150358E+03  0.90118743844E+03 0.  0.
        -24    2    4    4    0    0 -0.48635298515E+03  0.18808106046E+02 -0.10686439186E+02  0.49303791627E+03  0.77969326477E+02 0.  0.
         24    2    4    4    0    0  0.29478680558E+03 -0.39936403457E+03 -0.65496657082E+02  0.50669358731E+03  0.77831140819E+02 0.  0.
         13    1    3    3    0    0  0.19704069355E+03  0.36804227626E+03 -0.25100175601E+03  0.48711603705E+03  0.00000000000E+00 0.  1.
        -13    1    3    3    0    0 -0.54745139750E+01  0.12513652269E+02 -0.24630423508E+02  0.28164153788E+02  0.00000000000E+00 0. -1.
          4    1    6    6  502    0  0.51811198820E+02 -0.28810811014E+02 -0.54435665497E+01  0.59532306954E+02  0.00000000000E+00 0. -1.
          1    1    5    5  503    0 -0.28601393677E+03 -0.20120896156E+02 -0.28724482938E+02  0.28815606606E+03  0.00000000000E+00 0. -1.
         -2    1    5    5    0  503 -0.20033904839E+03  0.38929002202E+02  0.18038043752E+02  0.20488185021E+03  0.00000000000E+00 0.  1.
         -1    1    6    6    0  502  0.24297560676E+03 -0.37055322356E+03 -0.60053090532E+02  0.44716128036E+03  0.00000000000E+00 0.  1.
<mgrwt>
<rscale>  0 0.14735964E+04</rscale>
<asrwt>0</asrwt>
<pdfrwt beam="1">  1        1 0.89476648E-01 0.14735964E+04</pdfrwt>
<pdfrwt beam="2">  1       -1 0.14360207E+00 0.14735964E+04</pdfrwt>
<totfact> 0.13615540E+01</totfact>
</mgrwt>
</event>
<event>
12    1  0.1442183E-007  0.2057330E+04  0.7818608E-02  0.8580276E-01
         -2   -1    0    0    0  501 -0.00000000000E+00  0.00000000000E+00  0.44665142839E+03  0.44665142839E+03  0.00000000000E+00 0.  1.
          2   -1    0    0  501    0  0.00000000000E+00 -0.00000000000E+00 -0.23690767336E+04  0.23690767336E+04  0.00000000000E+00 0. -1.
         23    2    1    2    0    0  0.43109528679E+03 -0.44526840907E+02 -0.17605698507E+04  0.18146284114E+04  0.73785408049E+02 0.  0.
        254    2    1    2    0    0 -0.43109528679E+03  0.44526840907E+02 -0.16185545450E+03  0.10010997506E+04  0.88779374665E+03 0.  0.
        -24    2    4    4    0    0 -0.44583144894E+03  0.40447102006E+03 -0.24136608677E+02  0.60749459393E+03  0.78132060279E+02 0.  0.
         24    2    4    4    0    0  0.14736162144E+02 -0.35994417915E+03 -0.13771884582E+03  0.39360515664E+03  0.78622975395E+02 0.  0.
         11    1    3    3    0    0  0.33516573987E+03 -0.67299635242E+01 -0.14025840961E+04  0.14420899806E+04  0.00000000000E+00 0. -1.
        -11    1    3    3    0    0  0.95929546923E+02 -0.37796877383E+02 -0.35798575459E+03  0.37253843078E+03  0.00000000000E+00 0.  1.
          4    1    6    6  502    0 -0.21491842405E+02 -0.28127061809E+03 -0.10714222634E+03  0.30175240936E+03  0.00000000000E+00 0. -1.
          3    1    5    5  503    0 -0.12179341012E+03  0.15881371890E+03  0.16859617751E+00  0.20013860318E+03  0.00000000000E+00 0. -1.
         -2    1    5    5    0  503 -0.32403803881E+03  0.24565730116E+03 -0.24305204855E+02  0.40735599074E+03  0.00000000000E+00 0.  1.
         -3    1    6    6    0  502  0.36228004550E+02 -0.78673561062E+02 -0.30576619482E+02  0.91852747280E+02  0.00000000000E+00 0.  1.
<mgrwt>
<rscale>  0 0.20573298E+04</rscale>
<asrwt>0</asrwt>
<pdfrwt beam="1">  1        2 0.36447334E+00 0.20573298E+04</pdfrwt>
<pdfrwt beam="2">  1       -2 0.68715604E-01 0.20573298E+04</pdfrwt>
<totfact> 0.74132232E+00</totfact>
</mgrwt>
</event>
<event>
12    1  0.1442183E-007  0.1741691E+04  0.7818608E-02  0.8737937E-01
         -1   -1    0    0    0  501 -0.00000000000E+00  0.00000000000E+00  0.15466158440E+04  0.15466158440E+04  0.00000000000E+00 0.  1.
          1   -1    0    0  501    0  0.00000000000E+00 -0.00000000000E+00 -0.49034298055E+03  0.49034298055E+03  0.00000000000E+00 0. -1.
         23    2    1    2    0    0  0.30707154102E+02  0.52936410555E+03 -0.36215984010E+01  0.53816959337E+03  0.91891836940E+02 0.  0.
        254    2    1    2    0    0 -0.30707154102E+02 -0.52936410555E+03  0.10598944618E+04  0.14987892312E+04  0.91750945699E+03 0.  0.
        -24    2    4    4    0    0  0.39055094798E+03 -0.35855615130E+03  0.31373324822E+03  0.62120213067E+03  0.79818415824E+02 0.  0.
         24    2    4    4    0    0 -0.42125810209E+03 -0.17080795425E+03  0.74616121361E+03  0.87758710049E+03  0.82272817154E+02 0.  0.
         13    1    3    3    0    0 -0.25327244866E+02  0.70559471976E+02 -0.11760256759E+02  0.75884201631E+02  0.00000000000E+00 0. -1.
        -13    1    3    3    0    0  0.56034398968E+02  0.45880463357E+03  0.81386583581E+01  0.46228539174E+03  0.00000000000E+00 0.  1.
          4    1    6    6  502    0 -0.38383258692E+03 -0.17009279320E+03  0.64378212518E+03  0.76857949347E+03  0.00000000000E+00 0. -1.
          1    1    5    5  503    0  0.98970576002E+02 -0.14127769797E+03  0.97979258323E+02  0.19837968122E+03  0.00000000000E+00 0. -1.
         -2    1    5    5    0  503  0.29158037198E+03 -0.21727845333E+03  0.21575398990E+03  0.42282244946E+03  0.00000000000E+00 0.  1.
         -3    1    6    6    0  502 -0.37425515167E+02 -0.71516105072E+00  0.10237908843E+03  0.10900760702E+03  0.00000000000E+00 0.  1.
<mgrwt>
<rscale>  0 0.17416914E+04</rscale>
<asrwt>0</asrwt>
<pdfrwt beam="1">  1        1 0.75437382E-01 0.17416914E+04</pdfrwt>
<pdfrwt beam="2">  1       -1 0.23794090E+00 0.17416914E+04</pdfrwt>
<totfact> 0.36115714E+00</totfact>
</mgrwt>
</event>
<event>
12    1  0.1442183E-007  0.1357031E+04  0.7818608E-02  0.8985523E-01
         -1   -1    0    0    0  501 -0.00000000000E+00  0.00000000000E+00  0.75442409056E+03  0.75442409056E+03  0.00000000000E+00 0.  1.
          1   -1    0    0  501    0  0.00000000000E+00 -0.00000000000E+00 -0.61024426075E+03  0.61024426075E+03  0.00000000000E+00 0. -1.
         23    2    1    2    0    0 -0.27346424509E+03  0.16950176896E+03  0.17768767408E+03  0.38329429182E+03  0.10875689219E+03 0.  0.
        254    2    1    2    0    0  0.27346424509E+03 -0.16950176896E+03 -0.33507844273E+02  0.98137405948E+03  0.92653047763E+03 0.  0.
        -24    2    4    4    0    0  0.51870565702E+03 -0.88390651037E+02  0.25257833278E+03  0.58888923600E+03  0.78270379296E+02 0.  0.
         24    2    4    4    0    0 -0.24524141192E+03 -0.81111117924E+02 -0.28608617705E+03  0.39248482348E+03  0.74004543047E+02 0.  0.
         13    1    3    3    0    0  0.28853341209E+01 -0.33991218626E+01  0.21261871823E+02  0.21724326821E+02  0.00000000000E+00 0. -1.
        -13    1    3    3    0    0 -0.27634957922E+03  0.17290089082E+03  0.15642580226E+03  0.36156996500E+03  0.00000000000E+00 0.  1.
          4    1    6    6  502    0 -0.17306626132E+02  0.58617354848E+01 -0.48999919204E+02  0.52295997294E+02  0.00000000000E+00 0. -1.
          3    1    5    5  503    0  0.24851767518E+03 -0.77597969842E+02  0.14382090184E+03  0.29743391133E+03  0.00000000000E+00 0. -1.
         -4    1    5    5    0  503  0.27018798184E+03 -0.10792681195E+02  0.10875743094E+03  0.29145532467E+03  0.00000000000E+00 0.  1.
         -3    1    6    6    0  502 -0.22793478579E+03 -0.86972853409E+02 -0.23708625785E+03  0.34018882619E+03  0.00000000000E+00 0.  1.
<mgrwt>
<rscale>  0 0.13570305E+04</rscale>
<asrwt>0</asrwt>
<pdfrwt beam="1">  1        1 0.93883732E-01 0.13570305E+04</pdfrwt>
<pdfrwt beam="2">  1       -1 0.11606525E+00 0.13570305E+04</pdfrwt>
<totfact> 0.21956141E+01</totfact>
</mgrwt>
</event>
<event>
12    1  0.1442183E-007  0.2411574E+04  0.7818608E-02  0.8435183E-01
         -1   -1    0    0    0  501 -0.00000000000E+00  0.00000000000E+00  0.14549430180E+04  0.14549430180E+04  0.00000000000E+00 0.  1.
          1   -1    0    0  501    0  0.00000000000E+00 -0.00000000000E+00 -0.99929862710E+03  0.99929862710E+03  0.00000000000E+00 0. -1.
         23    2    1    2    0    0 -0.35708322231E+03  0.12398830049E+03 -0.78006360955E+03  0.87174827000E+03  0.92543422152E+02 0.  0.
        254    2    1    2    0    0  0.35708322231E+03 -0.12398830049E+03  0.12357080004E+04  0.15824933751E+04  0.91347112355E+03 0.  0.
        -24    2    4    4    0    0  0.49010609699E+03 -0.29866869266E+03  0.12177799544E+04  0.13480541372E+04  0.69677581231E+02 0.  0.
         24    2    4    4    0    0 -0.13302287468E+03  0.17468039217E+03  0.17928046056E+02  0.23443923787E+03  0.80199855475E+02 0.  0.
         13    1    3    3    0    0 -0.17773527551E+03  0.97852714798E+02 -0.48117107911E+03  0.52219784500E+03  0.00000000000E+00 0. -1.
        -13    1    3    3    0    0 -0.17934794680E+03  0.26135585693E+02 -0.29889253044E+03  0.34955042499E+03  0.00000000000E+00 0.  1.
          2    1    6    6  502    0 -0.64595928566E+01  0.27897059029E+01  0.19757023361E+02  0.20972571873E+02  0.00000000000E+00 0. -1.
          1    1    5    5  503    0  0.70021925130E+02 -0.43583282087E+02  0.23868099881E+03  0.25252958573E+03  0.00000000000E+00 0. -1.
         -2    1    5    5    0  503  0.42008417186E+03 -0.25508541058E+03  0.97909895556E+03  0.10955245515E+04  0.00000000000E+00 0.  1.
         -1    1    6    6    0  502 -0.12656328182E+03  0.17189068627E+03 -0.18289773046E+01  0.21346666599E+03  0.00000000000E+00 0.  1.
<mgrwt>
<rscale>  0 0.24115742E+04</rscale>
<asrwt>0</asrwt>
<pdfrwt beam="1">  1        1 0.15373825E+00 0.24115742E+04</pdfrwt>
<pdfrwt beam="2">  1       -1 0.22383739E+00 0.24115742E+04</pdfrwt>
<totfact> 0.14068728E+00</totfact>
</mgrwt>
</event>
<event>
12    1  0.1442183E-007  0.1044520E+04  0.7818608E-02  0.9261020E-01
         -2   -1    0    0    0  501 -0.00000000000E+00  0.00000000000E+00  0.70830251161E+03  0.70830251161E+03  0.00000000000E+00 0.  1.
          2   -1    0    0  501    0  0.00000000000E+00 -0.00000000000E+00 -0.38508362085E+03  0.38508362085E+03  0.00000000000E+00 0. -1.
         23    2    1    2    0    0 -0.63976658515E+02  0.79704982523E+02 -0.13481469508E+02  0.13424726770E+03  0.85992335648E+02 0.  0.
        254    2    1    2    0    0  0.63976658515E+02 -0.79704982523E+02  0.33670036027E+03  0.95913886477E+03  0.89226360019E+03 0.  0.
        -24    2    4    4    0    0 -0.27829778239E+03 -0.20988451722E+03 -0.11191275934E+03  0.37492841453E+03  0.80905401964E+02 0.  0.
         24    2    4    4    0    0  0.34227444091E+03  0.13017953469E+03  0.44861311961E+03  0.58421045024E+03  0.77133746987E+02 0.  0.
         11    1    3    3    0    0 -0.22137700506E+02  0.39043056008E+01  0.29898844807E+02  0.37406714728E+02  0.00000000000E+00 0.  1.
        -11    1    3    3    0    0 -0.41838958009E+02  0.75800676922E+02 -0.43380314315E+02  0.96840552968E+02  0.00000000000E+00 0. -1.
          4    1    6    6  502    0  0.16709254921E+03  0.70688584576E+02  0.16291025270E+03  0.24383713094E+03  0.00000000000E+00 0. -1.
          3    1    5    5  503    0 -0.24745129489E+03 -0.21203260296E+03 -0.11005801835E+03  0.34395164698E+03  0.00000000000E+00 0. -1.
         -4    1    5    5    0  503 -0.30846487500E+02  0.21480857393E+01 -0.18547409911E+01  0.30976767546E+02  0.00000000000E+00 0.  1.
         -3    1    6    6    0  502  0.17518189169E+03  0.59490950118E+02  0.28570286692E+03  0.34037331930E+03  0.00000000000E+00 0.  1.
<mgrwt>
<rscale>  0 0.10445204E+04</rscale>
<asrwt>0</asrwt>
<pdfrwt beam="1">  1        2 0.59243634E-01 0.10445204E+04</pdfrwt>
<pdfrwt beam="2">  1       -2 0.10896962E+00 0.10445204E+04</pdfrwt>
<totfact> 0.55568223E+01</totfact>
</mgrwt>
</event>
<event>
12    1  0.1442183E-007  0.1736387E+04  0.7818608E-02  0.8740879E-01
          1   -1    0    0  501    0  0.00000000000E+00  0.00000000000E+00  0.13023732924E+04  0.13023732924E+04  0.00000000000E+00 0. -1.
         -1   -1    0    0    0  501 -0.00000000000E+00 -0.00000000000E+00 -0.57875879294E+03  0.57875879294E+03  0.00000000000E+00 0.  1.
         23    2    1    2    0    0  0.62834926482E+03  0.17337749516E+01  0.25320279109E+03  0.68271271347E+03  0.84612003524E+02 0.  0.
        254    2    1    2    0    0 -0.62834926482E+03 -0.17337749516E+01  0.47041170836E+03  0.11984193719E+04  0.90559152542E+03 0.  0.
        -24    2    4    4    0    0  0.76027880490E+02  0.25641602050E+03 -0.48365603804E+02  0.28335317660E+03  0.80127254266E+02 0.  0.
         24    2    4    4    0    0 -0.70437714531E+03 -0.25814979545E+03  0.51877731216E+03  0.91506619526E+03  0.73673349057E+02 0.  0.
         11    1    3    3    0    0  0.32281242562E+02  0.18911753906E+02  0.10141113505E+02  0.38763065414E+02  0.00000000000E+00 0.  1.
        -11    1    3    3    0    0  0.59606802226E+03 -0.17177978954E+02  0.24306167758E+03  0.64394964806E+03  0.00000000000E+00 0. -1.
          2    1    6    6  502    0 -0.50906315130E+03 -0.15589173392E+03  0.34580421245E+03  0.63484492442E+03  0.00000000000E+00 0. -1.
          3    1    5    5  503    0  0.58750696061E+02  0.25482708074E+03 -0.41951639427E+02  0.26485548025E+03  0.00000000000E+00 0. -1.
         -4    1    5    5    0  503  0.17277184429E+02  0.15889397618E+01 -0.64139643771E+01  0.18497696353E+02  0.00000000000E+00 0.  1.
         -1    1    6    6    0  502 -0.19531399401E+03 -0.10225806153E+03  0.17297309972E+03  0.28022127084E+03  0.00000000000E+00 0.  1.
<mgrwt>
<rscale>  0 0.17363870E+04</rscale>
<asrwt>0</asrwt>
<pdfrwt beam="1">  1        1 0.20036512E+00 0.17363870E+04</pdfrwt>
<pdfrwt beam="2">  1       -1 0.89039815E-01 0.17363870E+04</pdfrwt>
<totfact> 0.10573521E+01</totfact>
</mgrwt>
</event>
<event>
12    1  0.1442183E-007  0.1192455E+04  0.7818608E-02  0.9119487E-01
         -2   -1    0    0    0  501 -0.00000000000E+00  0.00000000000E+00  0.39326706619E+03  0.39326706619E+03  0.00000000000E+00 0.  1.
          2   -1    0    0  501    0  0.00000000000E+00 -0.00000000000E+00 -0.90393315164E+03  0.90393315164E+03  0.00000000000E+00 0. -1.
         23    2    1    2    0    0  0.13535647765E+03 -0.12281810114E+03  0.62044136769E+02  0.21331912421E+03  0.90829025305E+02 0.  0.
        254    2    1    2    0    0 -0.13535647765E+03  0.12281810114E+03 -0.57271022221E+03  0.10838810936E+04  0.90188445184E+03 0.  0.
        -24    2    4    4    0    0  0.74292738998E+02  0.31144541828E+03 -0.69266588014E+03  0.76715205615E+03  0.78858075675E+02 0.  0.
         24    2    4    4    0    0 -0.20964921664E+03 -0.18862731714E+03  0.11995565793E+03  0.31672903747E+03  0.79967896671E+02 0.  0.
         13    1    3    3    0    0  0.13581768511E+03 -0.13464406666E+03  0.63220936650E+02  0.20142580547E+03  0.00000000000E+00 0.  1.
        -13    1    3    3    0    0 -0.46120746574E+00  0.11825965520E+02 -0.11767998817E+01  0.11893318745E+02  0.00000000000E+00 0. -1.
          4    1    6    6  502    0 -0.21011499084E+03 -0.15901633304E+03  0.10684220173E+03  0.28434092147E+03  0.00000000000E+00 0. -1.
          3    1    5    5  503    0  0.83477986904E+02  0.19076252400E+03 -0.45797369970E+03  0.50308928082E+03  0.00000000000E+00 0. -1.
         -4    1    5    5    0  503 -0.91852479066E+01  0.12068289428E+03 -0.23469218044E+03  0.26406277533E+03  0.00000000000E+00 0.  1.
         -3    1    6    6    0  502  0.46577419846E+00 -0.29610984095E+02  0.13113456206E+02  0.32388116005E+02  0.00000000000E+00 0.  1.
<mgrwt>
<rscale>  0 0.11924548E+04</rscale>
<asrwt>0</asrwt>
<pdfrwt beam="1">  1        2 0.13906664E+00 0.11924548E+04</pdfrwt>
<pdfrwt beam="2">  1       -2 0.60502626E-01 0.11924548E+04</pdfrwt>
<totfact> 0.73223197E+01</totfact>
</mgrwt>
</event>
<event>
12    1  0.1442183E-007  0.1421133E+04  0.7818608E-02  0.8938662E-01
         -3   -1    0    0    0  501 -0.00000000000E+00  0.00000000000E+00  0.85157420829E+03  0.85157420829E+03  0.00000000000E+00 0.  1.
          3   -1    0    0  501    0  0.00000000000E+00 -0.00000000000E+00 -0.59290793039E+03  0.59290793039E+03  0.00000000000E+00 0. -1.
         23    2    1    2    0    0  0.27118435085E+01  0.19254105307E+03 -0.30357278181E+03  0.36688500278E+03  0.73271824043E+02 0.  0.
        254    2    1    2    0    0 -0.27118435085E+01 -0.19254105307E+03  0.56223905971E+03  0.10775971359E+04  0.89890122696E+03 0.  0.
        -24    2    4    4    0    0 -0.20865218583E+02  0.24863770904E+03  0.57196269635E+03  0.62905142168E+03  0.79424790787E+02 0.  0.
         24    2    4    4    0    0  0.18153375075E+02 -0.44117876211E+03 -0.97236366447E+01  0.44854571423E+03  0.78297276300E+02 0.  0.
         11    1    3    3    0    0 -0.52761896645E+01 -0.55301230222E+01 -0.14174213676E+02  0.16103688129E+02  0.00000000000E+00 0.  1.
        -11    1    3    3    0    0  0.79880331730E+01  0.19807117609E+03 -0.28939856813E+03  0.35078131465E+03  0.00000000000E+00 0. -1.
          4    1    6    6  502    0 -0.36638434323E+01 -0.29741451906E+03  0.26729802830E+02  0.29863573506E+03  0.00000000000E+00 0. -1.
          1    1    5    5  503    0  0.22255288122E+02  0.17357497459E+03  0.39627331439E+03  0.43319292394E+03  0.00000000000E+00 0. -1.
         -4    1    5    5    0  503 -0.43120506706E+02  0.75062734456E+02  0.17568938196E+03  0.19585849774E+03  0.00000000000E+00 0.  1.
         -3    1    6    6    0  502  0.21817218507E+02 -0.14376424305E+03 -0.36453439475E+02  0.14990997917E+03  0.00000000000E+00 0.  1.
<mgrwt>
<rscale>  0 0.14211335E+04</rscale>
<asrwt>0</asrwt>
<pdfrwt beam="1">  1        3 0.91216605E-01 0.14211335E+04</pdfrwt>
<pdfrwt beam="2">  1       -3 0.13101142E+00 0.14211335E+04</pdfrwt>
<totfact> 0.12539373E+00</totfact>
</mgrwt>
</event>
<event>
12    1  0.1442183E-007  0.1551146E+04  0.7818608E-02  0.8851136E-01
         -1   -1    0    0    0  501 -0.00000000000E+00  0.00000000000E+00  0.44808079846E+03  0.44808079846E+03  0.00000000000E+00 0.  1.
          1   -1    0    0  501    0  0.00000000000E+00 -0.00000000000E+00 -0.13424218286E+04  0.13424218286E+04  0.00000000000E+00 0. -1.
         23    2    1    2    0    0 -0.14254480820E+03 -0.12143957555E+03  0.24937446824E+03  0.32504418354E+03  0.91648802432E+02 0.  0.
        254    2    1    2    0    0  0.14254480820E+03  0.12143957555E+03 -0.11437154984E+04  0.14654584436E+04  0.89689281167E+03 0.  0.
        -24    2    4    4    0    0 -0.17724535056E+03  0.10134779383E+03 -0.11118459431E+04  0.11333305072E+04  0.80928040619E+02 0.  0.
         24    2    4    4    0    0  0.31979015877E+03  0.20091781728E+02 -0.31869555376E+02  0.33212793641E+03  0.81387174978E+02 0.  0.
         11    1    3    3    0    0 -0.10359828842E+03 -0.13016598676E+03  0.18073277665E+03  0.24564227248E+03  0.00000000000E+00 0.  1.
        -11    1    3    3    0    0 -0.38946519785E+02  0.87264112088E+01  0.68641691588E+02  0.79401911060E+02  0.00000000000E+00 0. -1.
          4    1    6    6  502    0  0.30908824374E+03  0.36191538450E+02 -0.28474018681E+02  0.31249982339E+03  0.00000000000E+00 0. -1.
          3    1    5    5  503    0 -0.12839220923E+03  0.33675964627E+02 -0.77590658299E+03  0.78717828699E+03  0.00000000000E+00 0. -1.
         -4    1    5    5    0  503 -0.48853141333E+02  0.67671829199E+02 -0.33593936007E+03  0.34615222017E+03  0.00000000000E+00 0.  1.
         -3    1    6    6    0  502  0.10701915022E+02 -0.16099756722E+02 -0.33955366951E+01  0.19628113029E+02  0.00000000000E+00 0.  1.
<mgrwt>
<rscale>  0 0.15511460E+04</rscale>
<asrwt>0</asrwt>
<pdfrwt beam="1">  1        1 0.20652643E+00 0.15511460E+04</pdfrwt>
<pdfrwt beam="2">  1       -1 0.68935508E-01 0.15511460E+04</pdfrwt>
<totfact> 0.17305975E+01</totfact>
</mgrwt>
</event>
<event>
12    1  0.1442183E-007  0.1298028E+04  0.7818608E-02  0.9031131E-01
          2   -1    0    0  501    0  0.00000000000E+00  0.00000000000E+00  0.50336830737E+03  0.50336830737E+03  0.00000000000E+00 0.  1.
         -2   -1    0    0    0  501 -0.00000000000E+00 -0.00000000000E+00 -0.83680049744E+03  0.83680049744E+03  0.00000000000E+00 0. -1.
         23    2    1    2    0    0 -0.14147177973E+03  0.23403551694E+03 -0.27338259340E+03  0.39658118259E+03  0.88043763879E+02 0.  0.
        254    2    1    2    0    0  0.14147177973E+03 -0.23403551694E+03 -0.60049596673E+02  0.94358762223E+03  0.90109087173E+03 0.  0.
        -24    2    4    4    0    0 -0.40718817967E+02 -0.25356177597E+03 -0.43939341756E+03  0.51493845451E+03  0.78380100640E+02 0.  0.
         24    2    4    4    0    0  0.18219059769E+03  0.19526259025E+02  0.37934382088E+03  0.42864916772E+03  0.79143451161E+02 0.  0.
         11    1    3    3    0    0 -0.11810777300E+03  0.20682487400E+03 -0.27078077232E+03  0.36062196440E+03  0.00000000000E+00 0. -1.
        -11    1    3    3    0    0 -0.23364006728E+02  0.27210642942E+02 -0.26018210784E+01  0.35959218187E+02  0.00000000000E+00 0.  1.
          2    1    6    6  502    0  0.13444317476E+03  0.47782581389E+02  0.24889226677E+03  0.28688935634E+03  0.00000000000E+00 0. -1.
          3    1    5    5  503    0 -0.65013571590E+01 -0.18587053613E+03 -0.25554915993E+03  0.31606248906E+03  0.00000000000E+00 0. -1.
         -4    1    5    5    0  503 -0.34217460808E+02 -0.67691239832E+02 -0.18384425762E+03  0.19887596545E+03  0.00000000000E+00 0.  1.
         -1    1    6    6    0  502  0.47747422930E+02 -0.28256322364E+02  0.13045155412E+03  0.14175981138E+03  0.00000000000E+00 0.  1.
<mgrwt>
<rscale>  0 0.12980275E+04</rscale>
<asrwt>0</asrwt>
<pdfrwt beam="1">  1        2 0.77441279E-01 0.12980275E+04</pdfrwt>
<pdfrwt beam="2">  1       -2 0.12873854E+00 0.12980275E+04</pdfrwt>
<totfact> 0.26650101E+01</totfact>
</mgrwt>
</event>
<event>
12    1  0.1442183E-007  0.2895858E+04  0.7818608E-02  0.8274111E-01
         -2   -1    0    0    0  501 -0.00000000000E+00  0.00000000000E+00  0.21150888743E+04  0.21150888743E+04  0.00000000000E+00 0.  1.
          2   -1    0    0  501    0  0.00000000000E+00 -0.00000000000E+00 -0.99121064098E+03  0.99121064098E+03  0.00000000000E+00 0. -1.
         23    2    1    2    0    0 -0.60305836222E+01 -0.75672944161E+03 -0.63393448767E+03  0.99111406499E+03  0.88081436391E+02 0.  0.
        254    2    1    2    0    0  0.60305836222E+01  0.75672944161E+03  0.17578127210E+04  0.21151854503E+04  0.90079304581E+03 0.  0.
        -24    2    4    4    0    0  0.18003323316E+03  0.48667231796E+03  0.16994941205E+04  0.17787605836E+04  0.80293449004E+02 0.  0.
         24    2    4    4    0    0 -0.17400264954E+03  0.27005712365E+03  0.58318600523E+02  0.33642486676E+03  0.81073175146E+02 0.  0.
         13    1    3    3    0    0 -0.32893890462E+02 -0.11798059553E+03 -0.10684395273E+03  0.16253325564E+03  0.00000000000E+00 0.  1.
        -13    1    3    3    0    0  0.26863306839E+02 -0.63874884607E+03 -0.52709053493E+03  0.82858080935E+03  0.00000000000E+00 0. -1.
          2    1    6    6  502    0 -0.13357852307E+03  0.23255382597E+03  0.19312952853E+02  0.26888193310E+03  0.00000000000E+00 0. -1.
          3    1    5    5  503    0  0.11350981111E+03  0.39737119131E+03  0.13074897227E+04  0.13712467742E+04  0.00000000000E+00 0. -1.
         -4    1    5    5    0  503  0.66523422052E+02  0.89301126651E+02  0.39200439783E+03  0.40751380936E+03  0.00000000000E+00 0.  1.
         -3    1    6    6    0  502 -0.40424126463E+02  0.37503297676E+02  0.39005647670E+02  0.67542933658E+02  0.00000000000E+00 0.  1.
<mgrwt>
<rscale>  0 0.28958581E+04</rscale>
<asrwt>0</asrwt>
<pdfrwt beam="1">  1        2 0.15249395E+00 0.28958581E+04</pdfrwt>
<pdfrwt beam="2">  1       -2 0.32539829E+00 0.28958581E+04</pdfrwt>
<totfact> 0.48842822E-01</totfact>
</mgrwt>
</event>
<event>
12    1  0.1691417E-007  0.1311733E+04  0.7818608E-02  0.9020312E-01
         -2   -1    0    0    0  501 -0.00000000000E+00  0.00000000000E+00  0.42052787887E+03  0.42052787887E+03  0.00000000000E+00 0.  1.
          2   -1    0    0  501    0  0.00000000000E+00 -0.00000000000E+00 -0.10229065901E+04  0.10229065901E+04  0.00000000000E+00 0. -1.
         23    2    1    2    0    0  0.31328151020E+03 -0.52895654877E+02 -0.28118137128E+03  0.43399955299E+03  0.91375015721E+02 0.  0.
        254    2    1    2    0    0 -0.31328151020E+03  0.52895654877E+02 -0.32119733992E+03  0.10094349159E+04  0.90268923967E+03 0.  0.
        -24    2    4    4    0    0  0.20762874224E+03  0.26002047578E+03 -0.27971230937E+03  0.44163982912E+03  0.78015512679E+02 0.  0.
         24    2    4    4    0    0 -0.52091025244E+03 -0.20712482091E+03 -0.41485030543E+02  0.56779508683E+03  0.80137820858E+02 0.  0.
         13    1    3    3    0    0  0.33859852810E+02 -0.10027404760E+02 -0.47153353487E-01  0.35313463466E+02  0.00000000000E+00 0.  1.
        -13    1    3    3    0    0  0.27942165739E+03 -0.42868250117E+02 -0.28113421792E+03  0.39868608952E+03  0.00000000000E+00 0. -1.
          2    1    6    6  502    0 -0.51738163383E+03 -0.21082804926E+03 -0.46515211465E+02  0.56062098273E+03  0.00000000000E+00 0. -1.
          1    1    5    5  503    0  0.21340109729E+03  0.24488824845E+03 -0.27215679994E+03  0.42376834038E+03  0.00000000000E+00 0. -1.
         -2    1    5    5    0  503 -0.57723550518E+01  0.15132227339E+02 -0.75555094310E+01  0.17871488742E+02  0.00000000000E+00 0.  1.
         -1    1    6    6    0  502 -0.35286186129E+01  0.37032283505E+01  0.50301809217E+01  0.71741040999E+01  0.00000000000E+00 0.  1.
<mgrwt>
<rscale>  0 0.13117328E+04</rscale>
<asrwt>0</asrwt>
<pdfrwt beam="1">  1        2 0.15737024E+00 0.13117328E+04</pdfrwt>
<pdfrwt beam="2">  1       -2 0.64696597E-01 0.13117328E+04</pdfrwt>
<totfact> 0.52603817E+01</totfact>
</mgrwt>
</event>
<event>
12    1  0.1442183E-007  0.1663037E+04  0.7818608E-02  0.8782731E-01
         -2   -1    0    0    0  501 -0.00000000000E+00  0.00000000000E+00  0.64626770286E+03  0.64626770286E+03  0.00000000000E+00 0.  1.
          2   -1    0    0  501    0  0.00000000000E+00 -0.00000000000E+00 -0.10698711117E+04  0.10698711117E+04  0.00000000000E+00 0. -1.
         23    2    1    2    0    0 -0.30470743729E+03  0.39465202514E+03  0.17929607389E+03  0.53772639032E+03  0.91682852526E+02 0.  0.
        254    2    1    2    0    0  0.30470743729E+03 -0.39465202514E+03 -0.60289948271E+03  0.11784124242E+04  0.88123277968E+03 0.  0.
        -24    2    4    4    0    0  0.46868127693E+03 -0.55387099870E+03 -0.29703920038E+03  0.78834788172E+03  0.82612792607E+02 0.  0.
         24    2    4    4    0    0 -0.16397383964E+03  0.15921897356E+03 -0.30586028233E+03  0.39006454249E+03  0.79760474988E+02 0.  0.
         11    1    3    3    0    0 -0.30084842027E+03  0.39658648879E+03  0.18457829048E+03  0.53090466223E+03  0.00000000000E+00 0.  1.
        -11    1    3    3    0    0 -0.38590170273E+01 -0.19344636495E+01 -0.52822165869E+01  0.68217280875E+01  0.00000000000E+00 0. -1.
          2    1    6    6  502    0 -0.10997614347E+03  0.57798730177E+02 -0.18901709492E+03  0.22619219154E+03  0.00000000000E+00 0. -1.
          1    1    5    5  503    0  0.40048266036E+03 -0.47907321871E+03 -0.28509892335E+03  0.68642472729E+03  0.00000000000E+00 0. -1.
         -2    1    5    5    0  503  0.68198616574E+02 -0.74797779991E+02 -0.11940277023E+02  0.10192315443E+03  0.00000000000E+00 0.  1.
         -1    1    6    6    0  502 -0.53997696165E+02  0.10142024338E+03 -0.11684318741E+03  0.16387235094E+03  0.00000000000E+00 0.  1.
<mgrwt>
<rscale>  0 0.16630372E+04</rscale>
<asrwt>0</asrwt>
<pdfrwt beam="1">  1        2 0.16459555E+00 0.16630372E+04</pdfrwt>
<pdfrwt beam="2">  1       -2 0.99425802E-01 0.16630372E+04</pdfrwt>
<totfact> 0.18179173E+01</totfact>
</mgrwt>
</event>
<event>
12    1  0.1442183E-007  0.1808509E+04  0.7818608E-02  0.8701787E-01
          1   -1    0    0  501    0  0.00000000000E+00  0.00000000000E+00  0.26589738081E+04  0.26589738081E+04  0.00000000000E+00 0. -1.
         -1   -1    0    0    0  501 -0.00000000000E+00 -0.00000000000E+00 -0.30751576621E+03  0.30751576621E+03  0.00000000000E+00 0.  1.
         23    2    1    2    0    0  0.18424312321E+03  0.12606150691E+03  0.18731112899E+04  0.18885424932E+04  0.90608013628E+02 0.  0.
        254    2    1    2    0    0 -0.18424312321E+03 -0.12606150691E+03  0.47834675200E+03  0.10779470812E+04  0.93984959576E+03 0.  0.
        -24    2    4    4    0    0 -0.37857368139E+03  0.81480414147E+02  0.63035818176E+03  0.74403686577E+03  0.79261151809E+02 0.  0.
         24    2    4    4    0    0  0.19433055817E+03 -0.20754192105E+03 -0.15201142976E+03  0.33391021539E+03  0.86893856682E+02 0.  0.
         13    1    3    3    0    0  0.15605859767E+03  0.66645136396E+02  0.11508317972E+04  0.11632754126E+04  0.00000000000E+00 0. -1.
        -13    1    3    3    0    0  0.28184525543E+02  0.59416370509E+02  0.72227949277E+03  0.72526708062E+03  0.00000000000E+00 0.  1.
          2    1    6    6  502    0  0.98483651138E+02 -0.71222970644E+02 -0.10539197642E+03  0.16087016436E+03  0.00000000000E+00 0. -1.
          1    1    5    5  503    0  0.26934152773E+01  0.55567672016E+01  0.14281625499E+02  0.15559465752E+02  0.00000000000E+00 0. -1.
         -2    1    5    5    0  503 -0.38126709666E+03  0.75923646945E+02  0.61607655626E+03  0.72847740001E+03  0.00000000000E+00 0.  1.
         -1    1    6    6    0  502  0.95846907033E+02 -0.13631895041E+03 -0.46619453338E+02  0.17304005102E+03  0.00000000000E+00 0.  1.
<mgrwt>
<rscale>  0 0.18085092E+04</rscale>
<asrwt>0</asrwt>
<pdfrwt beam="1">  1        1 0.40907288E+00 0.18085092E+04</pdfrwt>
<pdfrwt beam="2">  1       -1 0.47310120E-01 0.18085092E+04</pdfrwt>
<totfact> 0.44161703E+00</totfact>
</mgrwt>
</event>
<event>
12    1  0.1442183E-007  0.1544923E+04  0.7818608E-02  0.8855117E-01
         -2   -1    0    0    0  501 -0.00000000000E+00  0.00000000000E+00  0.60289581475E+03  0.60289581475E+03  0.00000000000E+00 0.  1.
          2   -1    0    0  501    0  0.00000000000E+00 -0.00000000000E+00 -0.98971803054E+03  0.98971803054E+03  0.00000000000E+00 0. -1.
         23    2    1    2    0    0 -0.27145858934E+03  0.29437391074E+03 -0.43682060095E+03  0.59978825642E+03  0.92671193313E+02 0.  0.
        254    2    1    2    0    0  0.27145858934E+03 -0.29437391074E+03  0.49998385160E+02  0.99282558887E+03  0.90711468202E+03 0.  0.
        -24    2    4    4    0    0 -0.28032690403E+03  0.52432647738E+02 -0.10975659904E+03  0.31713455826E+03  0.84826065189E+02 0.  0.
         24    2    4    4    0    0  0.55178549338E+03 -0.34680655848E+03  0.15975498420E+03  0.67569103061E+03  0.79339108670E+02 0.  0.
         13    1    3    3    0    0 -0.78486296579E+02  0.37898306010E+02 -0.65824484600E+02  0.10922107453E+03  0.00000000000E+00 0.  1.
        -13    1    3    3    0    0 -0.19297229276E+03  0.25647560473E+03 -0.37099611635E+03  0.49056718189E+03  0.00000000000E+00 0. -1.
          4    1    6    6  502    0  0.50895316690E+03 -0.33428224740E+03  0.13174981611E+03  0.62300558671E+03  0.00000000000E+00 0. -1.
          3    1    5    5  503    0 -0.25909461054E+03  0.43089275182E+02 -0.12342756023E+03  0.29020865850E+03  0.00000000000E+00 0. -1.
         -4    1    5    5    0  503 -0.21232293494E+02  0.93433725566E+01  0.13670961190E+02  0.26925899755E+02  0.00000000000E+00 0.  1.
         -3    1    6    6    0  502  0.42832326474E+02 -0.12524311079E+02  0.28005168088E+02  0.52685443899E+02  0.00000000000E+00 0.  1.
<mgrwt>
<rscale>  0 0.15449231E+04</rscale>
<asrwt>0</asrwt>
<pdfrwt beam="1">  1        2 0.15226431E+00 0.15449231E+04</pdfrwt>
<pdfrwt beam="2">  1       -2 0.92753202E-01 0.15449231E+04</pdfrwt>
<totfact> 0.24277324E+01</totfact>
</mgrwt>
</event>
<event>
12    1  0.1442183E-007  0.1446670E+04  0.7818608E-02  0.8920713E-01
          2   -1    0    0  501    0  0.00000000000E+00  0.00000000000E+00  0.64625822846E+03  0.64625822846E+03  0.00000000000E+00 0. -1.
         -2   -1    0    0    0  501 -0.00000000000E+00 -0.00000000000E+00 -0.80960411094E+03  0.80960411094E+03  0.00000000000E+00 0.  1.
         23    2    1    2    0    0 -0.25628683776E+03 -0.33778543641E+03 -0.13845339947E+03  0.45500433277E+03  0.89875774002E+02 0.  0.
        254    2    1    2    0    0  0.25628683776E+03  0.33778543641E+03 -0.24892483009E+02  0.10008580066E+04  0.90626440373E+03 0.  0.
        -24    2    4    4    0    0 -0.23186034335E+03  0.26710430399E+03 -0.26239981147E+03  0.44750096675E+03  0.79369554338E+02 0.  0.
         24    2    4    4    0    0  0.48814718111E+03  0.70681132421E+02  0.23750732846E+03  0.55335703989E+03  0.80689464090E+02 0.  0.
         11    1    3    3    0    0 -0.15099397181E+03 -0.17123103523E+03 -0.30499897986E+02  0.23032475057E+03  0.00000000000E+00 0. -1.
        -11    1    3    3    0    0 -0.10529286595E+03 -0.16655440118E+03 -0.10795350149E+03  0.22467958219E+03  0.00000000000E+00 0.  1.
          2    1    6    6  502    0  0.21624690730E+03  0.11132989079E+02  0.14262605249E+03  0.25928528537E+03  0.00000000000E+00 0. -1.
          3    1    5    5  503    0 -0.23271050874E+03  0.27141608575E+03 -0.25594312666E+03  0.43969052362E+03  0.00000000000E+00 0. -1.
         -4    1    5    5    0  503  0.85016538716E+00 -0.43117817595E+01 -0.64566848066E+01  0.78104431257E+01  0.00000000000E+00 0.  1.
         -1    1    6    6    0  502  0.27190027381E+03  0.59548143342E+02  0.94881275972E+02  0.29407175452E+03  0.00000000000E+00 0.  1.
<mgrwt>
<rscale>  0 0.14466697E+04</rscale>
<asrwt>0</asrwt>
<pdfrwt beam="1">  1        2 0.99424343E-01 0.14466697E+04</pdfrwt>
<pdfrwt beam="2">  1       -2 0.12455448E+00 0.14466697E+04</pdfrwt>
<totfact> 0.21246503E+01</totfact>
</mgrwt>
</event>
<event>
12    1  0.1442183E-007  0.1973849E+04  0.7818608E-02  0.8618945E-01
         -2   -1    0    0    0  501 -0.00000000000E+00  0.00000000000E+00  0.31506123930E+03  0.31506123930E+03  0.00000000000E+00 0.  1.
          2   -1    0    0  501    0  0.00000000000E+00 -0.00000000000E+00 -0.30915273831E+04  0.30915273831E+04  0.00000000000E+00 0. -1.
         23    2    1    2    0    0  0.31168614512E+03 -0.51413901396E+03 -0.19559201921E+04  0.20474153899E+04  0.69273389675E+02 0.  0.
        254    2    1    2    0    0 -0.31168614512E+03  0.51413901396E+03 -0.82054595174E+03  0.13591732325E+04  0.90142611353E+03 0.  0.
        -24    2    4    4    0    0  0.11787881946E+03  0.60494508256E+03 -0.36229320292E+03  0.71955669323E+03  0.81556734236E+02 0.  0.
         24    2    4    4    0    0 -0.42956496459E+03 -0.90806068595E+02 -0.45825274882E+03  0.63961653922E+03  0.79636264082E+02 0.  0.
         11    1    3    3    0    0  0.26660013045E+02 -0.29143347275E+02 -0.84559304220E+02  0.93329346489E+02  0.00000000000E+00 0.  1.
        -11    1    3    3    0    0  0.28502613208E+03 -0.48499566669E+03 -0.18713608878E+04  0.19540860435E+04  0.00000000000E+00 0. -1.
          2    1    6    6  502    0 -0.33487106769E+03 -0.10390372608E+03 -0.36142225219E+03  0.50354807184E+03  0.00000000000E+00 0. -1.
          3    1    5    5  503    0  0.66844738471E+02  0.30101311505E+03 -0.22746370660E+03  0.38316687267E+03  0.00000000000E+00 0. -1.
         -4    1    5    5    0  503  0.51034080990E+02  0.30393196751E+03 -0.13482949632E+03  0.33638982055E+03  0.00000000000E+00 0.  1.
         -1    1    6    6    0  502 -0.94693896898E+02  0.13097657485E+02 -0.96830496620E+02  0.13606846739E+03  0.00000000000E+00 0.  1.
<mgrwt>
<rscale>  0 0.19738495E+04</rscale>
<asrwt>0</asrwt>
<pdfrwt beam="1">  1        2 0.47561961E+00 0.19738495E+04</pdfrwt>
<pdfrwt beam="2">  1       -2 0.48470959E-01 0.19738495E+04</pdfrwt>
<totfact> 0.57366840E+00</totfact>
</mgrwt>
</event>
<event>
12    1  0.1442183E-007  0.1476595E+04  0.7818608E-02  0.8900168E-01
         -2   -1    0    0    0  501 -0.00000000000E+00  0.00000000000E+00  0.40451395646E+03  0.40451395646E+03  0.00000000000E+00 0.  1.
          2   -1    0    0  501    0  0.00000000000E+00 -0.00000000000E+00 -0.13475020552E+04  0.13475020552E+04  0.00000000000E+00 0. -1.
         23    2    1    2    0    0 -0.16734314532E+03 -0.75132664635E+02 -0.78959488192E+03  0.81570616759E+03  0.90927601467E+02 0.  0.
        254    2    1    2    0    0  0.16734314532E+03  0.75132664635E+02 -0.15339321686E+03  0.93630984411E+03  0.90526128803E+03 0.  0.
        -24    2    4    4    0    0 -0.12131043291E+03 -0.36217721726E+02 -0.46644865132E+03  0.48997374468E+03  0.80448627474E+02 0.  0.
         24    2    4    4    0    0  0.28865357823E+03  0.11135038636E+03  0.31305543446E+03  0.44633609942E+03  0.74110807822E+02 0.  0.
         11    1    3    3    0    0 -0.28360487322E+01 -0.26038813956E+02 -0.19735785455E+03  0.19908838680E+03  0.00000000000E+00 0.  1.
        -11    1    3    3    0    0 -0.16450709658E+03 -0.49093850678E+02 -0.59223702737E+03  0.61661778079E+03  0.00000000000E+00 0. -1.
          4    1    6    6  502    0  0.14750959331E+01 -0.54295115759E+01  0.16057944198E+02  0.17015083774E+02  0.00000000000E+00 0. -1.
          3    1    5    5  503    0 -0.22580189541E+02 -0.41515475005E+02 -0.10313897337E+03  0.11345063883E+03  0.00000000000E+00 0. -1.
         -4    1    5    5    0  503 -0.98730243371E+02  0.52977532789E+01 -0.36330967795E+03  0.37652310585E+03  0.00000000000E+00 0.  1.
         -3    1    6    6    0  502  0.28717848230E+03  0.11677989794E+03  0.29699749026E+03  0.42932101565E+03  0.00000000000E+00 0.  1.
<mgrwt>
<rscale>  0 0.14765953E+04</rscale>
<asrwt>0</asrwt>
<pdfrwt beam="1">  1        2 0.20730801E+00 0.14765953E+04</pdfrwt>
<pdfrwt beam="2">  1       -2 0.62232917E-01 0.14765953E+04</pdfrwt>
<totfact> 0.35980510E+01</totfact>
</mgrwt>
</event>
<event>
12    1  0.1442183E-007  0.1809275E+04  0.7818608E-02  0.8701383E-01
          3   -1    0    0  501    0  0.00000000000E+00  0.00000000000E+00  0.78336963817E+03  0.78336963817E+03  0.00000000000E+00 0. -1.
         -3   -1    0    0    0  501 -0.00000000000E+00 -0.00000000000E+00 -0.10446775259E+04  0.10446775259E+04  0.00000000000E+00 0.  1.
         23    2    1    2    0    0  0.23049414414E+03 -0.61797742377E+03  0.11962119351E+02  0.66589377481E+03  0.90817290598E+02 0.  0.
        254    2    1    2    0    0 -0.23049414414E+03  0.61797742377E+03 -0.27327000708E+03  0.11621533893E+04  0.91700619225E+03 0.  0.
        -24    2    4    4    0    0  0.11093938563E+03  0.12319114688E+02 -0.42469008527E+03  0.44609071623E+03  0.78587217216E+02 0.  0.
         24    2    4    4    0    0 -0.34143352977E+03  0.60565830908E+03  0.15142007819E+03  0.71606267303E+03  0.80117844547E+02 0.  0.
         13    1    3    3    0    0  0.23239374827E+03 -0.55184387133E+03  0.70006828996E+00  0.59878126445E+03  0.00000000000E+00 0. -1.
        -13    1    3    3    0    0 -0.18996041296E+01 -0.66133552435E+02  0.11262051061E+02  0.67112510366E+02  0.00000000000E+00 0.  1.
          4    1    6    6  502    0 -0.17114876406E+00 -0.24992074584E+01  0.62835706574E+00  0.25826657588E+01  0.00000000000E+00 0. -1.
          3    1    5    5  503    0 -0.14339884366E+00  0.70758290309E+01 -0.14400039179E+03  0.14417420281E+03  0.00000000000E+00 0. -1.
         -4    1    5    5    0  503  0.11108278448E+03  0.52432856570E+01 -0.28068969348E+03  0.30191651342E+03  0.00000000000E+00 0.  1.
         -3    1    6    6    0  502 -0.34126238101E+03  0.60815751654E+03  0.15079172113E+03  0.71348000727E+03  0.00000000000E+00 0.  1.
<mgrwt>
<rscale>  0 0.18092746E+04</rscale>
<asrwt>0</asrwt>
<pdfrwt beam="1">  1        3 0.12051841E+00 0.18092746E+04</pdfrwt>
<pdfrwt beam="2">  1       -3 0.16071962E+00 0.18092746E+04</pdfrwt>
<totfact> 0.37206043E-01</totfact>
</mgrwt>
</event>
<event>
12    1  0.1442183E-007  0.2474578E+04  0.7818608E-02  0.8412099E-01
          1   -1    0    0  501    0  0.00000000000E+00  0.00000000000E+00  0.83583170020E+03  0.83583170020E+03  0.00000000000E+00 0. -1.
         -1   -1    0    0    0  501 -0.00000000000E+00 -0.00000000000E+00 -0.18315697937E+04  0.18315697937E+04  0.00000000000E+00 0.  1.
         23    2    1    2    0    0 -0.77072259535E+02 -0.91516512839E+03  0.10124073327E+03  0.92848557763E+03  0.91479158200E+02 0.  0.
        254    2    1    2    0    0  0.77072259535E+02  0.91516512839E+03 -0.10969788268E+04  0.17389159163E+04  0.98843243173E+03 0.  0.
        -24    2    4    4    0    0  0.81396726857E+02  0.50126002895E+03  0.50177266094E+02  0.51648409382E+03  0.79693270530E+02 0.  0.
         24    2    4    4    0    0 -0.43244673221E+01  0.41390509944E+03 -0.11471560929E+04  0.12224318225E+04  0.83882815836E+02 0.  0.
         11    1    3    3    0    0 -0.95610910639E+02 -0.83107531428E+03  0.98463498457E+02  0.84233169521E+03  0.00000000000E+00 0. -1.
        -11    1    3    3    0    0  0.18538651104E+02 -0.84089814116E+02  0.27772348147E+01  0.86153882420E+02  0.00000000000E+00 0.  1.
          4    1    6    6  502    0  0.16596855670E+02  0.29804888411E+03 -0.90910018707E+03  0.95685513170E+03  0.00000000000E+00 0. -1.
          1    1    5    5  503    0 -0.23786947323E+01  0.71958749397E+01 -0.91351662346E+01  0.11869712166E+02  0.00000000000E+00 0. -1.
         -2    1    5    5    0  503  0.83775421589E+02  0.49406415401E+03  0.59312432329E+02  0.50461438165E+03  0.00000000000E+00 0.  1.
         -3    1    6    6    0  502 -0.20921322992E+02  0.11585621534E+03 -0.23805590581E+03  0.26557669077E+03  0.00000000000E+00 0.  1.
<mgrwt>
<rscale>  0 0.24745780E+04</rscale>
<asrwt>0</asrwt>
<pdfrwt beam="1">  1        1 0.12858949E+00 0.24745780E+04</pdfrwt>
<pdfrwt beam="2">  1       -1 0.28177996E+00 0.24745780E+04</pdfrwt>
<totfact> 0.79459252E-01</totfact>
</mgrwt>
</event>
<event>
12    1  0.1442183E-007  0.1923753E+04  0.7818608E-02  0.8643123E-01
         -2   -1    0    0    0  501 -0.00000000000E+00  0.00000000000E+00  0.21420080507E+03  0.21420080507E+03  0.00000000000E+00 0.  1.
          2   -1    0    0  501    0  0.00000000000E+00 -0.00000000000E+00 -0.43193397085E+04  0.43193397085E+04  0.00000000000E+00 0. -1.
         23    2    1    2    0    0  0.69307088143E+03  0.89638810002E+02 -0.98426045768E+03  0.12103728556E+04  0.88608341344E+02 0.  0.
        254    2    1    2    0    0 -0.69307088143E+03 -0.89638810002E+02 -0.31208784457E+04  0.33231676579E+04  0.90287244207E+03 0.  0.
        -24    2    4    4    0    0 -0.67037458450E+03  0.27737832823E+03 -0.24163028451E+04  0.25243126276E+04  0.85404814320E+02 0.  0.
         24    2    4    4    0    0 -0.22696296930E+02 -0.36701713824E+03 -0.70457560067E+03  0.79885503031E+03  0.80782923592E+02 0.  0.
         11    1    3    3    0    0  0.68747027784E+03  0.78504879657E+02 -0.96515205843E+03  0.11875592174E+04  0.00000000000E+00 0.  1.
        -11    1    3    3    0    0  0.56006035872E+01  0.11133930345E+02 -0.19108399250E+02  0.22813638188E+02  0.00000000000E+00 0. -1.
          4    1    6    6  502    0  0.12726483933E+02 -0.24783485139E+03 -0.41215059160E+03  0.48109477976E+03  0.00000000000E+00 0. -1.
          1    1    5    5  503    0 -0.66858277711E+03  0.27583454009E+03 -0.23688278660E+04  0.24767787713E+04  0.00000000000E+00 0. -1.
         -2    1    5    5    0  503 -0.17918073875E+01  0.15437881401E+01 -0.47474979074E+02  0.47533856288E+02  0.00000000000E+00 0.  1.
         -3    1    6    6    0  502 -0.35422780863E+02 -0.11918228685E+03 -0.29242500906E+03  0.31776025055E+03  0.00000000000E+00 0.  1.
<mgrwt>
<rscale>  0 0.19237526E+04</rscale>
<asrwt>0</asrwt>
<pdfrwt beam="1">  1        2 0.66451381E+00 0.19237526E+04</pdfrwt>
<pdfrwt beam="2">  1       -2 0.32953970E-01 0.19237526E+04</pdfrwt>
<totfact> 0.14871942E+00</totfact>
</mgrwt>
</event>
<event>
12    1  0.1442183E-007  0.1221999E+04  0.7818608E-02  0.9093816E-01
         -1   -1    0    0    0  501 -0.00000000000E+00  0.00000000000E+00  0.38762875040E+03  0.38762875040E+03  0.00000000000E+00 0.  1.
          1   -1    0    0  501    0  0.00000000000E+00 -0.00000000000E+00 -0.96308804230E+03  0.96308804230E+03  0.00000000000E+00 0. -1.
         23    2    1    2    0    0 -0.11160171487E+03  0.24098154723E+03 -0.85711981198E+02  0.29103374188E+03  0.82625942196E+02 0.  0.
        254    2    1    2    0    0  0.11160171487E+03 -0.24098154723E+03 -0.48974731070E+03  0.10596830508E+04  0.90141482737E+03 0.  0.
        -24    2    4    4    0    0 -0.18019924058E+03 -0.26733870758E+03 -0.63963394745E+03  0.72074554211E+03  0.80004992821E+02 0.  0.
         24    2    4    4    0    0  0.29180095545E+03  0.26357160348E+02  0.14988663675E+03  0.33893750871E+03  0.81056359612E+02 0.  0.
         13    1    3    3    0    0 -0.12287490130E+03  0.23502094714E+03 -0.79596185817E+02  0.27689102507E+03  0.00000000000E+00 0. -1.
        -13    1    3    3    0    0  0.11273186431E+02  0.59606000896E+01 -0.61157953817E+01  0.14142716814E+02  0.00000000000E+00 0.  1.
          4    1    6    6  502    0  0.17694589409E+03 -0.23012536321E+02  0.78129685452E+02  0.19479136021E+03  0.00000000000E+00 0. -1.
          1    1    5    5  503    0 -0.15781218257E+03 -0.16864146654E+03 -0.44222897347E+03  0.49890990587E+03  0.00000000000E+00 0. -1.
         -2    1    5    5    0  503 -0.22387058013E+02 -0.98697241043E+02 -0.19740497398E+03  0.22183563624E+03  0.00000000000E+00 0.  1.
         -3    1    6    6    0  502  0.11485506136E+03  0.49369696669E+02  0.71756951294E+02  0.14414614850E+03  0.00000000000E+00 0.  1.
<mgrwt>
<rscale>  0 0.12219994E+04</rscale>
<asrwt>0</asrwt>
<pdfrwt beam="1">  1        1 0.14816739E+00 0.12219994E+04</pdfrwt>
<pdfrwt beam="2">  1       -1 0.59635193E-01 0.12219994E+04</pdfrwt>
<totfact> 0.45582110E+01</totfact>
</mgrwt>
</event>
<event>
12    1  0.1442183E-007  0.1180233E+04  0.7818608E-02  0.9130336E-01
         -2   -1    0    0    0  501 -0.00000000000E+00  0.00000000000E+00  0.25685728423E+03  0.25685728423E+03  0.00000000000E+00 0.  1.
          2   -1    0    0  501    0  0.00000000000E+00 -0.00000000000E+00 -0.13557630586E+04  0.13557630586E+04  0.00000000000E+00 0. -1.
         23    2    1    2    0    0  0.19898613202E+03  0.52118341551E+02 -0.26560540428E+03  0.34808013284E+03  0.91113916807E+02 0.  0.
        254    2    1    2    0    0 -0.19898613202E+03 -0.52118341551E+02 -0.83330037004E+03  0.12645402099E+04  0.92863374567E+03 0.  0.
        -24    2    4    4    0    0 -0.40763637600E+03  0.13348359460E+03 -0.86861012503E+03  0.97202303581E+03  0.79749280616E+02 0.  0.
         24    2    4    4    0    0  0.20865024399E+03 -0.18560193615E+03  0.35309754997E+02  0.29251717414E+03  0.79602232065E+02 0.  0.
         13    1    3    3    0    0  0.19417184913E+03  0.44632191070E+02 -0.27196966388E+03  0.33713830626E+03  0.00000000000E+00 0. -1.
        -13    1    3    3    0    0  0.48142828866E+01  0.74861504801E+01  0.63642596020E+01  0.10941826585E+02  0.00000000000E+00 0.  1.
          4    1    6    6  502    0  0.20454867414E+03 -0.19204810678E+03  0.40207316880E+02  0.28344181721E+03  0.00000000000E+00 0. -1.
          3    1    5    5  503    0 -0.39776915878E+03  0.13787450221E+03 -0.81470136990E+03  0.91704307649E+03  0.00000000000E+00 0. -1.
         -2    1    5    5    0  503 -0.98672172279E+01 -0.43909076179E+01 -0.53908755137E+02  0.54979959312E+02  0.00000000000E+00 0.  1.
         -3    1    6    6    0  502  0.41015698425E+01  0.64461706319E+01 -0.48975618826E+01  0.90753569286E+01  0.00000000000E+00 0.  1.
<mgrwt>
<rscale>  0 0.11802332E+04</rscale>
<asrwt>0</asrwt>
<pdfrwt beam="1">  1        2 0.20857893E+00 0.11802332E+04</pdfrwt>
<pdfrwt beam="2">  1       -2 0.39516505E-01 0.11802332E+04</pdfrwt>
<totfact> 0.91758134E+01</totfact>
</mgrwt>
</event>
<event>
12    1  0.1442183E-007  0.1751249E+04  0.7818608E-02  0.8732663E-01
         -1   -1    0    0    0  501 -0.00000000000E+00  0.00000000000E+00  0.68150147670E+03  0.68150147670E+03  0.00000000000E+00 0.  1.
          1   -1    0    0  501    0  0.00000000000E+00 -0.00000000000E+00 -0.11250427736E+04  0.11250427736E+04  0.00000000000E+00 0. -1.
         23    2    1    2    0    0  0.14717220756E+03 -0.58107374543E+03 -0.35787879482E+03  0.70383746335E+03  0.89462767281E+02 0.  0.
        254    2    1    2    0    0 -0.14717220756E+03  0.58107374543E+03 -0.85662502102E+02  0.11027067870E+04  0.92158441689E+03 0.  0.
        -24    2    4    4    0    0  0.80509565921E+02  0.64573802970E+03  0.23407869913E+03  0.69691436778E+03  0.86240393226E+02 0.  0.
         24    2    4    4    0    0 -0.22768177348E+03 -0.64664284274E+02 -0.31974120123E+03  0.40579241919E+03  0.80078661769E+02 0.  0.
         13    1    3    3    0    0  0.89849158297E+02 -0.28606363402E+03 -0.22685380053E+03  0.37598925619E+03  0.00000000000E+00 0.  1.
        -13    1    3    3    0    0  0.57323049260E+02 -0.29501011140E+03 -0.13102499429E+03  0.32784820716E+03  0.00000000000E+00 0. -1.
          2    1    6    6  502    0 -0.89833913240E+02 -0.58333197910E+02 -0.17960631109E+03  0.20912035035E+03  0.00000000000E+00 0. -1.
          1    1    5    5  503    0  0.59410935633E+02  0.52732433369E+03  0.15450336014E+03  0.55269512434E+03  0.00000000000E+00 0. -1.
         -2    1    5    5    0  503  0.21098630288E+02  0.11841369601E+03  0.79575338986E+02  0.14421924343E+03  0.00000000000E+00 0.  1.
         -1    1    6    6    0  502 -0.13784786024E+03 -0.63310863633E+01 -0.14013489014E+03  0.19667206884E+03  0.00000000000E+00 0.  1.
<mgrwt>
<rscale>  0 0.17512491E+04</rscale>
<asrwt>0</asrwt>
<pdfrwt beam="1">  1        1 0.17308350E+00 0.17512491E+04</pdfrwt>
<pdfrwt beam="2">  1       -1 0.10484638E+00 0.17512491E+04</pdfrwt>
<totfact> 0.98291456E+00</totfact>
</mgrwt>
</event>
<event>
12    1  0.1442183E-007  0.2000290E+04  0.7818608E-02  0.8606485E-01
          2   -1    0    0  501    0  0.00000000000E+00  0.00000000000E+00  0.85982408061E+03  0.85982408061E+03  0.00000000000E+00 0. -1.
         -2   -1    0    0    0  501 -0.00000000000E+00 -0.00000000000E+00 -0.11633654517E+04  0.11633654517E+04  0.00000000000E+00 0.  1.
         23    2    1    2    0    0 -0.57846425437E+03  0.26433594980E+03  0.35425289205E+03  0.73499719473E+03  0.10115026838E+03 0.  0.
        254    2    1    2    0    0  0.57846425437E+03 -0.26433594980E+03 -0.65779426317E+03  0.12881923376E+04  0.90678101990E+03 0.  0.
        -24    2    4    4    0    0  0.54366374781E+03 -0.56647348054E+03 -0.42011910909E+03  0.89410922981E+03  0.80428690024E+02 0.  0.
         24    2    4    4    0    0  0.34800506558E+02  0.30213753074E+03 -0.23767515408E+03  0.39408310779E+03  0.79459764879E+02 0.  0.
         13    1    3    3    0    0 -0.21143266482E+03  0.75973830878E+02  0.75123888890E+02  0.23689532164E+03  0.00000000000E+00 0. -1.
        -13    1    3    3    0    0 -0.36703158955E+03  0.18836211892E+03  0.27912900316E+03  0.49810187309E+03  0.00000000000E+00 0.  1.
          2    1    6    6  502    0 -0.12459724980E+02  0.64902233123E+01 -0.17496975878E+02  0.22439071062E+02  0.00000000000E+00 0. -1.
          3    1    5    5  503    0  0.28732618336E+03 -0.34642158160E+03 -0.21396520320E+03  0.49834260908E+03  0.00000000000E+00 0. -1.
         -4    1    5    5    0  503  0.25633756445E+03 -0.22005189894E+03 -0.20615390589E+03  0.39576662074E+03  0.00000000000E+00 0.  1.
         -3    1    6    6    0  502  0.47260231538E+02  0.29564730743E+03 -0.22017817821E+03  0.37164403672E+03  0.00000000000E+00 0.  1.
<mgrwt>
<rscale>  0 0.20002896E+04</rscale>
<asrwt>0</asrwt>
<pdfrwt beam="1">  1        2 0.13228063E+00 0.20002896E+04</pdfrwt>
<pdfrwt beam="2">  1       -2 0.17897930E+00 0.20002896E+04</pdfrwt>
<totfact> 0.53472708E+00</totfact>
</mgrwt>
</event>
<event>
12    1  0.1893934E-007  0.2700991E+04  0.7818608E-02  0.8334683E-01
         -2   -1    0    0    0  501 -0.00000000000E+00  0.00000000000E+00  0.76612543944E+03  0.76612543944E+03  0.00000000000E+00 0.  1.
          2   -1    0    0  501    0  0.00000000000E+00 -0.00000000000E+00 -0.23806005895E+04  0.23806005895E+04  0.00000000000E+00 0. -1.
         23    2    1    2    0    0 -0.40325913624E+03  0.10597977387E+04 -0.26517061959E+03  0.11682444941E+04  0.93223185835E+02 0.  0.
        254    2    1    2    0    0  0.40325913624E+03 -0.10597977387E+04 -0.13493045305E+04  0.19784815349E+04  0.89887556980E+03 0.  0.
        -24    2    4    4    0    0  0.22838108389E+03 -0.48078890738E+03 -0.46961949391E+02  0.54040418018E+03  0.80717781971E+02 0.  0.
         24    2    4    4    0    0  0.17487805236E+03 -0.57900883137E+03 -0.13023425811E+04  0.14380773548E+04  0.78337217544E+02 0.  0.
         11    1    3    3    0    0 -0.35871389608E+03  0.93536574625E+03 -0.20284401230E+03  0.10221205564E+04  0.00000000000E+00 0.  1.
        -11    1    3    3    0    0 -0.44545240165E+02  0.12443199250E+03 -0.62326607291E+02  0.14612393765E+03  0.00000000000E+00 0. -1.
          4    1    6    6  502    0  0.53457345798E+02 -0.13777545119E+03 -0.24788234725E+03  0.28859213581E+03  0.00000000000E+00 0. -1.
          1    1    5    5  503    0  0.37561338375E+02 -0.64133499285E+02 -0.34555171587E+02  0.81963526977E+02  0.00000000000E+00 0. -1.
         -2    1    5    5    0  503  0.19081974551E+03 -0.41665540809E+03 -0.12406777804E+02  0.45844065320E+03  0.00000000000E+00 0.  1.
         -3    1    6    6    0  502  0.12142070656E+03 -0.44123338018E+03 -0.10544602339E+04  0.11494852189E+04  0.00000000000E+00 0.  1.
<mgrwt>
<rscale>  0 0.27009914E+04</rscale>
<asrwt>0</asrwt>
<pdfrwt beam="1">  1        2 0.36624623E+00 0.27009914E+04</pdfrwt>
<pdfrwt beam="2">  1       -2 0.11786546E+00 0.27009914E+04</pdfrwt>
<totfact> 0.19858539E+00</totfact>
</mgrwt>
</event>
<event>
12    1  0.1442183E-007  0.1933711E+04  0.7818608E-02  0.8638256E-01
          1   -1    0    0  501    0  0.00000000000E+00  0.00000000000E+00  0.26428029964E+04  0.26428029964E+04  0.00000000000E+00 0. -1.
         -1   -1    0    0    0  501 -0.00000000000E+00 -0.00000000000E+00 -0.35371898739E+03  0.35371898739E+03  0.00000000000E+00 0.  1.
         23    2    1    2    0    0  0.30678423401E+03 -0.11395279339E+03 -0.15622850327E+03  0.37349859549E+03  0.89398267545E+02 0.  0.
        254    2    1    2    0    0 -0.30678423401E+03  0.11395279339E+03  0.24453125123E+04  0.26230233883E+04  0.89084039396E+03 0.  0.
        -24    2    4    4    0    0 -0.51979885601E+03 -0.19000454468E+03  0.12544748889E+04  0.13731751596E+04  0.74901231706E+02 0.  0.
         24    2    4    4    0    0  0.21301462200E+03  0.30395733807E+03  0.11908376234E+04  0.12498482287E+04  0.79126840147E+02 0.  0.
         13    1    3    3    0    0  0.16815901425E+03 -0.98544878239E+02 -0.59589660840E+02  0.20381235188E+03  0.00000000000E+00 0. -1.
        -13    1    3    3    0    0  0.13862521976E+03 -0.15407915148E+02 -0.96638842434E+02  0.16968624361E+03  0.00000000000E+00 0.  1.
          4    1    6    6  502    0  0.13090519808E+02  0.50726023713E+02  0.10919746531E+03  0.12111390350E+03  0.00000000000E+00 0. -1.
          1    1    5    5  503    0 -0.11258312307E+03 -0.68996954490E+02  0.25482064612E+03  0.28700017599E+03  0.00000000000E+00 0. -1.
         -2    1    5    5    0  503 -0.40721573294E+03 -0.12100759019E+03  0.99965424277E+03  0.10861749837E+04  0.00000000000E+00 0.  1.
         -3    1    6    6    0  502  0.19992410219E+03  0.25323131435E+03  0.10816401581E+04  0.11287343252E+04  0.00000000000E+00 0.  1.
<mgrwt>
<rscale>  0 0.19337110E+04</rscale>
<asrwt>0</asrwt>
<pdfrwt beam="1">  1        1 0.40658506E+00 0.19337110E+04</pdfrwt>
<pdfrwt beam="2">  1       -1 0.54418308E-01 0.19337110E+04</pdfrwt>
<totfact> 0.34298422E+00</totfact>
</mgrwt>
</event>
<event>
12    1  0.1442183E-007  0.2194935E+04  0.7818608E-02  0.8520539E-01
          2   -1    0    0  501    0  0.00000000000E+00  0.00000000000E+00  0.35698094788E+04  0.35698094788E+04  0.00000000000E+00 0. -1.
         -2   -1    0    0    0  501 -0.00000000000E+00 -0.00000000000E+00 -0.33739472301E+03  0.33739472301E+03  0.00000000000E+00 0.  1.
         23    2    1    2    0    0  0.44917508195E+03  0.28924427311E+03  0.26539547952E+04  0.27087007856E+04  0.90351463279E+02 0.  0.
        254    2    1    2    0    0 -0.44917508195E+03 -0.28924427311E+03  0.57845996056E+03  0.11985034162E+04  0.90353417699E+03 0.  0.
        -24    2    4    4    0    0 -0.29427275998E+03 -0.17144265289E+03  0.81156306199E+03  0.88395272736E+03  0.82150959297E+02 0.  0.
         24    2    4    4    0    0 -0.15490232196E+03 -0.11780162022E+03 -0.23310310143E+03  0.31455068888E+03  0.82055645136E+02 0.  0.
         11    1    3    3    0    0  0.83216206189E+02  0.86176992319E+02  0.72857594423E+03  0.73835920627E+03  0.00000000000E+00 0.  1.
        -11    1    3    3    0    0  0.36595887576E+03  0.20306728079E+03  0.19253788510E+04  0.19703415793E+04  0.00000000000E+00 0. -1.
          2    1    6    6  502    0 -0.49475021696E+02 -0.55781938143E+02 -0.14743845653E+03  0.16521955350E+03  0.00000000000E+00 0. -1.
          3    1    5    5  503    0 -0.19152555200E+03 -0.77931872594E+02  0.41300976452E+03  0.46187929096E+03  0.00000000000E+00 0. -1.
         -4    1    5    5    0  503 -0.10274720798E+03 -0.93510780296E+02  0.39855329748E+03  0.42207343639E+03  0.00000000000E+00 0.  1.
         -1    1    6    6    0  502 -0.10542730027E+03 -0.62019682078E+02 -0.85664644906E+02  0.14933113538E+03  0.00000000000E+00 0.  1.
<mgrwt>
<rscale>  0 0.21949350E+04</rscale>
<asrwt>0</asrwt>
<pdfrwt beam="1">  1        2 0.54920143E+00 0.21949350E+04</pdfrwt>
<pdfrwt beam="2">  1       -2 0.51906883E-01 0.21949350E+04</pdfrwt>
<totfact> 0.23348213E+00</totfact>
</mgrwt>
</event>
<event>
12    1  0.1442183E-007  0.1353769E+04  0.7818608E-02  0.8987980E-01
         -3   -1    0    0    0  501 -0.00000000000E+00  0.00000000000E+00  0.26242298947E+03  0.26242298947E+03  0.00000000000E+00 0.  1.
          3   -1    0    0  501    0  0.00000000000E+00 -0.00000000000E+00 -0.17459311116E+04  0.17459311116E+04  0.00000000000E+00 0. -1.
         23    2    1    2    0    0 -0.36425571500E+02 -0.67059518949E+02 -0.94217448422E+03  0.95257262865E+03  0.11780514760E+03 0.  0.
        254    2    1    2    0    0  0.36425571500E+02  0.67059518949E+02 -0.54133363791E+03  0.10557814724E+04  0.90322124014E+03 0.  0.
        -24    2    4    4    0    0 -0.70741481533E+02  0.46910867795E+03 -0.24915978326E+03  0.54122927776E+03  0.76034364412E+02 0.  0.
         24    2    4    4    0    0  0.10716705303E+03 -0.40204915900E+03 -0.29217385465E+03  0.51455219466E+03  0.79183938903E+02 0.  0.
         11    1    3    3    0    0 -0.41332485752E+02  0.14444031585E+02 -0.56333447930E+03  0.56503339724E+03  0.00000000000E+00 0. -1.
        -11    1    3    3    0    0  0.49069142520E+01 -0.81503550534E+02 -0.37884000492E+03  0.38753923142E+03  0.00000000000E+00 0.  1.
          2    1    6    6  502    0  0.27293967649E+02 -0.24956787943E+03 -0.16280491100E+03  0.29922320458E+03  0.00000000000E+00 0. -1.
          3    1    5    5  503    0 -0.16341711789E+02  0.27108317444E+03 -0.17405305544E+03  0.32256411009E+03  0.00000000000E+00 0. -1.
         -4    1    5    5    0  503 -0.54399769745E+02  0.19802550351E+03 -0.75106727819E+02  0.21866516767E+03  0.00000000000E+00 0.  1.
         -1    1    6    6    0  502  0.79873085385E+02 -0.15248127957E+03 -0.12936894365E+03  0.21532899009E+03  0.00000000000E+00 0.  1.
<mgrwt>
<rscale>  0 0.13537688E+04</rscale>
<asrwt>0</asrwt>
<pdfrwt beam="1">  1        3 0.26860479E+00 0.13537688E+04</pdfrwt>
<pdfrwt beam="2">  1       -3 0.40372767E-01 0.13537688E+04</pdfrwt>
<totfact> 0.90804483E-01</totfact>
</mgrwt>
</event>
<event>
12    1  0.1442183E-007  0.1201582E+04  0.7818608E-02  0.9111473E-01
         -2   -1    0    0    0  501 -0.00000000000E+00  0.00000000000E+00  0.37611201247E+03  0.37611201247E+03  0.00000000000E+00 0. -1.
          2   -1    0    0  501    0  0.00000000000E+00 -0.00000000000E+00 -0.95968701263E+03  0.95968701263E+03  0.00000000000E+00 0.  1.
         23    2    1    2    0    0 -0.93586852869E+02  0.17400578930E+03  0.59201707621E+02  0.22578300925E+03  0.91851027990E+02 0.  0.
        254    2    1    2    0    0  0.93586852869E+02 -0.17400578930E+03 -0.64277670778E+03  0.11100160159E+04  0.88314050165E+03 0.  0.
        -24    2    4    4    0    0  0.37174070602E+03 -0.27040351800E+03 -0.65524269941E+03  0.80448967328E+03  0.80940868643E+02 0.  0.
         24    2    4    4    0    0 -0.27815385315E+03  0.96397728707E+02  0.12465991633E+02  0.30552634258E+03  0.80801342433E+02 0.  0.
         11    1    3    3    0    0 -0.80198288667E+02  0.75357874530E+02  0.61767828069E+02  0.12619762020E+03  0.00000000000E+00 0. -1.
        -11    1    3    3    0    0 -0.13388564202E+02  0.98647914767E+02 -0.25661204480E+01  0.99585389056E+02  0.00000000000E+00 0.  1.
          4    1    6    6  502    0 -0.27891116904E+03  0.84557147429E+02  0.49649140074E+01  0.29148928242E+03  0.00000000000E+00 0. -1.
          1    1    5    5  503    0  0.26814647802E+03 -0.19502404371E+03 -0.53104123240E+03  0.62605247528E+03  0.00000000000E+00 0. -1.
         -2    1    5    5    0  503  0.10359422800E+03 -0.75379474295E+02 -0.12420146701E+03  0.17843719799E+03  0.00000000000E+00 0.  1.
         -3    1    6    6    0  502  0.75731588482E+00  0.11840581278E+02  0.75010776253E+01  0.14037060159E+02  0.00000000000E+00 0.  1.
<mgrwt>
<rscale>  0 0.12015820E+04</rscale>
<asrwt>0</asrwt>
<pdfrwt beam="1">  1        2 0.14764415E+00 0.12015820E+04</pdfrwt>
<pdfrwt beam="2">  1       -2 0.57863387E-01 0.12015820E+04</pdfrwt>
<totfact> 0.73809227E+01</totfact>
</mgrwt>
</event>
<event>
12    1  0.1442183E-007  0.1384050E+04  0.7818608E-02  0.8965446E-01
         -2   -1    0    0    0  501 -0.00000000000E+00  0.00000000000E+00  0.53058895362E+03  0.53058895362E+03  0.00000000000E+00 0. -1.
          2   -1    0    0  501    0  0.00000000000E+00 -0.00000000000E+00 -0.90257912935E+03  0.90257912935E+03  0.00000000000E+00 0.  1.
         23    2    1    2    0    0  0.23345277745E+03 -0.83861649160E+02  0.20274081640E+03  0.33301723991E+03  0.90904719073E+02 0.  0.
        254    2    1    2    0    0 -0.23345277745E+03  0.83861649160E+02 -0.57473099212E+03  0.11001508431E+04  0.90470060720E+03 0.  0.
        -24    2    4    4    0    0  0.23563889205E+02 -0.38480402493E+03 -0.28851015947E+03  0.48866586776E+03  0.83227541851E+02 0.  0.
         24    2    4    4    0    0 -0.25701666665E+03  0.46866567409E+03 -0.28622083265E+03  0.61148497529E+03  0.79287003753E+02 0.  0.
         11    1    3    3    0    0  0.11412276640E+03 -0.76345364604E+02  0.69153831370E+02  0.15373637468E+03  0.00000000000E+00 0. -1.
        -11    1    3    3    0    0  0.11933001105E+03 -0.75162845560E+01  0.13358698503E+03  0.17928086523E+03  0.00000000000E+00 0.  1.
          4    1    6    6  502    0 -0.19520001856E+03  0.38785406033E+03 -0.19969756724E+03  0.47792566130E+03  0.00000000000E+00 0. -1.
          3    1    5    5  503    0 -0.15365870474E+02 -0.77721058528E+02 -0.94644346222E+02  0.12342700347E+03  0.00000000000E+00 0. -1.
         -4    1    5    5    0  503  0.38929759680E+02 -0.30708296640E+03 -0.19386581325E+03  0.36523886429E+03  0.00000000000E+00 0.  1.
         -3    1    6    6    0  502 -0.61816648093E+02  0.80811613752E+02 -0.86523265409E+02  0.13355931400E+03  0.00000000000E+00 0.  1.
<mgrwt>
<rscale>  0 0.13840499E+04</rscale>
<asrwt>0</asrwt>
<pdfrwt beam="1">  1        2 0.13885833E+00 0.13840499E+04</pdfrwt>
<pdfrwt beam="2">  1       -2 0.81629070E-01 0.13840499E+04</pdfrwt>
<totfact> 0.37599099E+01</totfact>
</mgrwt>
</event>
<event>
12    1  0.1442183E-007  0.3612944E+04  0.7818608E-02  0.8087533E-01
          2   -1    0    0  501    0  0.00000000000E+00  0.00000000000E+00  0.37122189399E+04  0.37122189399E+04  0.00000000000E+00 0. -1.
         -2   -1    0    0    0  501 -0.00000000000E+00 -0.00000000000E+00 -0.87908096392E+03  0.87908096392E+03  0.00000000000E+00 0.  1.
         23    2    1    2    0    0  0.94842941600E+03  0.10945104779E+04  0.22631965370E+03  0.14687062103E+04  0.91683167820E+02 0.  0.
        254    2    1    2    0    0 -0.94842941600E+03 -0.10945104779E+04  0.26068183223E+04  0.31225936935E+04  0.92607670623E+03 0.  0.
        -24    2    4    4    0    0 -0.23479231487E+03 -0.93875685774E+03  0.12882536676E+04  0.16132159097E+04  0.80474779237E+02 0.  0.
         24    2    4    4    0    0 -0.71363710113E+03 -0.15575362017E+03  0.13185646547E+04  0.15093777838E+04  0.77919467078E+02 0.  0.
         13    1    3    3    0    0  0.74116565762E+03  0.83804903203E+03  0.13736087081E+03  0.11271737758E+04  0.00000000000E+00 0.  1.
        -13    1    3    3    0    0  0.20726375837E+03  0.25646144588E+03  0.88958782899E+02  0.34153243450E+03  0.00000000000E+00 0. -1.
          4    1    6    6  502    0 -0.48354124322E+03 -0.13778608681E+03  0.93953754041E+03  0.10656115284E+04  0.00000000000E+00 0. -1.
          1    1    5    5  503    0 -0.15091105066E+03 -0.59643506806E+03  0.75355205092E+03  0.97280503138E+03  0.00000000000E+00 0. -1.
         -2    1    5    5    0  503 -0.83881264208E+02 -0.34232178968E+03  0.53470161667E+03  0.64041087830E+03  0.00000000000E+00 0.  1.
         -3    1    6    6    0  502 -0.23009585791E+03 -0.17967533360E+02  0.37902711430E+03  0.44376625542E+03  0.00000000000E+00 0.  1.
<mgrwt>
<rscale>  0 0.36129440E+04</rscale>
<asrwt>0</asrwt>
<pdfrwt beam="1">  1        2 0.57111059E+00 0.36129440E+04</pdfrwt>
<pdfrwt beam="2">  1       -2 0.13524323E+00 0.36129440E+04</pdfrwt>
<totfact> 0.18237762E-01</totfact>
</mgrwt>
</event>
<event>
12    1  0.1442183E-007  0.2550080E+04  0.7818608E-02  0.8385358E-01
         -1   -1    0    0    0  501 -0.00000000000E+00  0.00000000000E+00  0.10373640442E+04  0.10373640442E+04  0.00000000000E+00 0.  1.
          1   -1    0    0  501    0  0.00000000000E+00 -0.00000000000E+00 -0.15671715363E+04  0.15671715363E+04  0.00000000000E+00 0. -1.
         23    2    1    2    0    0  0.10635035989E+04  0.60877435759E+02  0.10262860936E+03  0.10740703127E+04  0.91369786968E+02 0.  0.
        254    2    1    2    0    0 -0.10635035989E+04 -0.60877435759E+02 -0.63243610147E+03  0.15304652678E+04  0.89866709422E+03 0.  0.
        -24    2    4    4    0    0 -0.93954464841E+03  0.26537444233E+03 -0.25997654357E+03  0.10134176377E+04  0.79118672106E+02 0.  0.
         24    2    4    4    0    0 -0.12395895053E+03 -0.32625187809E+03 -0.37245955791E+03  0.51704763003E+03  0.82498606455E+02 0.  0.
         13    1    3    3    0    0  0.59542752001E+02  0.16313261178E+02 -0.11027810709E+02  0.62714228172E+02  0.00000000000E+00 0. -1.
        -13    1    3    3    0    0  0.10039608469E+04  0.44564174582E+02  0.11365642006E+03  0.10113560845E+04  0.00000000000E+00 0.  1.
          2    1    6    6  502    0 -0.62020074223E+02 -0.18189051081E+03 -0.14556436058E+03  0.24108013315E+03  0.00000000000E+00 0. -1.
          3    1    5    5  503    0 -0.61218656402E+03  0.17008343614E+03 -0.20786885612E+03  0.66851344471E+03  0.00000000000E+00 0. -1.
         -4    1    5    5    0  503 -0.32735808439E+03  0.95291006184E+02 -0.52107687448E+02  0.34490419303E+03  0.00000000000E+00 0.  1.
         -1    1    6    6    0  502 -0.61938876307E+02 -0.14436136727E+03 -0.22689519733E+03  0.27596749687E+03  0.00000000000E+00 0.  1.
<mgrwt>
<rscale>  0 0.25500803E+04</rscale>
<asrwt>0</asrwt>
<pdfrwt beam="1">  1        1 0.24110331E+00 0.25500803E+04</pdfrwt>
<pdfrwt beam="2">  1       -1 0.15959447E+00 0.25500803E+04</pdfrwt>
<totfact> 0.15303790E+00</totfact>
</mgrwt>
</event>
<event>
12    1  0.1442183E-007  0.1347368E+04  0.7818608E-02  0.8992823E-01
         -1   -1    0    0    0  501 -0.00000000000E+00  0.00000000000E+00  0.25551176401E+03  0.25551176401E+03  0.00000000000E+00 0.  1.
          1   -1    0    0  501    0  0.00000000000E+00 -0.00000000000E+00 -0.17762385723E+04  0.17762385723E+04  0.00000000000E+00 0. -1.
         23    2    1    2    0    0 -0.28543942511E+03  0.19947753163E+03 -0.60808543077E+03  0.70738697228E+03  0.96754774604E+02 0.  0.
        254    2    1    2    0    0  0.28543942511E+03 -0.19947753163E+03 -0.91264137748E+03  0.13243633640E+04  0.89429138704E+03 0.  0.
        -24    2    4    4    0    0  0.42628718257E+03 -0.11233996713E+03 -0.59845635398E+02  0.45189149161E+03  0.79267836326E+02 0.  0.
         24    2    4    4    0    0 -0.14084775747E+03 -0.87137564497E+02 -0.85279574208E+03  0.87247187236E+03  0.80718922371E+02 0.  0.
         11    1    3    3    0    0 -0.25703494828E+03  0.18453006683E+03 -0.47682444696E+03  0.57225856343E+03  0.00000000000E+00 0.  1.
        -11    1    3    3    0    0 -0.28404476825E+02  0.14947464798E+02 -0.13126098380E+03  0.13512840884E+03  0.00000000000E+00 0. -1.
          4    1    6    6  502    0 -0.39644665158E+02 -0.14249564290E+02 -0.87887525415E+02  0.97462642492E+02  0.00000000000E+00 0. -1.
          3    1    5    5  503    0  0.13367166445E+03 -0.87263808177E+01  0.78178487474E+01  0.13418413602E+03  0.00000000000E+00 0. -1.
         -4    1    5    5    0  503  0.29261551812E+03 -0.10361358631E+03 -0.67663484145E+02  0.31770735560E+03  0.00000000000E+00 0.  1.
         -3    1    6    6    0  502 -0.10120309231E+03 -0.72888000207E+02 -0.76490821666E+03  0.77500922987E+03  0.00000000000E+00 0.  1.
<mgrwt>
<rscale>  0 0.13473676E+04</rscale>
<asrwt>0</asrwt>
<pdfrwt beam="1">  1        1 0.27326747E+00 0.13473676E+04</pdfrwt>
<pdfrwt beam="2">  1       -1 0.39309503E-01 0.13473676E+04</pdfrwt>
<totfact> 0.26041166E+01</totfact>
</mgrwt>
</event>
<event>
12    1  0.1442183E-007  0.1430083E+04  0.7818608E-02  0.8932326E-01
         -2   -1    0    0    0  501 -0.00000000000E+00  0.00000000000E+00  0.23218594918E+03  0.23218594918E+03  0.00000000000E+00 0.  1.
          2   -1    0    0  501    0  0.00000000000E+00 -0.00000000000E+00 -0.22020479582E+04  0.22020479582E+04  0.00000000000E+00 0. -1.
         23    2    1    2    0    0  0.25107459921E+02  0.60378561447E+02 -0.13173933293E+04  0.13219519995E+04  0.88067869404E+02 0.  0.
        254    2    1    2    0    0 -0.25107459921E+02 -0.60378561447E+02 -0.65246867967E+03  0.11122819078E+04  0.89843180561E+03 0.  0.
        -24    2    4    4    0    0  0.30657995526E+03 -0.33658875479E+03 -0.33647544620E+03  0.57156420296E+03  0.78655282025E+02 0.  0.
         24    2    4    4    0    0 -0.33168741518E+03  0.27621019334E+03 -0.31599323347E+03  0.54071770488E+03  0.78837177020E+02 0.  0.
         13    1    3    3    0    0 -0.11934891559E+02  0.22349404522E+02 -0.98663967242E+03  0.98696493388E+03  0.00000000000E+00 0. -1.
        -13    1    3    3    0    0  0.37042351480E+02  0.38029156924E+02 -0.33075365692E+03  0.33498706564E+03  0.00000000000E+00 0.  1.
          4    1    6    6  502    0 -0.53671792384E+02  0.51845902768E+02 -0.21304861750E+02  0.77605129120E+02  0.00000000000E+00 0. -1.
          3    1    5    5  503    0  0.41705653074E+02 -0.60090463595E+02 -0.90933371763E+02  0.11670091436E+03  0.00000000000E+00 0. -1.
         -4    1    5    5    0  503  0.26487430218E+03 -0.27649829119E+03 -0.24554207444E+03  0.45486328860E+03  0.00000000000E+00 0.  1.
         -3    1    6    6    0  502 -0.27801562279E+03  0.22436429057E+03 -0.29468837172E+03  0.46311257576E+03  0.00000000000E+00 0.  1.
<mgrwt>
<rscale>  0 0.14300833E+04</rscale>
<asrwt>0</asrwt>
<pdfrwt beam="1">  1        2 0.33877662E+00 0.14300833E+04</pdfrwt>
<pdfrwt beam="2">  1       -2 0.35720914E-01 0.14300833E+04</pdfrwt>
<totfact> 0.36899123E+01</totfact>
</mgrwt>
</event>
<event>
12    1  0.1442183E-007  0.1333216E+04  0.7818608E-02  0.9003631E-01
         -2   -1    0    0    0  501 -0.00000000000E+00  0.00000000000E+00  0.35624672563E+03  0.35624672563E+03  0.00000000000E+00 0.  1.
          2   -1    0    0  501    0  0.00000000000E+00 -0.00000000000E+00 -0.12473559600E+04  0.12473559600E+04  0.00000000000E+00 0. -1.
         23    2    1    2    0    0 -0.18120366444E+03  0.27857082582E+03 -0.39711003668E+03  0.52580155570E+03  0.91293054167E+02 0.  0.
        254    2    1    2    0    0  0.18120366444E+03 -0.27857082582E+03 -0.49399919764E+03  0.10778011299E+04  0.89843396825E+03 0.  0.
        -24    2    4    4    0    0  0.18941538023E+03  0.25714620546E+03 -0.41645259920E+03  0.53073439250E+03  0.79018167249E+02 0.  0.
         24    2    4    4    0    0 -0.82117157835E+01 -0.53571703129E+03 -0.77546598447E+02  0.54706673739E+03  0.78793212526E+02 0.  0.
         13    1    3    3    0    0 -0.10300329257E+03  0.21428189558E+03 -0.23241004224E+03  0.33247682143E+03  0.00000000000E+00 0. -1.
        -13    1    3    3    0    0 -0.78200371871E+02  0.64288930240E+02 -0.16469999444E+03  0.19332473427E+03  0.00000000000E+00 0.  1.
          4    1    6    6  502    0 -0.23875543095E+02 -0.48846232474E+03 -0.54069161480E+02  0.49202536365E+03  0.00000000000E+00 0. -1.
          1    1    5    5  503    0  0.36717890613E+02  0.11335362011E+03 -0.14428233571E+03  0.18712198984E+03  0.00000000000E+00 0. -1.
         -2    1    5    5    0  503  0.15269748961E+03  0.14379258535E+03 -0.27217026348E+03  0.34361240266E+03  0.00000000000E+00 0.  1.
         -3    1    6    6    0  502  0.15663827311E+02 -0.47254706541E+02 -0.23477436967E+02  0.55041373737E+02  0.00000000000E+00 0.  1.
<mgrwt>
<rscale>  0 0.13332164E+04</rscale>
<asrwt>0</asrwt>
<pdfrwt beam="1">  1        2 0.19190092E+00 0.13332164E+04</pdfrwt>
<pdfrwt beam="2">  1       -2 0.54807189E-01 0.13332164E+04</pdfrwt>
<totfact> 0.54359111E+01</totfact>
</mgrwt>
</event>
<event>
12    1  0.1442183E-007  0.1333958E+04  0.7818608E-02  0.9003061E-01
          2   -1    0    0  501    0  0.00000000000E+00  0.00000000000E+00  0.53995904695E+03  0.53995904695E+03  0.00000000000E+00 0. -1.
         -2   -1    0    0    0  501 -0.00000000000E+00 -0.00000000000E+00 -0.82387887641E+03  0.82387887641E+03  0.00000000000E+00 0.  1.
         23    2    1    2    0    0 -0.51915165662E+02 -0.16469067585E+03 -0.37506791562E+03  0.42264578570E+03  0.90195984986E+02 0.  0.
        254    2    1    2    0    0  0.51915165662E+02  0.16469067585E+03  0.91148086152E+02  0.94119213766E+03  0.92071519117E+03 0.  0.
        -24    2    4    4    0    0 -0.34311649742E+03 -0.16642795821E+03 -0.68657138239E+02  0.39567981177E+03  0.80134354266E+02 0.  0.
         24    2    4    4    0    0  0.39503166309E+03  0.33111863405E+03  0.15980522439E+03  0.54551232589E+03  0.79727180452E+02 0.  0.
         13    1    3    3    0    0 -0.74527278450E+02 -0.14743685679E+03 -0.30191397215E+03  0.34415692432E+03  0.00000000000E+00 0.  1.
        -13    1    3    3    0    0  0.22612112788E+02 -0.17253819052E+02 -0.73153943466E+02  0.78488861383E+02  0.00000000000E+00 0. -1.
          2    1    6    6  502    0  0.78028250896E+02  0.55848048081E+02 -0.91979176468E+00  0.95959670848E+02  0.00000000000E+00 0. -1.
          1    1    5    5  503    0 -0.61395179682E+02  0.20309355085E+01 -0.11403115019E+02  0.62478186749E+02  0.00000000000E+00 0. -1.
         -2    1    5    5    0  503 -0.28172131774E+03 -0.16845889371E+03 -0.57254023220E+02  0.33320162502E+03  0.00000000000E+00 0.  1.
         -1    1    6    6    0  502  0.31700341219E+03  0.27527058597E+03  0.16072501616E+03  0.44955265505E+03  0.00000000000E+00 0.  1.
<mgrwt>
<rscale>  0 0.13339578E+04</rscale>
<asrwt>0</asrwt>
<pdfrwt beam="1">  1        2 0.83070623E-01 0.13339578E+04</pdfrwt>
<pdfrwt beam="2">  1       -2 0.12675060E+00 0.13339578E+04</pdfrwt>
<totfact> 0.25464257E+01</totfact>
</mgrwt>
</event>
<event>
12    1  0.1442183E-007  0.1820965E+04  0.7818608E-02  0.8695229E-01
          2   -1    0    0  501    0  0.00000000000E+00  0.00000000000E+00  0.26836422910E+04  0.26836422910E+04  0.00000000000E+00 0. -1.
         -2   -1    0    0    0  501 -0.00000000000E+00 -0.00000000000E+00 -0.30890048628E+03  0.30890048628E+03  0.00000000000E+00 0.  1.
         23    2    1    2    0    0  0.22544743740E+03  0.60346523246E+03  0.52832214903E+03  0.83807674626E+03  0.90837798576E+02 0.  0.
        254    2    1    2    0    0 -0.22544743740E+03 -0.60346523246E+03  0.18464196556E+04  0.21544660310E+04  0.90413577522E+03 0.  0.
        -24    2    4    4    0    0 -0.10860003484E+03 -0.57848518529E+03  0.19088493161E+04  0.19991852608E+04  0.81221415345E+02 0.  0.
         24    2    4    4    0    0 -0.11684740256E+03 -0.24980047164E+02 -0.62429660462E+02  0.15528077015E+03  0.77054116243E+02 0.  0.
         11    1    3    3    0    0  0.46659836148E+01  0.16701691117E+01 -0.27314565440E+01  0.56587739668E+01  0.00000000000E+00 0. -1.
        -11    1    3    3    0    0  0.22078145379E+03  0.60179506335E+03  0.53105360557E+03  0.83241797229E+03  0.00000000000E+00 0.  1.
          2    1    6    6  502    0 -0.21036516586E+02  0.22594463889E+02  0.10538152908E+01  0.30889405225E+02  0.00000000000E+00 0. -1.
          3    1    5    5  503    0 -0.85034166802E+01 -0.94844041304E+01  0.86925690500E+02  0.87854070400E+02  0.00000000000E+00 0. -1.
         -4    1    5    5    0  503 -0.10009661816E+03 -0.56900078116E+03  0.18219236256E+04  0.19113311904E+04  0.00000000000E+00 0.  1.
         -1    1    6    6    0  502 -0.95810885977E+02 -0.47574511052E+02 -0.63483475753E+02  0.12439136492E+03  0.00000000000E+00 0.  1.
<mgrwt>
<rscale>  0 0.18209650E+04</rscale>
<asrwt>0</asrwt>
<pdfrwt beam="1">  1        2 0.41286803E+00 0.18209650E+04</pdfrwt>
<pdfrwt beam="2">  1       -2 0.47523154E-01 0.18209650E+04</pdfrwt>
<totfact> 0.10760145E+01</totfact>
</mgrwt>
</event>
<event>
12    1  0.1442183E-007  0.2877428E+04  0.7818608E-02  0.8279625E-01
         -2   -1    0    0    0  501 -0.00000000000E+00  0.00000000000E+00  0.16459420216E+04  0.16459420216E+04  0.00000000000E+00 0. -1.
          2   -1    0    0  501    0  0.00000000000E+00 -0.00000000000E+00 -0.12575763358E+04  0.12575763358E+04  0.00000000000E+00 0.  1.
         23    2    1    2    0    0 -0.36425180241E+03  0.89291157048E+03 -0.68726106811E+03  0.11875406974E+04  0.89189035635E+02 0.  0.
        254    2    1    2    0    0  0.36425180241E+03 -0.89291157048E+03  0.10756267540E+04  0.17159776600E+04  0.92608637146E+03 0.  0.
        -24    2    4    4    0    0  0.58253606954E+02 -0.58040768588E+03  0.41590297499E+02  0.59035385861E+03  0.80754943958E+02 0.  0.
         24    2    4    4    0    0  0.30599819545E+03 -0.31250388460E+03  0.10340364565E+04  0.11256238014E+04  0.80647227973E+02 0.  0.
         13    1    3    3    0    0 -0.99002562491E+01  0.10217289479E+02 -0.24204484953E+02  0.28076060442E+02  0.00000000000E+00 0. -1.
        -13    1    3    3    0    0 -0.35435154616E+03  0.88269428100E+03 -0.66305658316E+03  0.11594646370E+04  0.00000000000E+00 0.  1.
          4    1    6    6  502    0  0.24542916351E+03 -0.25799664926E+03  0.75190148957E+03  0.83195768843E+03  0.00000000000E+00 0. -1.
          3    1    5    5  503    0  0.69438454382E+01 -0.20129588905E+03 -0.21716824403E+02  0.20258300126E+03  0.00000000000E+00 0. -1.
         -4    1    5    5    0  503  0.51309761516E+02 -0.37911179683E+03  0.63307121903E+02  0.38777085735E+03  0.00000000000E+00 0.  1.
         -3    1    6    6    0  502  0.60569031940E+02 -0.54507235342E+02  0.28213496690E+03  0.29366611293E+03  0.00000000000E+00 0.  1.
<mgrwt>
<rscale>  0 0.28774278E+04</rscale>
<asrwt>0</asrwt>
<pdfrwt beam="1">  1        2 0.19347328E+00 0.28774278E+04</pdfrwt>
<pdfrwt beam="2">  1       -2 0.25322185E+00 0.28774278E+04</pdfrwt>
<totfact> 0.92935672E-01</totfact>
</mgrwt>
</event>
<event>
12    1  0.1442183E-007  0.2061363E+04  0.7818608E-02  0.8578457E-01
         -1   -1    0    0    0  501 -0.00000000000E+00  0.00000000000E+00  0.59196059679E+03  0.59196059679E+03  0.00000000000E+00 0.  1.
          1   -1    0    0  501    0  0.00000000000E+00 -0.00000000000E+00 -0.17945532501E+04  0.17945532501E+04  0.00000000000E+00 0. -1.
         23    2    1    2    0    0 -0.50748753136E+03 -0.38733082588E+03  0.13171619192E+03  0.65811576129E+03  0.90545220045E+02 0.  0.
        254    2    1    2    0    0  0.50748753136E+03  0.38733082588E+03 -0.13343088452E+04  0.17283980856E+04  0.89409791672E+03 0.  0.
        -24    2    4    4    0    0  0.38643157572E+03 -0.10521857970E+03 -0.14556209726E+03  0.43349278057E+03  0.79544669334E+02 0.  0.
         24    2    4    4    0    0  0.12105595564E+03  0.49254940558E+03 -0.11887467479E+04  0.12949053050E+04  0.80009104933E+02 0.  0.
         11    1    3    3    0    0 -0.37462512446E+03 -0.25643538310E+03  0.58457517990E+02  0.45773395219E+03  0.00000000000E+00 0.  1.
        -11    1    3    3    0    0 -0.13286240690E+03 -0.13089544279E+03  0.73258673927E+02  0.20038180909E+03  0.00000000000E+00 0. -1.
          2    1    6    6  502    0  0.38910067885E+02  0.25734963128E+03 -0.52580617371E+03  0.58669835385E+03  0.00000000000E+00 0. -1.
          3    1    5    5  503    0  0.14873750841E+03 -0.41259880266E+02 -0.97868365265E+02  0.18276608287E+03  0.00000000000E+00 0. -1.
         -4    1    5    5    0  503  0.23769406732E+03 -0.63958699432E+02 -0.47693731992E+02  0.25072669770E+03  0.00000000000E+00 0.  1.
         -1    1    6    6    0  502  0.82145887758E+02  0.23519977430E+03 -0.66294057421E+03  0.70820695114E+03  0.00000000000E+00 0.  1.
<mgrwt>
<rscale>  0 0.20613634E+04</rscale>
<asrwt>0</asrwt>
<pdfrwt beam="1">  1        1 0.27608511E+00 0.20613634E+04</pdfrwt>
<pdfrwt beam="2">  1       -1 0.91070862E-01 0.20613634E+04</pdfrwt>
<totfact> 0.44610154E+00</totfact>
</mgrwt>
</event>
<event>
12    1  0.1442183E-007  0.3017413E+04  0.7818608E-02  0.8238776E-01
         -1   -1    0    0    0  501 -0.00000000000E+00  0.00000000000E+00  0.80964869796E+03  0.80964869796E+03  0.00000000000E+00 0.  1.
          1   -1    0    0  501    0  0.00000000000E+00 -0.00000000000E+00 -0.28113368613E+04  0.28113368613E+04  0.00000000000E+00 0. -1.
         23    2    1    2    0    0 -0.95749606710E+03 -0.11708710144E+03  0.26068490979E+03  0.10039634653E+04  0.97354556343E+02 0.  0.
        254    2    1    2    0    0  0.95749606710E+03  0.11708710144E+03 -0.22623730732E+04  0.26170220940E+04  0.89440740737E+03 0.  0.
        -24    2    4    4    0    0  0.98491012002E+03 -0.17317259390E+03 -0.15946468565E+04  0.18839428227E+04  0.79405731860E+02 0.  0.
         24    2    4    4    0    0 -0.27414052917E+02  0.29025969535E+03 -0.66772621666E+03  0.73307927133E+03  0.80899299139E+02 0.  0.
         13    1    3    3    0    0 -0.11344005619E+03 -0.39088839814E+02  0.11999343128E+02  0.12058427751E+03  0.00000000000E+00 0. -1.
        -13    1    3    3    0    0 -0.84405601091E+03 -0.77998261631E+02  0.24868556666E+03  0.88337918780E+03  0.00000000000E+00 0.  1.
          2    1    6    6  502    0  0.23469912635E+02  0.55206523718E+02 -0.10161007655E+03  0.11799663011E+03  0.00000000000E+00 0. -1.
          3    1    5    5  503    0  0.36064073212E+03 -0.10162577889E+03 -0.61006376805E+03  0.71593808230E+03  0.00000000000E+00 0. -1.
         -4    1    5    5    0  503  0.62426938790E+03 -0.71546815011E+02 -0.98458308847E+03  0.11680047404E+04  0.00000000000E+00 0.  1.
         -1    1    6    6    0  502 -0.50883965553E+02  0.23505317163E+03 -0.56611614011E+03  0.61508264122E+03  0.00000000000E+00 0.  1.
<mgrwt>
<rscale>  0 0.30174130E+04</rscale>
<asrwt>0</asrwt>
<pdfrwt beam="1">  1        1 0.43251337E+00 0.30174130E+04</pdfrwt>
<pdfrwt beam="2">  1       -1 0.12456134E+00 0.30174130E+04</pdfrwt>
<totfact> 0.39218726E-01</totfact>
</mgrwt>
</event>
<event>
12    1  0.1442183E-007  0.1769937E+04  0.7818608E-02  0.8722452E-01
         -2   -1    0    0    0  501 -0.00000000000E+00  0.00000000000E+00  0.54007226705E+03  0.54007226705E+03  0.00000000000E+00 0. -1.
          2   -1    0    0  501    0  0.00000000000E+00 -0.00000000000E+00 -0.14501185395E+04  0.14501185395E+04  0.00000000000E+00 0.  1.
         23    2    1    2    0    0 -0.15643481472E+03  0.62871634883E+03 -0.28255608583E+03  0.71255973835E+03  0.90262619844E+02 0.  0.
        254    2    1    2    0    0  0.15643481472E+03 -0.62871634883E+03 -0.62749018660E+03  0.12776310682E+04  0.90489839958E+03 0.  0.
        -24    2    4    4    0    0 -0.35595361087E+03 -0.12224241393E+03 -0.27220352386E+03  0.47005600845E+03  0.72192186742E+02 0.  0.
         24    2    4    4    0    0  0.51238842559E+03 -0.50647393490E+03 -0.35528666274E+03  0.80757505973E+03  0.83012763851E+02 0.  0.
         13    1    3    3    0    0 -0.82566474947E+02  0.26339798000E+03 -0.16573614711E+03  0.32196923628E+03  0.00000000000E+00 0.  1.
        -13    1    3    3    0    0 -0.73868339772E+02  0.36531836883E+03 -0.11681993871E+03  0.39059050207E+03  0.00000000000E+00 0. -1.
          2    1    6    6  502    0  0.40889829095E+02 -0.13575747853E+02 -0.19135088608E+02  0.47142662942E+02  0.00000000000E+00 0. -1.
          1    1    5    5  503    0 -0.23673651699E+02 -0.28412329502E+02 -0.36782903678E+02  0.52160178829E+02  0.00000000000E+00 0. -1.
         -2    1    5    5    0  503 -0.33227995917E+03 -0.93830084425E+02 -0.23542062018E+03  0.41789582962E+03  0.00000000000E+00 0.  1.
         -1    1    6    6    0  502  0.47149859649E+03 -0.49289818705E+03 -0.33615157413E+03  0.76043239679E+03  0.00000000000E+00 0.  1.
<mgrwt>
<rscale>  0 0.17699365E+04</rscale>
<asrwt>0</asrwt>
<pdfrwt beam="1">  1        2 0.22309516E+00 0.17699365E+04</pdfrwt>
<pdfrwt beam="2">  1       -2 0.83088042E-01 0.17699365E+04</pdfrwt>
<totfact> 0.16268490E+01</totfact>
</mgrwt>
</event>
<event>
12    1  0.1442183E-007  0.1838529E+04  0.7818608E-02  0.8686074E-01
          2   -1    0    0  501    0  0.00000000000E+00  0.00000000000E+00  0.14163112503E+04  0.14163112503E+04  0.00000000000E+00 0. -1.
         -2   -1    0    0    0  501 -0.00000000000E+00 -0.00000000000E+00 -0.59665362498E+03  0.59665362498E+03  0.00000000000E+00 0.  1.
         23    2    1    2    0    0  0.19761574544E+03  0.65427675534E+03  0.43855799423E+03  0.81732772832E+03  0.92528080877E+02 0.  0.
        254    2    1    2    0    0 -0.19761574544E+03 -0.65427675534E+03  0.38109963105E+03  0.11956371469E+04  0.90398075359E+03 0.  0.
        -24    2    4    4    0    0  0.14071381392E+03 -0.20638463597E+03  0.54555255595E+03  0.60534265597E+03  0.80107081049E+02 0.  0.
         24    2    4    4    0    0 -0.33832955936E+03 -0.44789211938E+03 -0.16445292490E+03  0.59029449095E+03  0.79552373931E+02 0.  0.
         11    1    3    3    0    0  0.98809471386E+01  0.16113813335E+01  0.27144749008E+01  0.10372947515E+02  0.00000000000E+00 0. -1.
        -11    1    3    3    0    0  0.18773479831E+03  0.65266537401E+03  0.43584351933E+03  0.80695478081E+03  0.00000000000E+00 0.  1.
          4    1    6    6  502    0 -0.31574911415E+03 -0.44238014433E+03 -0.15474391823E+03  0.56510474730E+03  0.00000000000E+00 0. -1.
          1    1    5    5  503    0  0.11850245225E+03 -0.17222639686E+03  0.36858154370E+03  0.42374180502E+03  0.00000000000E+00 0. -1.
         -2    1    5    5    0  503  0.22211361663E+02 -0.34158239103E+02  0.17697101226E+03  0.18160085095E+03  0.00000000000E+00 0.  1.
         -3    1    6    6    0  502 -0.22580445208E+02 -0.55119750446E+01 -0.97090066743E+01  0.25189743653E+02  0.00000000000E+00 0.  1.
<mgrwt>
<rscale>  0 0.18385290E+04</rscale>
<asrwt>0</asrwt>
<pdfrwt beam="1">  1        2 0.21789404E+00 0.18385290E+04</pdfrwt>
<pdfrwt beam="2">  1       -2 0.91792866E-01 0.18385290E+04</pdfrwt>
<totfact> 0.13459333E+01</totfact>
</mgrwt>
</event>
<event>
12    1  0.1442183E-007  0.1271110E+04  0.7818608E-02  0.9052794E-01
          2   -1    0    0  501    0  0.00000000000E+00  0.00000000000E+00  0.12458946659E+04  0.12458946659E+04  0.00000000000E+00 0. -1.
         -2   -1    0    0    0  501 -0.00000000000E+00 -0.00000000000E+00 -0.32420877722E+03  0.32420877722E+03  0.00000000000E+00 0.  1.
         23    2    1    2    0    0  0.30184252631E+03  0.13224574143E+02  0.21269259200E+01  0.31566205130E+03  0.91401349939E+02 0.  0.
        254    2    1    2    0    0 -0.30184252631E+03 -0.13224574143E+02  0.91955896280E+03  0.12544413919E+04  0.79796661551E+03 0.  0.
        -24    2    4    4    0    0 -0.18736547369E+03  0.32491019009E+03  0.76728136529E+03  0.85775730852E+03  0.79714832001E+02 0.  0.
         24    2    4    4    0    0 -0.11447705262E+03 -0.33813476424E+03  0.15227759751E+03  0.39668408333E+03  0.82034632330E+02 0.  0.
         11    1    3    3    0    0  0.79381713238E+02 -0.20558272921E+02  0.33295053513E+02  0.88502313927E+02  0.00000000000E+00 0. -1.
        -11    1    3    3    0    0  0.22246081307E+03  0.33782847064E+02 -0.31168127593E+02  0.22715973738E+03  0.00000000000E+00 0.  1.
          2    1    6    6  502    0 -0.93958309000E+02 -0.27620101622E+03  0.87117623920E+02  0.30447437591E+03  0.00000000000E+00 0. -1.
          3    1    5    5  503    0 -0.16240372472E+03  0.31634756345E+03  0.69265530749E+03  0.77860267512E+03  0.00000000000E+00 0. -1.
         -4    1    5    5    0  503 -0.24961748968E+02  0.85626266445E+01  0.74626057801E+02  0.79154633405E+02  0.00000000000E+00 0.  1.
         -1    1    6    6    0  502 -0.20518743618E+02 -0.61933748017E+02  0.65159973592E+02  0.92209707415E+02  0.00000000000E+00 0.  1.
<mgrwt>
<rscale>  0 0.12711097E+04</rscale>
<asrwt>0</asrwt>
<pdfrwt beam="1">  1        2 0.19167610E+00 0.12711097E+04</pdfrwt>
<pdfrwt beam="2">  1       -2 0.49878274E-01 0.12711097E+04</pdfrwt>
<totfact> 0.66416908E+01</totfact>
</mgrwt>
</event>
<event>
12    1  0.1442183E-007  0.2056573E+04  0.7818608E-02  0.8580618E-01
         -1   -1    0    0    0  501 -0.00000000000E+00  0.00000000000E+00  0.33172623362E+03  0.33172623362E+03  0.00000000000E+00 0.  1.
          1   -1    0    0  501    0  0.00000000000E+00 -0.00000000000E+00 -0.31874860851E+04  0.31874860851E+04  0.00000000000E+00 0. -1.
         23    2    1    2    0    0 -0.32846775459E+03 -0.14589780760E+03  0.11726951731E+03  0.38913539419E+03  0.92179060845E+02 0.  0.
        254    2    1    2    0    0  0.32846775459E+03  0.14589780760E+03 -0.29730293688E+04  0.31300769246E+04  0.91065948067E+03 0.  0.
        -24    2    4    4    0    0  0.46856628560E+03  0.39299746378E+03 -0.24805274056E+04  0.25560659811E+04  0.80347492831E+02 0.  0.
         24    2    4    4    0    0 -0.14009853102E+03 -0.24709965618E+03 -0.49250196327E+03  0.57401094345E+03  0.79022407520E+02 0.  0.
         11    1    3    3    0    0 -0.81108641190E+02 -0.24440525110E+02  0.69248262523E+02  0.10941331183E+03  0.00000000000E+00 0. -1.
        -11    1    3    3    0    0 -0.24735911340E+03 -0.12145728249E+03  0.48021254789E+02  0.27972208236E+03  0.00000000000E+00 0.  1.
          2    1    6    6  502    0 -0.75110433474E+02 -0.16530069742E+03 -0.37589921293E+03  0.41745193264E+03  0.00000000000E+00 0. -1.
          1    1    5    5  503    0  0.19122746045E+03  0.14397012733E+03 -0.82018616226E+03  0.85440077245E+03  0.00000000000E+00 0. -1.
         -2    1    5    5    0  503  0.27733882516E+03  0.24902733645E+03 -0.16603412433E+04  0.17016652087E+04  0.00000000000E+00 0.  1.
         -1    1    6    6    0  502 -0.64988097541E+02 -0.81798958764E+02 -0.11660275034E+03  0.15655901080E+03  0.00000000000E+00 0.  1.
<mgrwt>
<rscale>  0 0.20565726E+04</rscale>
<asrwt>0</asrwt>
<pdfrwt beam="1">  1        1 0.49038247E+00 0.20565726E+04</pdfrwt>
<pdfrwt beam="2">  1       -1 0.51034806E-01 0.20565726E+04</pdfrwt>
<totfact> 0.15513162E+00</totfact>
</mgrwt>
</event>
<event>
12    1  0.1442183E-007  0.1799546E+04  0.7818608E-02  0.8706541E-01
          2   -1    0    0  501    0  0.00000000000E+00  0.00000000000E+00  0.66238927643E+03  0.66238927643E+03  0.00000000000E+00 0. -1.
         -2   -1    0    0    0  501 -0.00000000000E+00 -0.00000000000E+00 -0.12222296113E+04  0.12222296113E+04  0.00000000000E+00 0.  1.
         23    2    1    2    0    0  0.43326547514E+03 -0.53643894224E+02  0.32570932319E+03  0.55370590885E+03  0.99534069281E+02 0.  0.
        254    2    1    2    0    0 -0.43326547514E+03  0.53643894224E+02 -0.88554965809E+03  0.13309129789E+04  0.89248782689E+03 0.  0.
        -24    2    4    4    0    0 -0.34289773555E+03  0.38060575059E+03 -0.82908476334E+03  0.97780849361E+03  0.79298871065E+02 0.  0.
         24    2    4    4    0    0 -0.90367739592E+02 -0.32696185637E+03 -0.56464894751E+02  0.35310448530E+03  0.80150541609E+02 0.  0.
         11    1    3    3    0    0  0.32632845877E+03 -0.34251743552E+02  0.29380912750E+03  0.44043983510E+03  0.00000000000E+00 0. -1.
        -11    1    3    3    0    0  0.10693701637E+03 -0.19392150672E+02  0.31900195686E+02  0.11326607375E+03  0.00000000000E+00 0.  1.
          2    1    6    6  502    0  0.74602015769E+01 -0.98590665587E+02 -0.26916241740E+01  0.98909144112E+02  0.00000000000E+00 0. -1.
          1    1    5    5  503    0 -0.13904284267E+03  0.20897575776E+03 -0.37339784563E+03  0.44992191606E+03  0.00000000000E+00 0. -1.
         -2    1    5    5    0  503 -0.20385489288E+03  0.17162999283E+03 -0.45568691771E+03  0.52788657756E+03  0.00000000000E+00 0.  1.
         -1    1    6    6    0  502 -0.97827941169E+02 -0.22837119078E+03 -0.53773270577E+02  0.25419534119E+03  0.00000000000E+00 0.  1.
<mgrwt>
<rscale>  0 0.17995464E+04</rscale>
<asrwt>0</asrwt>
<pdfrwt beam="1">  1        2 0.10190604E+00 0.17995464E+04</pdfrwt>
<pdfrwt beam="2">  1       -2 0.18803532E+00 0.17995464E+04</pdfrwt>
<totfact> 0.66206091E+00</totfact>
</mgrwt>
</event>
<event>
12    1  0.1442183E-007  0.1932631E+04  0.7818608E-02  0.8638782E-01
          2   -1    0    0  501    0  0.00000000000E+00  0.00000000000E+00  0.89415078060E+03  0.89415078060E+03  0.00000000000E+00 0. -1.
         -2   -1    0    0    0  501 -0.00000000000E+00 -0.00000000000E+00 -0.10443045190E+04  0.10443045190E+04  0.00000000000E+00 0.  1.
         23    2    1    2    0    0  0.58286597325E+03  0.14314487795E+03  0.40840010061E+03  0.73187423957E+03  0.92876592895E+02 0.  0.
        254    2    1    2    0    0 -0.58286597325E+03 -0.14314487795E+03 -0.55855383900E+03  0.12065810600E+04  0.88523006303E+03 0.  0.
        -24    2    4    4    0    0 -0.74384864619E+02 -0.40489458600E+03 -0.45573337178E+03  0.61943978321E+03  0.80870297495E+02 0.  0.
         24    2    4    4    0    0 -0.50848110863E+03  0.26174970805E+03 -0.10282046722E+03  0.58714127681E+03  0.84242999470E+02 0.  0.
         13    1    3    3    0    0  0.53086618263E+03  0.11765845071E+03  0.39596472627E+03  0.67264439293E+03  0.00000000000E+00 0. -1.
        -13    1    3    3    0    0  0.51999790620E+02  0.25486427241E+02  0.12435374334E+02  0.59229846639E+02  0.00000000000E+00 0.  1.
          2    1    6    6  502    0 -0.14183464401E+03  0.61477758414E+02 -0.64865075305E+02  0.16764265273E+03  0.00000000000E+00 0. -1.
          3    1    5    5  503    0 -0.52540887515E+02 -0.13137257073E+03 -0.11761165141E+03  0.18398858048E+03  0.00000000000E+00 0. -1.
         -4    1    5    5    0  503 -0.21843977105E+02 -0.27352201528E+03 -0.33812172037E+03  0.43545120273E+03  0.00000000000E+00 0.  1.
         -1    1    6    6    0  502 -0.36664646462E+03  0.20027194964E+03 -0.37955391918E+02  0.41949862408E+03  0.00000000000E+00 0.  1.
<mgrwt>
<rscale>  0 0.19326311E+04</rscale>
<asrwt>0</asrwt>
<pdfrwt beam="1">  1        2 0.13756166E+00 0.19326311E+04</pdfrwt>
<pdfrwt beam="2">  1       -2 0.16066223E+00 0.19326311E+04</pdfrwt>
<totfact> 0.68825495E+00</totfact>
</mgrwt>
</event>
<event>
12    1  0.1442183E-007  0.1549000E+04  0.7818608E-02  0.8852507E-01
          2   -1    0    0  501    0  0.00000000000E+00  0.00000000000E+00  0.15391251086E+04  0.15391251086E+04  0.00000000000E+00 0. -1.
         -2   -1    0    0    0  501 -0.00000000000E+00 -0.00000000000E+00 -0.38973440753E+03  0.38973440753E+03  0.00000000000E+00 0.  1.
         23    2    1    2    0    0  0.24690098387E+03  0.10156425634E+03  0.90677576903E+03  0.95023513830E+03  0.97103701069E+02 0.  0.
        254    2    1    2    0    0 -0.24690098387E+03 -0.10156425634E+03  0.24261493204E+03  0.97862437784E+03  0.90970779575E+03 0.  0.
        -24    2    4    4    0    0  0.59342860390E+02  0.26648943729E+03 -0.17846513635E+03  0.33573181648E+03  0.79547799719E+02 0.  0.
         24    2    4    4    0    0 -0.30624384425E+03 -0.36805369363E+03  0.42108006839E+03  0.64289256136E+03  0.82180337736E+02 0.  0.
         11    1    3    3    0    0  0.23842229123E+03  0.97611724300E+02  0.90468037482E+03  0.94064861572E+03  0.00000000000E+00 0. -1.
        -11    1    3    3    0    0  0.84786926342E+01  0.39525320389E+01  0.20953942149E+01  0.95865225822E+01  0.00000000000E+00 0.  1.
          4    1    6    6  502    0 -0.24797553803E+03 -0.34038065227E+03  0.37072593288E+03  0.56106022244E+03  0.00000000000E+00 0. -1.
          1    1    5    5  503    0  0.77451886146E+02  0.21125592661E+03 -0.15403331757E+03  0.27267952640E+03  0.00000000000E+00 0. -1.
         -2    1    5    5    0  503 -0.18109025757E+02  0.55233510683E+02 -0.24431818779E+02  0.63052290086E+02  0.00000000000E+00 0.  1.
         -3    1    6    6    0  502 -0.58268306224E+02 -0.27673041362E+02  0.50354135514E+02  0.81832338912E+02  0.00000000000E+00 0.  1.
<mgrwt>
<rscale>  0 0.15489997E+04</rscale>
<asrwt>0</asrwt>
<pdfrwt beam="1">  1        2 0.23678848E+00 0.15489997E+04</pdfrwt>
<pdfrwt beam="2">  1       -2 0.59959140E-01 0.15489997E+04</pdfrwt>
<totfact> 0.30119511E+01</totfact>
</mgrwt>
</event>
<event>
12    1  0.1442183E-007  0.1185741E+04  0.7818608E-02  0.9125430E-01
          2   -1    0    0  501    0  0.00000000000E+00  0.00000000000E+00  0.73264537488E+03  0.73264537488E+03  0.00000000000E+00 0. -1.
         -2   -1    0    0    0  501 -0.00000000000E+00 -0.00000000000E+00 -0.47976168550E+03  0.47976168550E+03  0.00000000000E+00 0.  1.
         23    2    1    2    0    0  0.36151134019E+02  0.95025333308E+02 -0.16645403906E+03  0.21573219835E+03  0.92177631911E+02 0.  0.
        254    2    1    2    0    0 -0.36151134019E+02 -0.95025333308E+02  0.41933772845E+03  0.99667486203E+03  0.89843192933E+03 0.  0.
        -24    2    4    4    0    0 -0.38792727430E+03  0.13881348384E+03  0.38635729192E+02  0.42185391265E+03  0.81922222918E+02 0.  0.
         24    2    4    4    0    0  0.35177614028E+03 -0.23383881715E+03  0.38070199926E+03  0.57482094938E+03  0.84012298661E+02 0.  0.
         11    1    3    3    0    0 -0.31264688193E+02  0.26316948021E+02 -0.53609200689E+02  0.67409264048E+02  0.00000000000E+00 0. -1.
        -11    1    3    3    0    0  0.67415822212E+02  0.68708385287E+02 -0.11284483837E+03  0.14832293431E+03  0.00000000000E+00 0.  1.
          4    1    6    6  502    0  0.35322271296E+03 -0.23160433978E+03  0.38381884929E+03  0.57072214275E+03  0.00000000000E+00 0. -1.
          3    1    5    5  503    0 -0.29433738742E+03  0.97700878301E+02  0.63701736935E+02  0.31660364897E+03  0.00000000000E+00 0. -1.
         -4    1    5    5    0  503 -0.93589886878E+02  0.41112605541E+02 -0.25066007743E+02  0.10525026368E+03  0.00000000000E+00 0.  1.
         -3    1    6    6    0  502 -0.14465726837E+01 -0.22344773725E+01 -0.31168500288E+01  0.40988066263E+01  0.00000000000E+00 0.  1.
<mgrwt>
<rscale>  0 0.11857406E+04</rscale>
<asrwt>0</asrwt>
<pdfrwt beam="1">  1        2 0.11271467E+00 0.11857406E+04</pdfrwt>
<pdfrwt beam="2">  1       -2 0.73809490E-01 0.11857406E+04</pdfrwt>
<totfact> 0.63192328E+01</totfact>
</mgrwt>
</event>
<event>
12    1  0.1442183E-007  0.1068661E+04  0.7818608E-02  0.9236287E-01
         -2   -1    0    0    0  501 -0.00000000000E+00  0.00000000000E+00  0.45225962464E+03  0.45225962464E+03  0.00000000000E+00 0.  1.
          2   -1    0    0  501    0  0.00000000000E+00 -0.00000000000E+00 -0.63129483653E+03  0.63129483653E+03  0.00000000000E+00 0. -1.
         23    2    1    2    0    0 -0.94260305232E+02  0.89562307868E+02 -0.44127794071E+02  0.16575829071E+03  0.92855460782E+02 0.  0.
        254    2    1    2    0    0  0.94260305232E+02 -0.89562307868E+02 -0.13490741782E+03  0.91779617045E+03  0.89846724313E+03 0.  0.
        -24    2    4    4    0    0  0.29433206601E+03 -0.35655394150E+03  0.12710106635E+03  0.48606653483E+03  0.79648709546E+02 0.  0.
         24    2    4    4    0    0 -0.20007176078E+03  0.26699163363E+03 -0.26200848417E+03  0.43172963562E+03  0.80179739373E+02 0.  0.
         13    1    3    3    0    0  0.24427228613E+01 -0.60177516233E+01  0.15865963158E+02  0.17143774862E+02  0.00000000000E+00 0.  1.
        -13    1    3    3    0    0 -0.96703028093E+02  0.95580059492E+02 -0.59993757229E+02  0.14861451585E+03  0.00000000000E+00 0. -1.
          4    1    6    6  502    0 -0.43708286131E+02  0.11599062982E+03 -0.11683478202E+03  0.17033674522E+03  0.00000000000E+00 0. -1.
          1    1    5    5  503    0  0.21504222944E+02 -0.28298763707E+02  0.34024877699E+02  0.49203088665E+02  0.00000000000E+00 0. -1.
         -2    1    5    5    0  503  0.27282784307E+03 -0.32825517780E+03  0.93076188650E+02  0.43686344617E+03  0.00000000000E+00 0.  1.
         -3    1    6    6    0  502 -0.15636347465E+03  0.15100100382E+03 -0.14517370215E+03  0.26139289040E+03  0.00000000000E+00 0.  1.
<mgrwt>
<rscale>  0 0.10686612E+04</rscale>
<asrwt>0</asrwt>
<pdfrwt beam="1">  1        2 0.97122283E-01 0.10686612E+04</pdfrwt>
<pdfrwt beam="2">  1       -2 0.69578404E-01 0.10686612E+04</pdfrwt>
<totfact> 0.87390055E+01</totfact>
</mgrwt>
</event>
<event>
12    1  0.1442183E-007  0.1876593E+04  0.7818608E-02  0.8666596E-01
         -2   -1    0    0    0  501 -0.00000000000E+00  0.00000000000E+00  0.37953537636E+03  0.37953537636E+03  0.00000000000E+00 0.  1.
          2   -1    0    0  501    0  0.00000000000E+00 -0.00000000000E+00 -0.23196798218E+04  0.23196798218E+04  0.00000000000E+00 0. -1.
         23    2    1    2    0    0  0.10232961350E+02 -0.86050028356E+02 -0.17797446677E+04  0.17842268732E+04  0.92006151261E+02 0.  0.
        254    2    1    2    0    0 -0.10232961350E+02  0.86050028356E+02 -0.16039977768E+03  0.91498832494E+03  0.89664163700E+03 0.  0.
        -24    2    4    4    0    0 -0.21689416701E+03  0.26485583789E+03 -0.40751258665E+03  0.53821288617E+03  0.80093120922E+02 0.  0.
         24    2    4    4    0    0  0.20666120566E+03 -0.17880580953E+03  0.24711280897E+03  0.37677543876E+03  0.78832857678E+02 0.  0.
         11    1    3    3    0    0  0.15937773213E+02 -0.97994374869E+02 -0.17268307572E+04  0.17296824489E+04  0.00000000000E+00 0. -1.
        -11    1    3    3    0    0 -0.57048118630E+01  0.11944346513E+02 -0.52913910586E+02  0.54544424330E+02  0.00000000000E+00 0.  1.
          4    1    6    6  502    0  0.24290584162E+02 -0.49590281266E+02  0.21678953477E+02  0.59322891861E+02  0.00000000000E+00 0. -1.
          3    1    5    5  503    0 -0.11107744207E+03  0.18550624559E+03 -0.21738709322E+03  0.30660709970E+03  0.00000000000E+00 0. -1.
         -4    1    5    5    0  503 -0.10581672495E+03  0.79349592299E+02 -0.19012549343E+03  0.23160578647E+03  0.00000000000E+00 0.  1.
         -3    1    6    6    0  502  0.18237062150E+03 -0.12921552826E+03  0.22543385549E+03  0.31745254690E+03  0.00000000000E+00 0.  1.
<mgrwt>
<rscale>  0 0.18765932E+04</rscale>
<asrwt>0</asrwt>
<pdfrwt beam="1">  1        2 0.35687382E+00 0.18765932E+04</pdfrwt>
<pdfrwt beam="2">  1       -2 0.58390058E-01 0.18765932E+04</pdfrwt>
<totfact> 0.11376605E+01</totfact>
</mgrwt>
</event>
<event>
12    1  0.1442183E-007  0.1083291E+04  0.7818608E-02  0.9221632E-01
          2   -1    0    0  501    0  0.00000000000E+00  0.00000000000E+00  0.55157187096E+03  0.55157187096E+03  0.00000000000E+00 0.  1.
         -2   -1    0    0    0  501 -0.00000000000E+00 -0.00000000000E+00 -0.53189775133E+03  0.53189775133E+03  0.00000000000E+00 0. -1.
         23    2    1    2    0    0  0.10430131255E+03  0.10719106590E+03  0.46023833977E+01  0.17481496505E+03  0.90390274168E+02 0.  0.
        254    2    1    2    0    0 -0.10430131255E+03 -0.10719106590E+03  0.15071736234E+02  0.90865465725E+03  0.89613472229E+03 0.  0.
        -24    2    4    4    0    0 -0.33129663939E+03  0.28573264775E+03  0.41728768999E+02  0.44707332729E+03  0.82052791261E+02 0.  0.
         24    2    4    4    0    0  0.22699532684E+03 -0.39292371365E+03 -0.26657032765E+02  0.46158132996E+03  0.80192291474E+02 0.  0.
         13    1    3    3    0    0  0.25162895731E+02  0.64143610638E+00  0.30544049233E+02  0.39579309056E+02  0.00000000000E+00 0.  1.
        -13    1    3    3    0    0  0.79138416815E+02  0.10654962979E+03 -0.25941665835E+02  0.13523565599E+03  0.00000000000E+00 0. -1.
          2    1    6    6  502    0  0.21677484668E+03 -0.35833000248E+03 -0.44829505216E+02  0.42119046686E+03  0.00000000000E+00 0. -1.
          1    1    5    5  503    0 -0.26764024436E+03  0.18348703364E+03  0.36102180477E+02  0.32649986118E+03  0.00000000000E+00 0. -1.
         -2    1    5    5    0  503 -0.63656395033E+02  0.10224561410E+03  0.56265885225E+01  0.12057346611E+03  0.00000000000E+00 0.  1.
         -1    1    6    6    0  502  0.10220480166E+02 -0.34593711165E+02  0.18172472451E+02  0.40390863100E+02  0.00000000000E+00 0.  1.
<mgrwt>
<rscale>  0 0.10832910E+04</rscale>
<asrwt>0</asrwt>
<pdfrwt beam="1">  1        2 0.84857211E-01 0.10832910E+04</pdfrwt>
<pdfrwt beam="2">  1       -2 0.81830423E-01 0.10832910E+04</pdfrwt>
<totfact> 0.71666115E+01</totfact>
</mgrwt>
</event>
<event>
12    1  0.1442183E-007  0.2810367E+04  0.7818608E-02  0.8300057E-01
          3   -1    0    0  501    0  0.00000000000E+00  0.00000000000E+00  0.18458064018E+04  0.18458064018E+04  0.00000000000E+00 0. -1.
         -3   -1    0    0    0  501 -0.00000000000E+00 -0.00000000000E+00 -0.10697445050E+04  0.10697445050E+04  0.00000000000E+00 0.  1.
         23    2    1    2    0    0 -0.43147313237E+03  0.11822472349E+04  0.36221921954E+03  0.13125898852E+04  0.88384701670E+02 0.  0.
        254    2    1    2    0    0  0.43147313237E+03 -0.11822472349E+04  0.41384267724E+03  0.16029610216E+04  0.90240827077E+03 0.  0.
        -24    2    4    4    0    0  0.21134682236E+02  0.10455683492E+03 -0.89810094157E+02  0.15923210783E+03  0.76877855249E+02 0.  0.
         24    2    4    4    0    0  0.41033845013E+03 -0.12868040698E+04  0.50365277140E+03  0.14437289138E+04  0.80278918905E+02 0.  0.
         13    1    3    3    0    0 -0.32681158060E+02  0.50704766181E+02  0.31646416237E+02  0.68121414153E+02  0.00000000000E+00 0. -1.
        -13    1    3    3    0    0 -0.39879197431E+03  0.11315424687E+04  0.33057280330E+03  0.12444684711E+04  0.00000000000E+00 0.  1.
          2    1    6    6  502    0  0.15207554711E+03 -0.44656462319E+03  0.13650642673E+03  0.49110176058E+03  0.00000000000E+00 0. -1.
          3    1    5    5  503    0  0.79167710813E+01 -0.10085155688E+02 -0.21772546248E+02  0.25267160500E+02  0.00000000000E+00 0. -1.
         -4    1    5    5    0  503  0.13217911155E+02  0.11464199061E+03 -0.68037547908E+02  0.13396494733E+03  0.00000000000E+00 0.  1.
         -1    1    6    6    0  502  0.25826290302E+03 -0.84023944659E+03  0.36714634467E+03  0.95262715324E+03  0.00000000000E+00 0.  1.
<mgrwt>
<rscale>  0 0.28103674E+04</rscale>
<asrwt>0</asrwt>
<pdfrwt beam="1">  1        3 0.28397022E+00 0.28103674E+04</pdfrwt>
<pdfrwt beam="2">  1       -3 0.16457608E+00 0.28103674E+04</pdfrwt>
<totfact> 0.27070934E-02</totfact>
</mgrwt>
</event>
<event>
12    1  0.1442183E-007  0.2001397E+04  0.7818608E-02  0.8605968E-01
          1   -1    0    0  501    0  0.00000000000E+00  0.00000000000E+00  0.12558129110E+04  0.12558129110E+04  0.00000000000E+00 0. -1.
         -1   -1    0    0    0  501 -0.00000000000E+00 -0.00000000000E+00 -0.79741001392E+03  0.79741001392E+03  0.00000000000E+00 0.  1.
         23    2    1    2    0    0  0.30431795540E+03 -0.11917037719E+03  0.92546727148E+03  0.98500807885E+03  0.83308151111E+02 0.  0.
        254    2    1    2    0    0 -0.30431795540E+03  0.11917037719E+03 -0.46706437440E+03  0.10682148461E+04  0.90339516866E+03 0.  0.
        -24    2    4    4    0    0 -0.22511957890E+03  0.50407555003E+03 -0.29824365673E+03  0.63267313236E+03  0.80963131700E+02 0.  0.
         24    2    4    4    0    0 -0.79198376502E+02 -0.38490517284E+03 -0.16882071767E+03  0.43554171370E+03  0.82290793779E+02 0.  0.
         11    1    3    3    0    0  0.29535448918E+03 -0.10567920744E+03  0.91024027507E+03  0.96277709130E+03  0.00000000000E+00 0. -1.
        -11    1    3    3    0    0  0.89634662199E+01 -0.13491169751E+02  0.15226996403E+02  0.22230987549E+02  0.00000000000E+00 0.  1.
          2    1    6    6  502    0 -0.93824827366E+02 -0.27932314707E+03 -0.11724632970E+03  0.31712965889E+03  0.00000000000E+00 0. -1.
          3    1    5    5  503    0 -0.22562408530E+03  0.47952208893E+03 -0.26845772335E+03  0.59406835538E+03  0.00000000000E+00 0. -1.
         -4    1    5    5    0  503  0.50450639873E+00  0.24553461099E+02 -0.29785933378E+02  0.38604776982E+02  0.00000000000E+00 0.  1.
         -1    1    6    6    0  502  0.14626450864E+02 -0.10558202577E+03 -0.51574387969E+02  0.11841205482E+03  0.00000000000E+00 0.  1.
<mgrwt>
<rscale>  0 0.20013973E+04</rscale>
<asrwt>0</asrwt>
<pdfrwt beam="1">  1        1 0.19320199E+00 0.20013973E+04</pdfrwt>
<pdfrwt beam="2">  1       -1 0.12267846E+00 0.20013973E+04</pdfrwt>
<totfact> 0.52929393E+00</totfact>
</mgrwt>
</event>
<event>
12    1  0.1442183E-007  0.2139236E+04  0.7818608E-02  0.8544154E-01
         -1   -1    0    0    0  501 -0.00000000000E+00  0.00000000000E+00  0.10795733204E+04  0.10795733204E+04  0.00000000000E+00 0.  1.
          1   -1    0    0  501    0  0.00000000000E+00 -0.00000000000E+00 -0.10597541353E+04  0.10597541353E+04  0.00000000000E+00 0. -1.
         23    2    1    2    0    0  0.14963710505E+03 -0.41405450173E+03  0.73199402104E+03  0.85887502154E+03  0.89546983057E+02 0.  0.
        254    2    1    2    0    0 -0.14963710505E+03  0.41405450173E+03 -0.71217483593E+03  0.12804524342E+04  0.96877915216E+03 0.  0.
        -24    2    4    4    0    0 -0.41323336074E+03  0.22998870480E+03 -0.80465074046E+03  0.93679992552E+03  0.80465343896E+02 0.  0.
         24    2    4    4    0    0  0.26359625569E+03  0.18406579693E+03  0.92475904529E+02  0.34365250866E+03  0.78626014634E+02 0.  0.
         13    1    3    3    0    0  0.14614482834E+03 -0.41078078212E+03  0.73396362065E+03  0.85369886860E+03  0.00000000000E+00 0.  1.
        -13    1    3    3    0    0  0.34922767057E+01 -0.32737196074E+01 -0.19695996065E+01  0.51761529409E+01  0.00000000000E+00 0. -1.
          4    1    6    6  502    0  0.21221199472E+03  0.10835232705E+03  0.79767680568E+02  0.25127085056E+03  0.00000000000E+00 0. -1.
          3    1    5    5  503    0 -0.13072643406E+03  0.11693055726E+03 -0.29996421352E+03  0.34747760385E+03  0.00000000000E+00 0. -1.
         -4    1    5    5    0  503 -0.28250692667E+03  0.11305814754E+03 -0.50468652694E+03  0.58932232167E+03  0.00000000000E+00 0.  1.
         -3    1    6    6    0  502  0.51384260973E+02  0.75713469879E+02  0.12708223961E+02  0.92381658099E+02  0.00000000000E+00 0.  1.
<mgrwt>
<rscale>  0 0.21392356E+04</rscale>
<asrwt>0</asrwt>
<pdfrwt beam="1">  1        1 0.16303910E+00 0.21392356E+04</pdfrwt>
<pdfrwt beam="2">  1       -1 0.16608820E+00 0.21392356E+04</pdfrwt>
<totfact> 0.32795766E+00</totfact>
</mgrwt>
</event>
<event>
12    1  0.1442183E-007  0.1869119E+04  0.7818608E-02  0.8670382E-01
          1   -1    0    0  501    0  0.00000000000E+00  0.00000000000E+00  0.22069130489E+04  0.22069130489E+04  0.00000000000E+00 0. -1.
         -1   -1    0    0    0  501 -0.00000000000E+00 -0.00000000000E+00 -0.39575702532E+03  0.39575702532E+03  0.00000000000E+00 0.  1.
         23    2    1    2    0    0  0.55920531150E+03 -0.95092379571E+02  0.92009028869E+02  0.58190205301E+03  0.91603476153E+02 0.  0.
        254    2    1    2    0    0 -0.55920531150E+03  0.95092379571E+02  0.17191469947E+04  0.20207680212E+04  0.89793310725E+03 0.  0.
        -24    2    4    4    0    0  0.10954790614E+03 -0.25568715365E+03  0.33391372157E+03  0.44134772130E+03  0.76894560056E+02 0.  0.
         24    2    4    4    0    0 -0.66875321764E+03  0.35077953322E+03  0.13852332732E+04  0.15794202999E+04  0.73621435396E+02 0.  0.
         13    1    3    3    0    0  0.52303034778E+03 -0.64161086882E+02  0.86150738814E+02  0.53394694453E+03  0.00000000000E+00 0.  1.
        -13    1    3    3    0    0  0.36174963716E+02 -0.30931292689E+02  0.58582900555E+01  0.47955108484E+02  0.00000000000E+00 0. -1.
          2    1    6    6  502    0 -0.29637630486E+03  0.13588514362E+03  0.53134638334E+03  0.62340409481E+03  0.00000000000E+00 0. -1.
          3    1    5    5  503    0 -0.58349607470E+01 -0.38118271679E+02  0.73032717636E+02  0.82588299704E+02  0.00000000000E+00 0. -1.
         -4    1    5    5    0  503  0.11538286689E+03 -0.21756888197E+03  0.26088100393E+03  0.35875942160E+03  0.00000000000E+00 0.  1.
         -1    1    6    6    0  502 -0.37237691278E+03  0.21489438960E+03  0.85388688983E+03  0.95601620513E+03  0.00000000000E+00 0.  1.
<mgrwt>
<rscale>  0 0.18691189E+04</rscale>
<asrwt>0</asrwt>
<pdfrwt beam="1">  1        1 0.33952508E+00 0.18691189E+04</pdfrwt>
<pdfrwt beam="2">  1       -1 0.60885697E-01 0.18691189E+04</pdfrwt>
<totfact> 0.55319146E+00</totfact>
</mgrwt>
</event>
<event>
12    1  0.1442183E-007  0.1207146E+04  0.7818608E-02  0.9106625E-01
         -2   -1    0    0    0  501 -0.00000000000E+00  0.00000000000E+00  0.24723259835E+03  0.24723259835E+03  0.00000000000E+00 0.  1.
          2   -1    0    0  501    0  0.00000000000E+00 -0.00000000000E+00 -0.14735117514E+04  0.14735117514E+04  0.00000000000E+00 0. -1.
         23    2    1    2    0    0  0.15545088555E+03 -0.11530369818E+03 -0.49400446070E+03  0.53815425509E+03  0.90053730858E+02 0.  0.
        254    2    1    2    0    0 -0.15545088555E+03  0.11530369818E+03 -0.73227469231E+03  0.11825900946E+04  0.90820327366E+03 0.  0.
        -24    2    4    4    0    0  0.35673455878E+03 -0.79370071257E+02 -0.28171567423E+03  0.46853518818E+03  0.81254832590E+02 0.  0.
         24    2    4    4    0    0 -0.51218544433E+03  0.19467376943E+03 -0.45055901808E+03  0.71405490644E+03  0.81481131236E+02 0.  0.
         13    1    3    3    0    0  0.13044351324E+03 -0.11163258150E+03 -0.47881455912E+03  0.50866563224E+03  0.00000000000E+00 0. -1.
        -13    1    3    3    0    0  0.25007372304E+02 -0.36711166758E+01 -0.15189901589E+02  0.29488622848E+02  0.00000000000E+00 0.  1.
          2    1    6    6  502    0 -0.41927025425E+03  0.15285835184E+03 -0.40423091927E+03  0.60212611463E+03  0.00000000000E+00 0. -1.
          1    1    5    5  503    0  0.15083481559E+03 -0.40565613436E+02 -0.71664720921E+02  0.17185035005E+03  0.00000000000E+00 0. -1.
         -2    1    5    5    0  503  0.20589974319E+03 -0.38804457821E+02 -0.21005095330E+03  0.29668483813E+03  0.00000000000E+00 0.  1.
         -1    1    6    6    0  502 -0.92915190084E+02  0.41815417594E+02 -0.46328098808E+02  0.11192879181E+03  0.00000000000E+00 0.  1.
<mgrwt>
<rscale>  0 0.12071456E+04</rscale>
<asrwt>0</asrwt>
<pdfrwt beam="1">  1        2 0.22669412E+00 0.12071456E+04</pdfrwt>
<pdfrwt beam="2">  1       -2 0.38035784E-01 0.12071456E+04</pdfrwt>
<totfact> 0.84512978E+01</totfact>
</mgrwt>
</event>
<event>
12    1  0.1442183E-007  0.1915468E+04  0.7818608E-02  0.8647195E-01
         -1   -1    0    0    0  501 -0.00000000000E+00  0.00000000000E+00  0.10645451264E+04  0.10645451264E+04  0.00000000000E+00 0.  1.
          1   -1    0    0  501    0  0.00000000000E+00 -0.00000000000E+00 -0.86163983605E+03  0.86163983605E+03  0.00000000000E+00 0. -1.
         23    2    1    2    0    0 -0.15443759688E+03  0.46292195320E+03  0.63890730338E+03  0.80934874282E+03  0.93247729812E+02 0.  0.
        254    2    1    2    0    0  0.15443759688E+03 -0.46292195320E+03 -0.43600201305E+03  0.11168362196E+04  0.90502910449E+03 0.  0.
        -24    2    4    4    0    0  0.10103910134E+03  0.24960298870E+03 -0.10044616978E+02  0.28111758191E+03  0.80097743814E+02 0.  0.
         24    2    4    4    0    0  0.53398495536E+02 -0.71252494190E+03 -0.42595739607E+03  0.83571863770E+03  0.80266717714E+02 0.  0.
         13    1    3    3    0    0 -0.28480618032E+01  0.64870479391E+00  0.29157186037E+02  0.29303135866E+02  0.00000000000E+00 0. -1.
        -13    1    3    3    0    0 -0.15158953508E+03  0.46227324841E+03  0.60975011734E+03  0.78004560696E+03  0.00000000000E+00 0.  1.
          2    1    6    6  502    0  0.33222830373E+02 -0.30340719273E+03 -0.22676003936E+03  0.38023650076E+03  0.00000000000E+00 0. -1.
          3    1    5    5  503    0  0.10673576901E+03  0.17124053256E+03  0.94221701666E+00  0.20178387485E+03  0.00000000000E+00 0. -1.
         -4    1    5    5    0  503 -0.56966676722E+01  0.78362456139E+02 -0.10986833994E+02  0.79333707060E+02  0.00000000000E+00 0.  1.
         -1    1    6    6    0  502  0.20175665163E+02 -0.40911774917E+03 -0.19919735671E+03  0.45548213694E+03  0.00000000000E+00 0.  1.
<mgrwt>
<rscale>  0 0.19154681E+04</rscale>
<asrwt>0</asrwt>
<pdfrwt beam="1">  1        1 0.13255998E+00 0.19154681E+04</pdfrwt>
<pdfrwt beam="2">  1       -1 0.16377617E+00 0.19154681E+04</pdfrwt>
<totfact> 0.50076558E+00</totfact>
</mgrwt>
</event>
<event>
12    1  0.1442183E-007  0.1201344E+04  0.7818608E-02  0.9111681E-01
         -2   -1    0    0    0  501 -0.00000000000E+00  0.00000000000E+00  0.11250097966E+04  0.11250097966E+04  0.00000000000E+00 0.  1.
          2   -1    0    0  501    0  0.00000000000E+00 -0.00000000000E+00 -0.32071451514E+03  0.32071451514E+03  0.00000000000E+00 0. -1.
         23    2    1    2    0    0 -0.19760043056E+03  0.12678035579E+03  0.52855471988E+02  0.25752475656E+03  0.91684843632E+02 0.  0.
        254    2    1    2    0    0  0.19760043056E+03 -0.12678035579E+03  0.75143980949E+03  0.11881995552E+04  0.88996472230E+03 0.  0.
        -24    2    4    4    0    0  0.18065089176E+03 -0.10642688987E+03  0.94783186628E+03  0.97397626700E+03  0.79265972293E+02 0.  0.
         24    2    4    4    0    0  0.16949538798E+02 -0.20353465920E+02 -0.19639205679E+03  0.21422328820E+03  0.81364776145E+02 0.  0.
         11    1    3    3    0    0 -0.20066328252E+03  0.98391660420E+02  0.46605782141E+02  0.22829535852E+03  0.00000000000E+00 0. -1.
        -11    1    3    3    0    0  0.30628519607E+01  0.28388695366E+02  0.62496898471E+01  0.29229398042E+02  0.00000000000E+00 0.  1.
          2    1    6    6  502    0 -0.74513361508E+01  0.24300961291E+02 -0.11840841117E+03  0.12110578420E+03  0.00000000000E+00 0. -1.
          1    1    5    5  503    0  0.14883920358E+03 -0.56823084995E+02  0.58126441138E+03  0.60270248668E+03  0.00000000000E+00 0. -1.
         -2    1    5    5    0  503  0.31811688177E+02 -0.49603804871E+02  0.36656745490E+03  0.37127378033E+03  0.00000000000E+00 0.  1.
         -1    1    6    6    0  502  0.24400874949E+02 -0.44654427211E+02 -0.77983645619E+02  0.93117504003E+02  0.00000000000E+00 0.  1.
<mgrwt>
<rscale>  0 0.12013442E+04</rscale>
<asrwt>0</asrwt>
<pdfrwt beam="1">  1        2 0.49340695E-01 0.12013442E+04</pdfrwt>
<pdfrwt beam="2">  1       -2 0.17307843E+00 0.12013442E+04</pdfrwt>
<totfact> 0.20355810E+01</totfact>
</mgrwt>
</event>
<event>
12    1  0.1442183E-007  0.1929469E+04  0.7818608E-02  0.8640325E-01
         -2   -1    0    0    0  501 -0.00000000000E+00  0.00000000000E+00  0.49723232632E+03  0.49723232632E+03  0.00000000000E+00 0.  1.
          2   -1    0    0  501    0  0.00000000000E+00 -0.00000000000E+00 -0.18717859602E+04  0.18717859602E+04  0.00000000000E+00 0. -1.
         23    2    1    2    0    0  0.55452173438E+03  0.29375053288E+02 -0.11834334683E+04  0.13104973295E+04  0.92364652848E+02 0.  0.
        254    2    1    2    0    0 -0.55452173438E+03 -0.29375053288E+02 -0.19112016567E+03  0.10585209571E+04  0.88067159103E+03 0.  0.
        -24    2    4    4    0    0  0.23093457502E+02 -0.96935631753E+02  0.27847290273E+03  0.30687423047E+03  0.81821826455E+02 0.  0.
         24    2    4    4    0    0 -0.57761519188E+03  0.67560578465E+02 -0.46959306841E+03  0.75164672663E+03  0.79065859339E+02 0.  0.
         13    1    3    3    0    0  0.18866959066E+03 -0.31216047911E+02 -0.43749804692E+03  0.47746748281E+03  0.00000000000E+00 0. -1.
        -13    1    3    3    0    0  0.36585214371E+03  0.60591101199E+02 -0.74593542134E+03  0.83302984665E+03  0.00000000000E+00 0.  1.
          4    1    6    6  502    0 -0.54605506940E+03  0.73680917885E+02 -0.42121519762E+03  0.69356128726E+03  0.00000000000E+00 0. -1.
          1    1    5    5  503    0  0.48810079258E+02 -0.87467278357E+02  0.19857458649E+03  0.22240686820E+03  0.00000000000E+00 0. -1.
         -2    1    5    5    0  503 -0.25716621756E+02 -0.94683533960E+01  0.79898316241E+02  0.84467362270E+02  0.00000000000E+00 0.  1.
         -3    1    6    6    0  502 -0.31560122476E+02 -0.61203394200E+01 -0.48377870789E+02  0.58085439375E+02  0.00000000000E+00 0.  1.
<mgrwt>
<rscale>  0 0.19294688E+04</rscale>
<asrwt>0</asrwt>
<pdfrwt beam="1">  1        2 0.28796707E+00 0.19294688E+04</pdfrwt>
<pdfrwt beam="2">  1       -2 0.76497282E-01 0.19294688E+04</pdfrwt>
<totfact> 0.11239107E+01</totfact>
</mgrwt>
</event>
<event>
12    1  0.1442183E-007  0.1227295E+04  0.7818608E-02  0.9089295E-01
          2   -1    0    0  501    0  0.00000000000E+00  0.00000000000E+00  0.55807622009E+03  0.55807622009E+03  0.00000000000E+00 0. -1.
         -2   -1    0    0    0  501 -0.00000000000E+00 -0.00000000000E+00 -0.67475285550E+03  0.67475285550E+03  0.00000000000E+00 0.  1.
         23    2    1    2    0    0 -0.80039595164E+02  0.91515188448E+02 -0.26887039385E+03  0.30887983972E+03  0.91291293045E+02 0.  0.
        254    2    1    2    0    0  0.80039595164E+02 -0.91515188448E+02  0.15219375844E+03  0.92394923587E+03  0.90318208787E+03 0.  0.
        -24    2    4    4    0    0 -0.27005601725E+03  0.27884926124E+03  0.70301179496E+02  0.40166158462E+03  0.75515626068E+02 0.  0.
         24    2    4    4    0    0  0.35009561241E+03 -0.37036444968E+03  0.81892578945E+02  0.52228765125E+03  0.79631857560E+02 0.  0.
         13    1    3    3    0    0 -0.90023695861E+02  0.74387261523E+02 -0.26368456433E+03  0.28838737829E+03  0.00000000000E+00 0.  1.
        -13    1    3    3    0    0  0.99841006963E+01  0.17127926925E+02 -0.51858295179E+01  0.20492461425E+02  0.00000000000E+00 0. -1.
          4    1    6    6  502    0  0.70671434029E+02 -0.35690335007E+02  0.30630041205E+01  0.79231518948E+02  0.00000000000E+00 0. -1.
          3    1    5    5  503    0 -0.93520787274E+02  0.11068427960E+03  0.62271344964E+02  0.15771768387E+03  0.00000000000E+00 0. -1.
         -4    1    5    5    0  503 -0.17653522997E+03  0.16816498164E+03  0.80298345317E+01  0.24394390075E+03  0.00000000000E+00 0.  1.
         -3    1    6    6    0  502  0.27942417838E+03 -0.33467411468E+03  0.78829574824E+02  0.44305613230E+03  0.00000000000E+00 0.  1.
<mgrwt>
<rscale>  0 0.12272954E+04</rscale>
<asrwt>0</asrwt>
<pdfrwt beam="1">  1        2 0.85857880E-01 0.12272954E+04</pdfrwt>
<pdfrwt beam="2">  1       -2 0.10380813E+00 0.12272954E+04</pdfrwt>
<totfact> 0.40269401E+01</totfact>
</mgrwt>
</event>
<event>
12    1  0.1442183E-007  0.2448052E+04  0.7818608E-02  0.8421730E-01
          1   -1    0    0  501    0  0.00000000000E+00  0.00000000000E+00  0.33210960814E+04  0.33210960814E+04  0.00000000000E+00 0. -1.
         -1   -1    0    0    0  501 -0.00000000000E+00 -0.00000000000E+00 -0.45112799030E+03  0.45112799030E+03  0.00000000000E+00 0.  1.
         23    2    1    2    0    0 -0.34943241668E+03 -0.57130133524E+03  0.24935395862E+04  0.25837145230E+04  0.96710076507E+02 0.  0.
        254    2    1    2    0    0  0.34943241668E+03  0.57130133524E+03  0.37642850495E+03  0.11885095487E+04  0.90684524515E+03 0.  0.
        -24    2    4    4    0    0  0.12317107247E+03  0.24800773680E+03 -0.29060007212E+03  0.40948537979E+03  0.80937776980E+02 0.  0.
         24    2    4    4    0    0  0.22626134420E+03  0.32329359844E+03  0.66702857707E+03  0.77902416896E+03  0.78984723318E+02 0.  0.
         13    1    3    3    0    0 -0.19133438082E+03 -0.22440972821E+03  0.10378606955E+04  0.10789455013E+04  0.00000000000E+00 0.  1.
        -13    1    3    3    0    0 -0.15809803586E+03 -0.34689160704E+03  0.14556788906E+04  0.15047690217E+04  0.00000000000E+00 0. -1.
          2    1    6    6  502    0  0.10282233917E+03  0.84326171027E+02  0.20291303167E+03  0.24260468869E+03  0.00000000000E+00 0. -1.
          1    1    5    5  503    0 -0.71503248877E+01  0.14541007779E+02 -0.39465670439E+02  0.42662714358E+02  0.00000000000E+00 0. -1.
         -2    1    5    5    0  503  0.13032139736E+03  0.23346672902E+03 -0.25113440168E+03  0.36682266543E+03  0.00000000000E+00 0.  1.
         -1    1    6    6    0  502  0.12343900503E+03  0.23896742742E+03  0.46411554540E+03  0.53641948027E+03  0.00000000000E+00 0.  1.
<mgrwt>
<rscale>  0 0.24480518E+04</rscale>
<asrwt>0</asrwt>
<pdfrwt beam="1">  1        1 0.51093784E+00 0.24480518E+04</pdfrwt>
<pdfrwt beam="2">  1       -1 0.69404308E-01 0.24480518E+04</pdfrwt>
<totfact> 0.64530265E-01</totfact>
</mgrwt>
</event>
<event>
12    1  0.1442183E-007  0.1193901E+04  0.7818608E-02  0.9118211E-01
         -1   -1    0    0    0  501 -0.00000000000E+00  0.00000000000E+00  0.49410920265E+03  0.49410920265E+03  0.00000000000E+00 0.  1.
          1   -1    0    0  501    0  0.00000000000E+00 -0.00000000000E+00 -0.72119708836E+03  0.72119708836E+03  0.00000000000E+00 0. -1.
         23    2    1    2    0    0  0.20549003439E+03  0.12946489232E+03 -0.38362008515E+02  0.26193001450E+03  0.90268356705E+02 0.  0.
        254    2    1    2    0    0 -0.20549003439E+03 -0.12946489232E+03 -0.18872587720E+03  0.95337627650E+03  0.90239767026E+03 0.  0.
        -24    2    4    4    0    0 -0.23124797951E+03 -0.49250017986E+03 -0.37058234164E+02  0.55128745955E+03  0.80700031925E+02 0.  0.
         24    2    4    4    0    0  0.25757945121E+02  0.36303528754E+03 -0.15166764303E+03  0.40208881695E+03  0.78830520982E+02 0.  0.
         13    1    3    3    0    0  0.31691670104E+02 -0.40274508274E+01  0.16589248671E+02  0.35997020510E+02  0.00000000000E+00 0.  1.
        -13    1    3    3    0    0  0.17379836429E+03  0.13349234314E+03 -0.54951257187E+02  0.22593299399E+03  0.00000000000E+00 0. -1.
          2    1    6    6  502    0  0.82858925057E+01  0.33476565661E+03 -0.11871662096E+03  0.35528908927E+03  0.00000000000E+00 0. -1.
          3    1    5    5  503    0 -0.17229375252E+03 -0.38656628944E+03 -0.61339755629E+02  0.42764611411E+03  0.00000000000E+00 0. -1.
         -4    1    5    5    0  503 -0.58954226996E+02 -0.10593389041E+03  0.24281521465E+02  0.12364134544E+03  0.00000000000E+00 0.  1.
         -1    1    6    6    0  502  0.17472052616E+02  0.28269630927E+02 -0.32951022075E+02  0.46799727683E+02  0.00000000000E+00 0.  1.
<mgrwt>
<rscale>  0 0.11939014E+04</rscale>
<asrwt>0</asrwt>
<pdfrwt beam="1">  1        1 0.11095340E+00 0.11939014E+04</pdfrwt>
<pdfrwt beam="2">  1       -1 0.76016801E-01 0.11939014E+04</pdfrwt>
<totfact> 0.44811190E+01</totfact>
</mgrwt>
</event>
<event>
12    1  0.1442183E-007  0.1798456E+04  0.7818608E-02  0.8707121E-01
          1   -1    0    0  501    0  0.00000000000E+00  0.00000000000E+00  0.10930533047E+04  0.10930533047E+04  0.00000000000E+00 0. -1.
         -1   -1    0    0    0  501 -0.00000000000E+00 -0.00000000000E+00 -0.73977244877E+03  0.73977244877E+03  0.00000000000E+00 0.  1.
         23    2    1    2    0    0 -0.11875223125E+03  0.14608461249E+03  0.79683734312E+03  0.82331556298E+03  0.86347891765E+02 0.  0.
        254    2    1    2    0    0  0.11875223125E+03 -0.14608461249E+03 -0.44355648717E+03  0.10095101905E+04  0.88708830509E+03 0.  0.
        -24    2    4    4    0    0  0.23652796563E+03 -0.15450538445E+03 -0.67586262695E+03  0.73675482930E+03  0.78740051026E+02 0.  0.
         24    2    4    4    0    0 -0.11777573438E+03  0.84207719587E+01  0.23230613978E+03  0.27275536122E+03  0.80543848211E+02 0.  0.
         11    1    3    3    0    0 -0.75194252789E+02  0.40844982112E+02  0.23613090047E+03  0.25115789929E+03  0.00000000000E+00 0.  1.
        -11    1    3    3    0    0 -0.43557978458E+02  0.10523963038E+03  0.56070644265E+03  0.57215766369E+03  0.00000000000E+00 0. -1.
          4    1    6    6  502    0 -0.11670837495E+03  0.87945579637E+01  0.14913716946E+03  0.18957870225E+03  0.00000000000E+00 0. -1.
          3    1    5    5  503    0  0.27862183193E+02 -0.22077397668E+01 -0.29294302278E+02  0.40488659068E+02  0.00000000000E+00 0. -1.
         -4    1    5    5    0  503  0.20866578243E+03 -0.15229764469E+03 -0.64656832468E+03  0.69626617023E+03  0.00000000000E+00 0.  1.
         -3    1    6    6    0  502 -0.10673594270E+01 -0.37378600506E+00  0.83168970325E+02  0.83176658968E+02  0.00000000000E+00 0.  1.
<mgrwt>
<rscale>  0 0.17984557E+04</rscale>
<asrwt>0</asrwt>
<pdfrwt beam="1">  1        1 0.16816205E+00 0.17984557E+04</pdfrwt>
<pdfrwt beam="2">  1       -1 0.11381115E+00 0.17984557E+04</pdfrwt>
<totfact> 0.85239476E+00</totfact>
</mgrwt>
</event>
<event>
12    1  0.1442183E-007  0.1704969E+04  0.7818608E-02  0.8758536E-01
          2   -1    0    0  501    0  0.00000000000E+00  0.00000000000E+00  0.17119801201E+04  0.17119801201E+04  0.00000000000E+00 0. -1.
         -2   -1    0    0    0  501 -0.00000000000E+00 -0.00000000000E+00 -0.42449653934E+03  0.42449653934E+03  0.00000000000E+00 0.  1.
         23    2    1    2    0    0 -0.98142976632E+02 -0.24792037706E+03  0.11415478186E+04  0.11754639593E+04  0.86530573903E+02 0.  0.
        254    2    1    2    0    0  0.98142976632E+02  0.24792037706E+03  0.14593576211E+03  0.96101270009E+03  0.91167516466E+03 0.  0.
        -24    2    4    4    0    0 -0.12964344028E+03  0.54454872441E+03  0.11851978497E+03  0.57748540528E+03  0.78113500906E+02 0.  0.
         24    2    4    4    0    0  0.22778641691E+03 -0.29662834734E+03  0.27415977133E+02  0.38352729481E+03  0.80414687018E+02 0.  0.
         11    1    3    3    0    0 -0.83735196688E+02 -0.24460083423E+03  0.99017356295E+03  0.10233693546E+04  0.00000000000E+00 0. -1.
        -11    1    3    3    0    0 -0.14407779944E+02 -0.33195428302E+01  0.15137425568E+03  0.15209460467E+03  0.00000000000E+00 0.  1.
          4    1    6    6  502    0  0.22221640152E+03 -0.26870683384E+03  0.74774705460E+01  0.34876841059E+03  0.00000000000E+00 0. -1.
          1    1    5    5  503    0 -0.59138538409E+02  0.39091699794E+03  0.96941224650E+02  0.40707624229E+03  0.00000000000E+00 0. -1.
         -2    1    5    5    0  503 -0.70504901869E+02  0.15363172647E+03  0.21578560324E+02  0.17040916299E+03  0.00000000000E+00 0.  1.
         -3    1    6    6    0  502  0.55700153883E+01 -0.27921513497E+02  0.19938506587E+02  0.34758884221E+02  0.00000000000E+00 0.  1.
<mgrwt>
<rscale>  0 0.17049688E+04</rscale>
<asrwt>0</asrwt>
<pdfrwt beam="1">  1        2 0.26338155E+00 0.17049688E+04</pdfrwt>
<pdfrwt beam="2">  1       -2 0.65307161E-01 0.17049688E+04</pdfrwt>
<totfact> 0.19849692E+01</totfact>
</mgrwt>
</event>
<event>
12    1  0.1442183E-007  0.1557859E+04  0.7818608E-02  0.8846864E-01
          2   -1    0    0  501    0  0.00000000000E+00  0.00000000000E+00  0.13515233800E+04  0.13515233800E+04  0.00000000000E+00 0. -1.
         -2   -1    0    0    0  501 -0.00000000000E+00 -0.00000000000E+00 -0.44892380102E+03  0.44892380102E+03  0.00000000000E+00 0.  1.
         23    2    1    2    0    0  0.13191214839E+03  0.27571006835E+03  0.77773208844E+03  0.84028001741E+03  0.88240861251E+02 0.  0.
        254    2    1    2    0    0 -0.13191214839E+03 -0.27571006835E+03  0.12486749055E+03  0.96016716362E+03  0.90161645682E+03 0.  0.
        -24    2    4    4    0    0 -0.70030447677E+01  0.31968497132E+03  0.10501224098E+03  0.34627450572E+03  0.81430578003E+02 0.  0.
         24    2    4    4    0    0 -0.12490910362E+03 -0.59539503967E+03  0.19855249578E+02  0.61389265789E+03  0.79827483031E+02 0.  0.
         13    1    3    3    0    0  0.25273869801E+02  0.10620721984E+03  0.18710053297E+03  0.21662260149E+03  0.00000000000E+00 0.  1.
        -13    1    3    3    0    0  0.10663827859E+03  0.16950284850E+03  0.59063155547E+03  0.62365741592E+03  0.00000000000E+00 0. -1.
          4    1    6    6  502    0 -0.20954244291E+02 -0.11387398996E+03  0.35264935864E+02  0.12103710855E+03  0.00000000000E+00 0. -1.
          1    1    5    5  503    0 -0.17823155540E+02  0.71216995914E+02  0.57083430553E+02  0.92994856977E+02  0.00000000000E+00 0. -1.
         -2    1    5    5    0  503  0.10820110772E+02  0.24846797541E+03  0.47928810423E+02  0.25327964875E+03  0.00000000000E+00 0.  1.
         -3    1    6    6    0  502 -0.10395485933E+03 -0.48152104970E+03 -0.15409686286E+02  0.49285554934E+03  0.00000000000E+00 0.  1.
<mgrwt>
<rscale>  0 0.15578588E+04</rscale>
<asrwt>0</asrwt>
<pdfrwt beam="1">  1        2 0.20792667E+00 0.15578588E+04</pdfrwt>
<pdfrwt beam="2">  1       -2 0.69065201E-01 0.15578588E+04</pdfrwt>
<totfact> 0.28416057E+01</totfact>
</mgrwt>
</event>
<event>
12    1  0.1442183E-007  0.3512876E+04  0.7818608E-02  0.8110745E-01
          2   -1    0    0  501    0  0.00000000000E+00  0.00000000000E+00  0.30415470842E+04  0.30415470842E+04  0.00000000000E+00 0.  1.
         -2   -1    0    0    0  501 -0.00000000000E+00 -0.00000000000E+00 -0.10143109141E+04  0.10143109141E+04  0.00000000000E+00 0. -1.
         23    2    1    2    0    0  0.50099541114E+03  0.87236773847E+03  0.24434056644E+04  0.26439911522E+04  0.91848237645E+02 0.  0.
        254    2    1    2    0    0 -0.50099541114E+03 -0.87236773847E+03 -0.41616949433E+03  0.14118668460E+04  0.89897111734E+03 0.  0.
        -24    2    4    4    0    0  0.23335861582E+03 -0.40431280793E+03 -0.11768723142E+03  0.48777488768E+03  0.78415345319E+02 0.  0.
         24    2    4    4    0    0 -0.73435402695E+03 -0.46805493055E+03 -0.29848226292E+03  0.92409195836E+03  0.80641374698E+02 0.  0.
         11    1    3    3    0    0  0.36498101114E+03  0.70006896716E+03  0.19626228675E+04  0.21154659575E+04  0.00000000000E+00 0.  1.
        -11    1    3    3    0    0  0.13601439999E+03  0.17229877131E+03  0.48078279694E+03  0.52852519470E+03  0.00000000000E+00 0. -1.
          2    1    6    6  502    0 -0.58875424994E+03 -0.34269950217E+03 -0.25265764986E+03  0.72657443090E+03  0.00000000000E+00 0. -1.
          1    1    5    5  503    0  0.22371650259E+03 -0.38992458058E+03 -0.95411805390E+02  0.45955811893E+03  0.00000000000E+00 0. -1.
         -2    1    5    5    0  503  0.96421132264E+01 -0.14388227351E+02 -0.22275426028E+02  0.28216768746E+02  0.00000000000E+00 0.  1.
         -1    1    6    6    0  502 -0.14559977701E+03 -0.12535542838E+03 -0.45824613059E+02  0.19751752745E+03  0.00000000000E+00 0.  1.
<mgrwt>
<rscale>  0 0.35128760E+04</rscale>
<asrwt>0</asrwt>
<pdfrwt beam="1">  1        2 0.46793032E+00 0.35128760E+04</pdfrwt>
<pdfrwt beam="2">  1       -2 0.15604783E+00 0.35128760E+04</pdfrwt>
<totfact> 0.36248173E-01</totfact>
</mgrwt>
</event>
<event>
12    1  0.1442183E-007  0.1611725E+04  0.7818608E-02  0.8813377E-01
         -2   -1    0    0    0  501 -0.00000000000E+00  0.00000000000E+00  0.49579746156E+03  0.49579746156E+03  0.00000000000E+00 0. -1.
          2   -1    0    0  501    0  0.00000000000E+00 -0.00000000000E+00 -0.13098373956E+04  0.13098373956E+04  0.00000000000E+00 0.  1.
         23    2    1    2    0    0  0.33078683300E+03  0.11533199432E+03 -0.71345713066E+03  0.79970594369E+03  0.88244667161E+02 0.  0.
        254    2    1    2    0    0 -0.33078683300E+03 -0.11533199432E+03 -0.10058280335E+03  0.10059289134E+04  0.93757915972E+03 0.  0.
        -24    2    4    4    0    0 -0.57406890498E+03 -0.32670849042E+03 -0.10487799169E+03  0.67373091751E+03  0.81365906172E+02 0.  0.
         24    2    4    4    0    0  0.24328207198E+03  0.21137649610E+03  0.42951883418E+01  0.33219799592E+03  0.80441719318E+02 0.  0.
         11    1    3    3    0    0  0.15782827591E+03  0.51115720220E+02 -0.43611725867E+03  0.46660566311E+03  0.00000000000E+00 0. -1.
        -11    1    3    3    0    0  0.17295855710E+03  0.64216274101E+02 -0.27733987198E+03  0.33310028058E+03  0.00000000000E+00 0.  1.
          4    1    6    6  502    0  0.95253970887E+02  0.51446455703E+02  0.31090042912E+02  0.11263501917E+03  0.00000000000E+00 0. -1.
          3    1    5    5  503    0 -0.21534831999E+03 -0.81589140957E+02 -0.51706982031E+02  0.23601970010E+03  0.00000000000E+00 0. -1.
         -4    1    5    5    0  503 -0.35872058500E+03 -0.24511934946E+03 -0.53171009661E+02  0.43771121741E+03  0.00000000000E+00 0.  1.
         -3    1    6    6    0  502  0.14802810109E+03  0.15993004039E+03 -0.26794854570E+02  0.21956297676E+03  0.00000000000E+00 0.  1.
<mgrwt>
<rscale>  0 0.16117246E+04</rscale>
<asrwt>0</asrwt>
<pdfrwt beam="1">  1        2 0.20151345E+00 0.16117246E+04</pdfrwt>
<pdfrwt beam="2">  1       -2 0.76276533E-01 0.16117246E+04</pdfrwt>
<totfact> 0.24040783E+01</totfact>
</mgrwt>
</event>
<event>
12    1  0.1442183E-007  0.1890144E+04  0.7818608E-02  0.8659778E-01
          2   -1    0    0  501    0  0.00000000000E+00  0.00000000000E+00  0.49674841877E+03  0.49674841877E+03  0.00000000000E+00 0. -1.
         -2   -1    0    0    0  501 -0.00000000000E+00 -0.00000000000E+00 -0.17980150642E+04  0.17980150642E+04  0.00000000000E+00 0.  1.
         23    2    1    2    0    0  0.93879737769E+02 -0.83228113230E+02 -0.13917297056E+04  0.14002363367E+04  0.89498050960E+02 0.  0.
        254    2    1    2    0    0 -0.93879737769E+02  0.83228113230E+02  0.90463060138E+02  0.89452714631E+03  0.88105330500E+03 0.  0.
        -24    2    4    4    0    0 -0.40847272792E+03 -0.70288516125E+02 -0.16577173915E+03  0.45347039574E+03  0.79778978201E+02 0.  0.
         24    2    4    4    0    0  0.31459299015E+03  0.15351662936E+03  0.25623479929E+03  0.44105675057E+03  0.79615827093E+02 0.  0.
         11    1    3    3    0    0  0.43173864402E+02 -0.78137457783E+01 -0.18675502331E+03  0.19183971415E+03  0.00000000000E+00 0. -1.
        -11    1    3    3    0    0  0.50705873368E+02 -0.75414367452E+02 -0.12049746823E+04  0.12083966225E+04  0.00000000000E+00 0.  1.
          4    1    6    6  502    0  0.69084779136E+02  0.22461732548E+02  0.94430781248E+02  0.11914028951E+03  0.00000000000E+00 0. -1.
          3    1    5    5  503    0 -0.71984729292E+02 -0.42821794106E+02 -0.43686786965E+02  0.94467151206E+02  0.00000000000E+00 0. -1.
         -4    1    5    5    0  503 -0.33648799862E+03 -0.27466722018E+02 -0.12208495218E+03  0.35900324453E+03  0.00000000000E+00 0.  1.
         -3    1    6    6    0  502  0.24550821101E+03  0.13105489681E+03  0.16180401804E+03  0.32191646106E+03  0.00000000000E+00 0.  1.
<mgrwt>
<rscale>  0 0.18901441E+04</rscale>
<asrwt>0</asrwt>
<pdfrwt beam="1">  1        2 0.76422834E-01 0.18901441E+04</pdfrwt>
<pdfrwt beam="2">  1       -2 0.27661770E+00 0.18901441E+04</pdfrwt>
<totfact> 0.25698940E+00</totfact>
</mgrwt>
</event>
<event>
12    1  0.1442183E-007  0.2171526E+04  0.7818608E-02  0.8530374E-01
          1   -1    0    0  501    0  0.00000000000E+00  0.00000000000E+00  0.14067634301E+04  0.14067634301E+04  0.00000000000E+00 0. -1.
         -1   -1    0    0    0  501 -0.00000000000E+00 -0.00000000000E+00 -0.83800975997E+03  0.83800975997E+03  0.00000000000E+00 0.  1.
         23    2    1    2    0    0 -0.37135086479E+03  0.81553676672E+03  0.29119760260E+03  0.94661276853E+03  0.90983554127E+02 0.  0.
        254    2    1    2    0    0  0.37135086479E+03 -0.81553676672E+03  0.27755606756E+03  0.12981604216E+04  0.89731902179E+03 0.  0.
        -24    2    4    4    0    0  0.59432467691E+03 -0.27485699173E+03  0.36908149971E+02  0.66061791807E+03  0.79281994503E+02 0.  0.
         24    2    4    4    0    0 -0.22297381212E+03 -0.54067977499E+03  0.24064791759E+03  0.63754250351E+03  0.80604488563E+02 0.  0.
         13    1    3    3    0    0 -0.21655314673E+03  0.38263960165E+03  0.16777926097E+03  0.47059346629E+03  0.00000000000E+00 0.  1.
        -13    1    3    3    0    0 -0.15479771806E+03  0.43289716508E+03  0.12341834163E+03  0.47601930223E+03  0.00000000000E+00 0. -1.
          2    1    6    6  502    0 -0.13087489403E+03 -0.37965913057E+03  0.13280543470E+03  0.42297349420E+03  0.00000000000E+00 0. -1.
          1    1    5    5  503    0  0.57349683061E+03 -0.27990112569E+03  0.35737174051E+02  0.63915600638E+03  0.00000000000E+00 0. -1.
         -2    1    5    5    0  503  0.20827846291E+02  0.50441339554E+01  0.11709759204E+01  0.21461911683E+02  0.00000000000E+00 0.  1.
         -1    1    6    6    0  502 -0.92098918085E+02 -0.16102064442E+03  0.10784248289E+03  0.21456900931E+03  0.00000000000E+00 0.  1.
<mgrwt>
<rscale>  0 0.21715262E+04</rscale>
<asrwt>0</asrwt>
<pdfrwt beam="1">  1        1 0.21642514E+00 0.21715262E+04</pdfrwt>
<pdfrwt beam="2">  1       -1 0.12892458E+00 0.21715262E+04</pdfrwt>
<totfact> 0.35972241E+00</totfact>
</mgrwt>
</event>
<event>
12    1  0.1442183E-007  0.1371498E+04  0.7818608E-02  0.8974712E-01
          1   -1    0    0  501    0  0.00000000000E+00  0.00000000000E+00  0.25524350091E+04  0.25524350091E+04  0.00000000000E+00 0. -1.
         -1   -1    0    0    0  501 -0.00000000000E+00 -0.00000000000E+00 -0.18423643349E+03  0.18423643349E+03  0.00000000000E+00 0.  1.
         23    2    1    2    0    0  0.21751564854E+03 -0.11684547135E+03  0.10081797984E+03  0.28507900530E+03  0.10069683543E+03 0.  0.
        254    2    1    2    0    0 -0.21751564854E+03  0.11684547135E+03  0.22673805957E+04  0.24515924373E+04  0.89906884665E+03 0.  0.
        -24    2    4    4    0    0 -0.32139393605E+03 -0.17004900296E+03  0.35912516178E+03  0.51748244837E+03  0.81280237499E+02 0.  0.
         24    2    4    4    0    0  0.10387828751E+03  0.28689447431E+03  0.19082554339E+04  0.19341099889E+04  0.79015884049E+02 0.  0.
         13    1    3    3    0    0  0.14361492056E+03 -0.91378499514E+02  0.11528365902E+03  0.20558598595E+03  0.00000000000E+00 0.  1.
        -13    1    3    3    0    0  0.73900727985E+02 -0.25466971839E+02 -0.14465679180E+02  0.79493019351E+02  0.00000000000E+00 0. -1.
          4    1    6    6  502    0  0.10771332158E+03  0.27806524927E+03  0.17237163389E+04  0.17493199992E+04  0.00000000000E+00 0. -1.
          1    1    5    5  503    0 -0.28304491602E+03 -0.15271070337E+03  0.34819753093E+03  0.47400053160E+03  0.00000000000E+00 0. -1.
         -2    1    5    5    0  503 -0.38349020031E+02 -0.17338299586E+02  0.10927630847E+02  0.43481916768E+02  0.00000000000E+00 0.  1.
         -3    1    6    6    0  502 -0.38350340701E+01  0.88292250450E+01  0.18453909506E+03  0.18478998973E+03  0.00000000000E+00 0.  1.
<mgrwt>
<rscale>  0 0.13714978E+04</rscale>
<asrwt>0</asrwt>
<pdfrwt beam="1">  1        1 0.39268228E+00 0.13714978E+04</pdfrwt>
<pdfrwt beam="2">  1       -1 0.28344069E-01 0.13714978E+04</pdfrwt>
<totfact> 0.13776849E+01</totfact>
</mgrwt>
</event>
<event>
12    1  0.1442183E-007  0.1591427E+04  0.7818608E-02  0.8825832E-01
         -2   -1    0    0    0  501 -0.00000000000E+00  0.00000000000E+00  0.17150505445E+04  0.17150505445E+04  0.00000000000E+00 0.  1.
          2   -1    0    0  501    0  0.00000000000E+00 -0.00000000000E+00 -0.36917860365E+03  0.36917860365E+03  0.00000000000E+00 0. -1.
         23    2    1    2    0    0 -0.66466887788E+01 -0.52780941720E+03  0.38878840193E+03  0.66197532216E+03  0.91803846908E+02 0.  0.
        254    2    1    2    0    0  0.66466887788E+01  0.52780941720E+03  0.95708353887E+03  0.14222538259E+04  0.91003850780E+03 0.  0.
        -24    2    4    4    0    0 -0.17330309780E+03  0.55432256736E+03  0.10474947055E+04  0.12003713755E+04  0.79616635743E+02 0.  0.
         24    2    4    4    0    0  0.17994978658E+03 -0.26513150157E+02 -0.90411166672E+02  0.22188245040E+03  0.89290368555E+02 0.  0.
         11    1    3    3    0    0  0.13267624246E+02 -0.15013609360E+03  0.16070241901E+03  0.22032281754E+03  0.00000000000E+00 0.  1.
        -11    1    3    3    0    0 -0.19914313025E+02 -0.37767332361E+03  0.22808598292E+03  0.44165250462E+03  0.00000000000E+00 0. -1.
          4    1    6    6  502    0  0.59790061301E+02  0.51509207227E+01  0.11586996791E+02  0.61119897818E+02  0.00000000000E+00 0. -1.
          1    1    5    5  503    0 -0.47905769418E+01  0.88076386065E+02  0.12331034255E+03  0.15161081752E+03  0.00000000000E+00 0. -1.
         -2    1    5    5    0  503 -0.16851252086E+03  0.46624618130E+03  0.92418436299E+03  0.10487605580E+04  0.00000000000E+00 0.  1.
         -3    1    6    6    0  502  0.12015972528E+03 -0.31664070880E+02 -0.10199816346E+03  0.16076255258E+03  0.00000000000E+00 0.  1.
<mgrwt>
<rscale>  0 0.15914270E+04</rscale>
<asrwt>0</asrwt>
<pdfrwt beam="1">  1        2 0.56796709E-01 0.15914270E+04</pdfrwt>
<pdfrwt beam="2">  1       -2 0.26385392E+00 0.15914270E+04</pdfrwt>
<totfact> 0.44176959E+00</totfact>
</mgrwt>
</event>
<event>
12    1  0.1442183E-007  0.2224956E+04  0.7818608E-02  0.8508112E-01
         -2   -1    0    0    0  501 -0.00000000000E+00  0.00000000000E+00  0.84368100872E+03  0.84368100872E+03  0.00000000000E+00 0.  1.
          2   -1    0    0  501    0  0.00000000000E+00 -0.00000000000E+00 -0.14669142355E+04  0.14669142355E+04  0.00000000000E+00 0. -1.
         23    2    1    2    0    0 -0.54222913872E+03  0.66617450912E+03 -0.63428747619E+03  0.10714236725E+04  0.88471283252E+02 0.  0.
        254    2    1    2    0    0  0.54222913872E+03 -0.66617450912E+03  0.11054249441E+02  0.12391715717E+04  0.89309745958E+03 0.  0.
        -24    2    4    4    0    0  0.47941526333E+03 -0.83156961896E+03  0.18289564590E+03  0.98022581425E+03  0.77748335895E+02 0.  0.
         24    2    4    4    0    0  0.62813875389E+02  0.16539510984E+03 -0.17184139646E+03  0.25894575750E+03  0.78881648601E+02 0.  0.
         11    1    3    3    0    0 -0.71937934903E+02  0.12138719919E+03 -0.13669940893E+03  0.19646029371E+03  0.00000000000E+00 0.  1.
        -11    1    3    3    0    0 -0.47029120382E+03  0.54478730993E+03 -0.49758806726E+03  0.87496337874E+03  0.00000000000E+00 0. -1.
          4    1    6    6  502    0 -0.14895504780E+02  0.18113885619E+02 -0.66299857759E+01  0.24370999698E+02  0.00000000000E+00 0. -1.
          1    1    5    5  503    0  0.91527254309E+02 -0.15636529249E+03  0.65901090702E+02  0.19279599771E+03  0.00000000000E+00 0. -1.
         -2    1    5    5    0  503  0.38788800903E+03 -0.67520432647E+03  0.11699455520E+03  0.78742981654E+03  0.00000000000E+00 0.  1.
         -3    1    6    6    0  502  0.77709380170E+02  0.14728122422E+03 -0.16521141069E+03  0.23457475780E+03  0.00000000000E+00 0.  1.
<mgrwt>
<rscale>  0 0.22249563E+04</rscale>
<asrwt>0</asrwt>
<pdfrwt beam="1">  1        2 0.22567911E+00 0.22249563E+04</pdfrwt>
<pdfrwt beam="2">  1       -2 0.12979708E+00 0.22249563E+04</pdfrwt>
<totfact> 0.52722621E+00</totfact>
</mgrwt>
</event>
<event>
12    1  0.1442183E-007  0.2700351E+04  0.7818608E-02  0.8334891E-01
          2   -1    0    0  501    0  0.00000000000E+00  0.00000000000E+00  0.19845089653E+04  0.19845089653E+04  0.00000000000E+00 0. -1.
         -2   -1    0    0    0  501 -0.00000000000E+00 -0.00000000000E+00 -0.91860187809E+03  0.91860187809E+03  0.00000000000E+00 0.  1.
         23    2    1    2    0    0 -0.73289258006E+03 -0.76595523792E+03 -0.12468110759E+03  0.10712117229E+04  0.90167711859E+02 0.  0.
        254    2    1    2    0    0  0.73289258006E+03  0.76595523792E+03  0.11905881948E+04  0.18318991205E+04  0.90251602623E+03 0.  0.
        -24    2    4    4    0    0  0.83733524349E+03  0.83319584989E+03  0.84022088640E+03  0.14516415425E+04  0.77112876070E+02 0.  0.
         24    2    4    4    0    0 -0.10444266343E+03 -0.67240611968E+02  0.35036730839E+03  0.38025757799E+03  0.80056261410E+02 0.  0.
         13    1    3    3    0    0 -0.15593367822E+03 -0.15464398981E+03  0.10315918340E+02  0.21985562026E+03  0.00000000000E+00 0. -1.
        -13    1    3    3    0    0 -0.57695890184E+03 -0.61131124811E+03 -0.13499702594E+03  0.85135610264E+03  0.00000000000E+00 0.  1.
          2    1    6    6  502    0 -0.99591285407E+02 -0.50702227193E+02  0.34430428976E+03  0.36198699413E+03  0.00000000000E+00 0. -1.
          1    1    5    5  503    0  0.83873184820E+03  0.83336040075E+03  0.83930579352E+03  0.14499637533E+04  0.00000000000E+00 0. -1.
         -2    1    5    5    0  503 -0.13966047123E+01 -0.16455085817E+00  0.91509288137E+00  0.16777892266E+01  0.00000000000E+00 0.  1.
         -1    1    6    6    0  502 -0.48513780179E+01 -0.16538384776E+02  0.60630186236E+01  0.18270583858E+02  0.00000000000E+00 0.  1.
<mgrwt>
<rscale>  0 0.27003508E+04</rscale>
<asrwt>0</asrwt>
<pdfrwt beam="1">  1        2 0.30530907E+00 0.27003508E+04</pdfrwt>
<pdfrwt beam="2">  1       -2 0.14132337E+00 0.27003508E+04</pdfrwt>
<totfact> 0.20954850E+00</totfact>
</mgrwt>
</event>
<event>
12    1  0.1442183E-007  0.1174565E+04  0.7818608E-02  0.9135416E-01
         -1   -1    0    0    0  501 -0.00000000000E+00  0.00000000000E+00  0.44302362623E+03  0.44302362623E+03  0.00000000000E+00 0.  1.
          1   -1    0    0  501    0  0.00000000000E+00 -0.00000000000E+00 -0.77851501252E+03  0.77851501252E+03  0.00000000000E+00 0. -1.
         23    2    1    2    0    0 -0.75070887827E+02 -0.17523205433E+03 -0.22289878052E+03  0.30705442639E+03  0.90866073663E+02 0.  0.
        254    2    1    2    0    0  0.75070887827E+02  0.17523205433E+03 -0.11259260577E+03  0.91448421235E+03  0.88727806730E+03 0.  0.
        -24    2    4    4    0    0  0.80831615672E+02  0.28349622124E+02 -0.48866951218E+03  0.50253758760E+03  0.80054254390E+02 0.  0.
         24    2    4    4    0    0 -0.57607278452E+01  0.14688243221E+03  0.37607690641E+03  0.41194662476E+03  0.81599921803E+02 0.  0.
         11    1    3    3    0    0 -0.10244743154E+02 -0.24353286700E+01 -0.59914893884E+02  0.60833215410E+02  0.00000000000E+00 0.  1.
        -11    1    3    3    0    0 -0.64826144674E+02 -0.17279672566E+03 -0.16298388663E+03  0.24622121098E+03  0.00000000000E+00 0. -1.
          4    1    6    6  502    0  0.30540002339E+02  0.93015047188E+02  0.27389355914E+03  0.29086452600E+03  0.00000000000E+00 0. -1.
          1    1    5    5  503    0  0.96694432258E+02  0.23889719202E+02 -0.39093436039E+03  0.40342311045E+03  0.00000000000E+00 0. -1.
         -2    1    5    5    0  503 -0.15862816586E+02  0.44599029220E+01 -0.97735151791E+02  0.99114477145E+02  0.00000000000E+00 0.  1.
         -3    1    6    6    0  502 -0.36300730184E+02  0.53867385018E+02  0.10218334727E+03  0.12108209876E+03  0.00000000000E+00 0.  1.
<mgrwt>
<rscale>  0 0.11745647E+04</rscale>
<asrwt>0</asrwt>
<pdfrwt beam="1">  1        1 0.11977154E+00 0.11745647E+04</pdfrwt>
<pdfrwt beam="2">  1       -1 0.68157482E-01 0.11745647E+04</pdfrwt>
<totfact> 0.49911757E+01</totfact>
</mgrwt>
</event>
<event>
12    1  0.1442183E-007  0.1657654E+04  0.7818608E-02  0.8785891E-01
          1   -1    0    0  501    0  0.00000000000E+00  0.00000000000E+00  0.94116645384E+03  0.94116645384E+03  0.00000000000E+00 0. -1.
         -1   -1    0    0    0  501 -0.00000000000E+00 -0.00000000000E+00 -0.72989642735E+03  0.72989642735E+03  0.00000000000E+00 0.  1.
         23    2    1    2    0    0  0.49929492498E+02 -0.50799552640E+03  0.34029970689E+03  0.62018095874E+03  0.90929214304E+02 0.  0.
        254    2    1    2    0    0 -0.49929492498E+02  0.50799552640E+03 -0.12902968040E+03  0.10508819225E+04  0.90947883287E+03 0.  0.
        -24    2    4    4    0    0  0.24084252735E+03 -0.13676936121E+03 -0.17446159119E+03  0.33762951672E+03  0.82739728168E+02 0.  0.
         24    2    4    4    0    0 -0.29077201985E+03  0.64476488761E+03  0.45431910794E+02  0.71325240573E+03  0.79967543038E+02 0.  0.
         11    1    3    3    0    0 -0.12457630114E+02 -0.30831702942E+03  0.18676251429E+03  0.36068659515E+03  0.00000000000E+00 0. -1.
        -11    1    3    3    0    0  0.62387122613E+02 -0.19967849698E+03  0.15353719259E+03  0.25949436359E+03  0.00000000000E+00 0.  1.
          4    1    6    6  502    0 -0.29306373910E+02  0.13597901658E+03  0.21144692527E+02  0.14069916319E+03  0.00000000000E+00 0. -1.
          3    1    5    5  503    0  0.49505816812E+02 -0.38857820978E+02 -0.82710684191E+02  0.10393177295E+03  0.00000000000E+00 0. -1.
         -4    1    5    5    0  503  0.19133671054E+03 -0.97911540229E+02 -0.91750906999E+02  0.23369774377E+03  0.00000000000E+00 0.  1.
         -3    1    6    6    0  502 -0.26146564594E+03  0.50878587103E+03  0.24287218267E+02  0.57255324253E+03  0.00000000000E+00 0.  1.
<mgrwt>
<rscale>  0 0.16576538E+04</rscale>
<asrwt>0</asrwt>
<pdfrwt beam="1">  1        1 0.14479484E+00 0.16576538E+04</pdfrwt>
<pdfrwt beam="2">  1       -1 0.11229176E+00 0.16576538E+04</pdfrwt>
<totfact> 0.11694518E+01</totfact>
</mgrwt>
</event>
<event>
12    1  0.1442183E-007  0.2098208E+04  0.7818608E-02  0.8562033E-01
         -2   -1    0    0    0  501 -0.00000000000E+00  0.00000000000E+00  0.12977239029E+04  0.12977239029E+04  0.00000000000E+00 0.  1.
          2   -1    0    0  501    0  0.00000000000E+00 -0.00000000000E+00 -0.84811526197E+03  0.84811526197E+03  0.00000000000E+00 0. -1.
         23    2    1    2    0    0 -0.49599038581E+03  0.41060105127E+03 -0.39298778408E+03  0.75969747998E+03  0.90006536063E+02 0.  0.
        254    2    1    2    0    0  0.49599038581E+03 -0.41060105127E+03  0.84259642499E+03  0.13861416849E+04  0.89264794235E+03 0.  0.
        -24    2    4    4    0    0  0.22911725246E+03 -0.67207579245E+03  0.48956307981E+03  0.86618443225E+03  0.80142843673E+02 0.  0.
         24    2    4    4    0    0  0.26687313335E+03  0.26147474119E+03  0.35303334518E+03  0.51995725261E+03  0.78311507103E+02 0.  0.
         11    1    3    3    0    0  0.30888808860E+01  0.56429787353E+01 -0.13410882576E+00  0.64344680675E+01  0.00000000000E+00 0.  1.
        -11    1    3    3    0    0 -0.49907926670E+03  0.40495807253E+03 -0.39285367525E+03  0.75326301191E+03  0.00000000000E+00 0. -1.
          4    1    6    6  502    0  0.71939911492E+02  0.35384944420E+02  0.10322832002E+03  0.13070398315E+03  0.00000000000E+00 0. -1.
          1    1    5    5  503    0  0.48017783787E+02 -0.72060262420E+02  0.76635666637E+02  0.11563483204E+03  0.00000000000E+00 0. -1.
         -2    1    5    5    0  503  0.18109946867E+03 -0.60001553003E+03  0.41292741317E+03  0.75054960021E+03  0.00000000000E+00 0.  1.
         -3    1    6    6    0  502  0.19493322186E+03  0.22608979677E+03  0.24980502516E+03  0.38925326945E+03  0.00000000000E+00 0.  1.
<mgrwt>
<rscale>  0 0.20982082E+04</rscale>
<asrwt>0</asrwt>
<pdfrwt beam="1">  1        2 0.13047927E+00 0.20982082E+04</pdfrwt>
<pdfrwt beam="2">  1       -2 0.19964983E+00 0.20982082E+04</pdfrwt>
<totfact> 0.39215305E+00</totfact>
</mgrwt>
</event>
<event>
12    1  0.1442183E-007  0.1901837E+04  0.7818608E-02  0.8653942E-01
         -1   -1    0    0    0  501 -0.00000000000E+00  0.00000000000E+00  0.10072430310E+04  0.10072430310E+04  0.00000000000E+00 0.  1.
          1   -1    0    0  501    0  0.00000000000E+00 -0.00000000000E+00 -0.89774374182E+03  0.89774374182E+03  0.00000000000E+00 0. -1.
         23    2    1    2    0    0  0.38283285549E+03 -0.17424476597E+02  0.65773535209E+03  0.76681896645E+03  0.92363013693E+02 0.  0.
        254    2    1    2    0    0 -0.38283285549E+03  0.17424476597E+02 -0.54823606292E+03  0.11381678064E+04  0.92086837665E+03 0.  0.
        -24    2    4    4    0    0 -0.59232793540E+03 -0.18295418578E+03 -0.55683333774E+03  0.83701864637E+03  0.78817708684E+02 0.  0.
         24    2    4    4    0    0  0.20949507991E+03  0.20037866237E+03  0.85972748147E+01  0.30114915999E+03  0.81099362439E+02 0.  0.
         13    1    3    3    0    0  0.25046493059E+02  0.14611245693E+02  0.93920174014E+02  0.98294528851E+02  0.00000000000E+00 0. -1.
        -13    1    3    3    0    0  0.35778636243E+03 -0.32035722290E+02  0.56381517807E+03  0.66852443760E+03  0.00000000000E+00 0.  1.
          2    1    6    6  502    0  0.19788060861E+03  0.19329550071E+03 -0.11522170213E+02  0.27686214307E+03  0.00000000000E+00 0. -1.
          1    1    5    5  503    0 -0.23451629959E+03 -0.86335306593E+02 -0.17637417596E+03  0.30587502331E+03  0.00000000000E+00 0. -1.
         -2    1    5    5    0  503 -0.35781163581E+03 -0.96618879184E+02 -0.38045916178E+03  0.53114362306E+03  0.00000000000E+00 0.  1.
         -1    1    6    6    0  502  0.11614471303E+02  0.70831616612E+01  0.20119445028E+02  0.24287016922E+02  0.00000000000E+00 0.  1.
<mgrwt>
<rscale>  0 0.19018371E+04</rscale>
<asrwt>0</asrwt>
<pdfrwt beam="1">  1        1 0.13811442E+00 0.19018371E+04</pdfrwt>
<pdfrwt beam="2">  1       -1 0.15496047E+00 0.19018371E+04</pdfrwt>
<totfact> 0.54596845E+00</totfact>
</mgrwt>
</event>
<event>
12    1  0.1442183E-007  0.1642832E+04  0.7818608E-02  0.8794658E-01
         -2   -1    0    0    0  501 -0.00000000000E+00  0.00000000000E+00  0.60954184624E+03  0.60954184624E+03  0.00000000000E+00 0.  1.
          2   -1    0    0  501    0  0.00000000000E+00 -0.00000000000E+00 -0.11069367931E+04  0.11069367931E+04  0.00000000000E+00 0. -1.
         23    2    1    2    0    0  0.49124904409E+03  0.17082475771E+03  0.66492114954E+02  0.53056577904E+03  0.81068633680E+02 0.  0.
        254    2    1    2    0    0 -0.49124904409E+03 -0.17082475771E+03 -0.56388706186E+03  0.11859128603E+04  0.90438596442E+03 0.  0.
        -24    2    4    4    0    0 -0.62084041018E+03 -0.11214283292E+03 -0.71947669755E+03  0.96016736252E+03  0.79093715618E+02 0.  0.
         24    2    4    4    0    0  0.12959136609E+03 -0.58681924788E+02  0.15558963569E+03  0.22574549783E+03  0.80718056188E+02 0.  0.
         13    1    3    3    0    0  0.36585476384E+03  0.11014869503E+03  0.80810686499E+02  0.39052888535E+03  0.00000000000E+00 0.  1.
        -13    1    3    3    0    0  0.12539428025E+03  0.60676062681E+02 -0.14318571545E+02  0.14003689369E+03  0.00000000000E+00 0. -1.
          2    1    6    6  502    0  0.28636602494E+02  0.19435519800E+02  0.22191581507E+02  0.41112780520E+02  0.00000000000E+00 0. -1.
          3    1    5    5  503    0 -0.66040808880E+02 -0.25900215252E+02 -0.52040837831E+02  0.87979874913E+02  0.00000000000E+00 0. -1.
         -4    1    5    5    0  503 -0.55479960130E+03 -0.86242617669E+02 -0.66743585972E+03  0.87218748761E+03  0.00000000000E+00 0.  1.
         -1    1    6    6    0  502  0.10095476359E+03 -0.78117444588E+02  0.13339805418E+03  0.18463271731E+03  0.00000000000E+00 0.  1.
<mgrwt>
<rscale>  0 0.16428321E+04</rscale>
<asrwt>0</asrwt>
<pdfrwt beam="1">  1        2 0.17029797E+00 0.16428321E+04</pdfrwt>
<pdfrwt beam="2">  1       -2 0.93775669E-01 0.16428321E+04</pdfrwt>
<totfact> 0.19811563E+01</totfact>
</mgrwt>
</event>
<event>
12    1  0.1442183E-007  0.1578206E+04  0.7818608E-02  0.8834050E-01
          1   -1    0    0  501    0  0.00000000000E+00  0.00000000000E+00  0.10756638277E+04  0.10756638277E+04  0.00000000000E+00 0. -1.
         -1   -1    0    0    0  501 -0.00000000000E+00 -0.00000000000E+00 -0.57888316434E+03  0.57888316434E+03  0.00000000000E+00 0.  1.
         23    2    1    2    0    0  0.93217575731E+02 -0.45444304644E+03  0.45179055198E+03  0.65249055944E+03  0.80132567769E+02 0.  0.
        254    2    1    2    0    0 -0.93217575731E+02  0.45444304644E+03  0.44990111414E+02  0.10020564326E+04  0.88706537818E+03 0.  0.
        -24    2    4    4    0    0 -0.40776604837E+03  0.40237760787E+03 -0.17899001143E+03  0.60426912939E+03  0.70163145805E+02 0.  0.
         24    2    4    4    0    0  0.31454847264E+03  0.52065438570E+02  0.22398012285E+03  0.39778730323E+03  0.80100509672E+02 0.  0.
         13    1    3    3    0    0  0.38027989546E+02 -0.19858041823E+03  0.25269481152E+03  0.32362783914E+03  0.00000000000E+00 0. -1.
        -13    1    3    3    0    0  0.55189586185E+02 -0.25586262821E+03  0.19909574046E+03  0.32886272030E+03  0.00000000000E+00 0.  1.
          2    1    6    6  502    0  0.15751043687E+03 -0.10584058039E+02  0.87436180782E+02  0.18046231107E+03  0.00000000000E+00 0. -1.
          1    1    5    5  503    0 -0.37695167778E+03  0.34447274050E+03 -0.14755512883E+03  0.53153226842E+03  0.00000000000E+00 0. -1.
         -2    1    5    5    0  503 -0.30814370584E+02  0.57904867370E+02 -0.31434882601E+02  0.72736860970E+02  0.00000000000E+00 0.  1.
         -1    1    6    6    0  502  0.15703803577E+03  0.62649496609E+02  0.13654394207E+03  0.21732499216E+03  0.00000000000E+00 0.  1.
<mgrwt>
<rscale>  0 0.15782062E+04</rscale>
<asrwt>0</asrwt>
<pdfrwt beam="1">  1        1 0.16548674E+00 0.15782062E+04</pdfrwt>
<pdfrwt beam="2">  1       -1 0.89058949E-01 0.15782062E+04</pdfrwt>
<totfact> 0.15723133E+01</totfact>
</mgrwt>
</event>
<event>
12    1  0.1442183E-007  0.3418919E+04  0.7818608E-02  0.8133278E-01
         -2   -1    0    0    0  501 -0.00000000000E+00  0.00000000000E+00  0.11177491487E+04  0.11177491487E+04  0.00000000000E+00 0.  1.
          2   -1    0    0  501    0  0.00000000000E+00 -0.00000000000E+00 -0.26144081217E+04  0.26144081217E+04  0.00000000000E+00 0. -1.
         23    2    1    2    0    0  0.98129714634E+03 -0.13139574246E+03 -0.20521124479E+04  0.22801779807E+04  0.88527931064E+02 0.  0.
        254    2    1    2    0    0 -0.98129714634E+03  0.13139574246E+03  0.55545347485E+03  0.14519792896E+04  0.90526590796E+03 0.  0.
        -24    2    4    4    0    0 -0.86250130526E+03  0.34044879062E+03  0.10675738692E+03  0.93658617990E+03  0.77347605673E+02 0.  0.
         24    2    4    4    0    0 -0.11879584109E+03 -0.20905304816E+03  0.44869608793E+03  0.51539310969E+03  0.80537254670E+02 0.  0.
         11    1    3    3    0    0  0.25471207799E+02 -0.18405730513E+02 -0.59451332975E+02  0.67245924300E+02  0.00000000000E+00 0.  1.
        -11    1    3    3    0    0  0.95582593854E+03 -0.11299001195E+03 -0.19926611149E+04  0.22129320564E+04  0.00000000000E+00 0. -1.
          4    1    6    6  502    0 -0.77822636487E+02 -0.15602337840E+03  0.24317281622E+03  0.29922011281E+03  0.00000000000E+00 0. -1.
          3    1    5    5  503    0 -0.63440829163E+02  0.84667348612E+01 -0.46073979148E+01  0.64168937342E+02  0.00000000000E+00 0. -1.
         -4    1    5    5    0  503 -0.79906047609E+03  0.33198205576E+03  0.11136478484E+03  0.87241724255E+03  0.00000000000E+00 0.  1.
         -3    1    6    6    0  502 -0.40973204599E+02 -0.53029669762E+02  0.20552327171E+03  0.21617299689E+03  0.00000000000E+00 0.  1.
<mgrwt>
<rscale>  0 0.34189194E+04</rscale>
<asrwt>0</asrwt>
<pdfrwt beam="1">  1        2 0.40221664E+00 0.34189194E+04</pdfrwt>
<pdfrwt beam="2">  1       -2 0.17196141E+00 0.34189194E+04</pdfrwt>
<totfact> 0.50942358E-01</totfact>
</mgrwt>
</event>
<event>
12    1  0.1442183E-007  0.3218060E+04  0.7818608E-02  0.8184064E-01
         -1   -1    0    0    0  501 -0.00000000000E+00  0.00000000000E+00  0.13747930977E+04  0.13747930977E+04  0.00000000000E+00 0.  1.
          1   -1    0    0  501    0  0.00000000000E+00 -0.00000000000E+00 -0.18831766776E+04  0.18831766776E+04  0.00000000000E+00 0. -1.
         23    2    1    2    0    0  0.40660691889E+03  0.11552516291E+04  0.61011279132E+03  0.13714086605E+04  0.92674607374E+02 0.  0.
        254    2    1    2    0    0 -0.40660691889E+03 -0.11552516291E+04 -0.11184963713E+04  0.18865611148E+04  0.89896784950E+03 0.  0.
        -24    2    4    4    0    0 -0.17139896646E+03 -0.12291598857E+04 -0.81395346641E+03  0.14862978533E+04  0.79683329294E+02 0.  0.
         24    2    4    4    0    0 -0.23520795243E+03  0.73908256632E+02 -0.30454290485E+03  0.40026326149E+03  0.81725677253E+02 0.  0.
         13    1    3    3    0    0  0.39282796098E+03  0.11374669439E+04  0.58618622904E+03  0.13385660800E+04  0.00000000000E+00 0.  1.
        -13    1    3    3    0    0  0.13778957910E+02  0.17784685154E+02  0.23926562287E+02  0.32842580441E+02  0.00000000000E+00 0. -1.
          2    1    6    6  502    0 -0.23779534180E+03  0.59554894206E+02 -0.28840430804E+03  0.37851083855E+03  0.00000000000E+00 0. -1.
          1    1    5    5  503    0 -0.99965039335E+02 -0.78340712143E+03 -0.47299354120E+03  0.92056646529E+03  0.00000000000E+00 0. -1.
         -2    1    5    5    0  503 -0.71433927127E+02 -0.44575276428E+03 -0.34095992520E+03  0.56573138803E+03  0.00000000000E+00 0.  1.
         -1    1    6    6    0  502  0.25873893745E+01  0.14353362426E+02 -0.16138596805E+02  0.21752422935E+02  0.00000000000E+00 0.  1.
<mgrwt>
<rscale>  0 0.32180605E+04</rscale>
<asrwt>0</asrwt>
<pdfrwt beam="1">  1        1 0.28971949E+00 0.32180605E+04</pdfrwt>
<pdfrwt beam="2">  1       -1 0.21150663E+00 0.32180605E+04</pdfrwt>
<totfact> 0.37522440E-01</totfact>
</mgrwt>
</event>
<event>
12    1  0.1442183E-007  0.1571568E+04  0.7818608E-02  0.8838208E-01
         -1   -1    0    0    0  501 -0.00000000000E+00  0.00000000000E+00  0.66899951866E+03  0.66899951866E+03  0.00000000000E+00 0.  1.
          1   -1    0    0  501    0  0.00000000000E+00 -0.00000000000E+00 -0.92295525536E+03  0.92295525536E+03  0.00000000000E+00 0. -1.
         23    2    1    2    0    0 -0.73845151375E+02  0.37731011720E+03 -0.47853734651E+03  0.62075047451E+03  0.92288291103E+02 0.  0.
        254    2    1    2    0    0  0.73845151375E+02 -0.37731011720E+03  0.22458160981E+03  0.97120429951E+03  0.86312505525E+03 0.  0.
        -24    2    4    4    0    0  0.22547165788E+03 -0.37969144310E+03  0.48411826382E+03  0.66003047017E+03  0.79162287226E+02 0.  0.
         24    2    4    4    0    0 -0.15162650650E+03  0.23813259006E+01 -0.25953665401E+03  0.31117382934E+03  0.80458741627E+02 0.  0.
         13    1    3    3    0    0 -0.20324722928E+02  0.29795939243E+03 -0.38092686065E+03  0.48404355906E+03  0.00000000000E+00 0. -1.
        -13    1    3    3    0    0 -0.53520428447E+02  0.79350724768E+02 -0.97610485866E+02  0.13670691546E+03  0.00000000000E+00 0.  1.
          2    1    6    6  502    0 -0.11791507936E+03 -0.31895182695E+02 -0.16716072432E+03  0.20703617166E+03  0.00000000000E+00 0. -1.
          3    1    5    5  503    0  0.15952269421E+03 -0.19656341257E+03  0.25355035392E+03  0.35829100896E+03  0.00000000000E+00 0. -1.
         -4    1    5    5    0  503  0.65948963666E+02 -0.18312803054E+03  0.23056790990E+03  0.30173946121E+03  0.00000000000E+00 0.  1.
         -1    1    6    6    0  502 -0.33711427143E+02  0.34276508595E+02 -0.92375929686E+02  0.10413765768E+03  0.00000000000E+00 0.  1.
<mgrwt>
<rscale>  0 0.15715682E+04</rscale>
<asrwt>0</asrwt>
<pdfrwt beam="1">  1        1 0.14199312E+00 0.15715682E+04</pdfrwt>
<pdfrwt beam="2">  1       -1 0.10292300E+00 0.15715682E+04</pdfrwt>
<totfact> 0.14952999E+01</totfact>
</mgrwt>
</event>
<event>
12    1  0.1442183E-007  0.1271187E+04  0.7818608E-02  0.9052731E-01
         -1   -1    0    0    0  501 -0.00000000000E+00  0.00000000000E+00  0.58477479191E+03  0.58477479191E+03  0.00000000000E+00 0.  1.
          1   -1    0    0  501    0  0.00000000000E+00 -0.00000000000E+00 -0.69082860564E+03  0.69082860564E+03  0.00000000000E+00 0. -1.
         23    2    1    2    0    0 -0.10669446384E+03 -0.14097329229E+03 -0.27439706672E+03  0.34344588786E+03  0.10679021450E+03 0.  0.
        254    2    1    2    0    0  0.10669446384E+03  0.14097329229E+03  0.16834325299E+03  0.93215750968E+03  0.89962269551E+03 0.  0.
        -24    2    4    4    0    0  0.60963536567E+01 -0.37561130935E+03  0.55038421613E+02  0.38793195835E+03  0.79630114987E+02 0.  0.
         24    2    4    4    0    0  0.10059811018E+03  0.51658460164E+03  0.11330483138E+03  0.54422555133E+03  0.79773651546E+02 0.  0.
         11    1    3    3    0    0 -0.14722346308E+02  0.25845290755E+01 -0.94190001923E+02  0.95368672705E+02  0.00000000000E+00 0.  1.
        -11    1    3    3    0    0 -0.91972117534E+02 -0.14355782136E+03 -0.18020706480E+03  0.24807721516E+03  0.00000000000E+00 0. -1.
          4    1    6    6  502    0 -0.79046851207E+01  0.14308899517E+03  0.34021136857E+02  0.14729012980E+03  0.00000000000E+00 0. -1.
          1    1    5    5  503    0  0.23803771646E+00 -0.33756962844E+02 -0.18082669707E+02  0.38295850247E+02  0.00000000000E+00 0. -1.
         -2    1    5    5    0  503  0.58583159402E+01 -0.34185434651E+03  0.73121091320E+02  0.34963610810E+03  0.00000000000E+00 0.  1.
         -3    1    6    6    0  502  0.10850279531E+03  0.37349560647E+03  0.79283694524E+02  0.39693542152E+03  0.00000000000E+00 0.  1.
<mgrwt>
<rscale>  0 0.12711871E+04</rscale>
<asrwt>0</asrwt>
<pdfrwt beam="1">  1        1 0.10628132E+00 0.12711871E+04</pdfrwt>
<pdfrwt beam="2">  1       -1 0.89965352E-01 0.12711871E+04</pdfrwt>
<totfact> 0.33104629E+01</totfact>
</mgrwt>
</event>
<event>
12    1  0.1442183E-007  0.1237696E+04  0.7818608E-02  0.9080486E-01
         -2   -1    0    0    0  501 -0.00000000000E+00  0.00000000000E+00  0.42359714308E+03  0.42359714308E+03  0.00000000000E+00 0.  1.
          2   -1    0    0  501    0  0.00000000000E+00 -0.00000000000E+00 -0.90409723362E+03  0.90409723362E+03  0.00000000000E+00 0. -1.
         23    2    1    2    0    0  0.24538849976E+03 -0.39685249121E+02 -0.20356788926E+03  0.34524160701E+03  0.12633861983E+03 0.  0.
        254    2    1    2    0    0 -0.24538849976E+03  0.39685249121E+02 -0.27693220129E+03  0.98245276969E+03  0.90924780217E+03 0.  0.
        -24    2    4    4    0    0 -0.42256108272E+03 -0.17869652446E+03 -0.44530534468E+03  0.64426283914E+03  0.79293375585E+02 0.  0.
         24    2    4    4    0    0  0.17717258296E+03  0.21838177358E+03  0.16837314339E+03  0.33818993055E+03  0.83319808731E+02 0.  0.
         13    1    3    3    0    0  0.87123873186E+02  0.45130798279E+02 -0.87237033602E+02  0.13129226277E+03  0.00000000000E+00 0. -1.
        -13    1    3    3    0    0  0.15826462658E+03 -0.84816047401E+02 -0.11633085566E+03  0.21394934424E+03  0.00000000000E+00 0.  1.
          4    1    6    6  502    0 -0.48121066651E+01  0.28057142161E+01 -0.46353614027E+01  0.72467218901E+01  0.00000000000E+00 0. -1.
          1    1    5    5  503    0 -0.61823472007E+02 -0.37485748771E+01 -0.85398092343E+02  0.10549420686E+03  0.00000000000E+00 0. -1.
         -2    1    5    5    0  503 -0.36073761071E+03 -0.17494794958E+03 -0.35990725233E+03  0.53876863228E+03  0.00000000000E+00 0.  1.
         -3    1    6    6    0  502  0.18198468962E+03  0.21557605937E+03  0.17300850479E+03  0.33094320866E+03  0.00000000000E+00 0.  1.
<mgrwt>
<rscale>  0 0.12376963E+04</rscale>
<asrwt>0</asrwt>
<pdfrwt beam="1">  1        2 0.13909188E+00 0.12376963E+04</pdfrwt>
<pdfrwt beam="2">  1       -2 0.65168793E-01 0.12376963E+04</pdfrwt>
<totfact> 0.62277290E+01</totfact>
</mgrwt>
</event>
<event>
12    1  0.1442183E-007  0.1870119E+04  0.7818608E-02  0.8669875E-01
         -2   -1    0    0    0  501 -0.00000000000E+00  0.00000000000E+00  0.58732001643E+03  0.58732001643E+03  0.00000000000E+00 0.  1.
          2   -1    0    0  501    0  0.00000000000E+00 -0.00000000000E+00 -0.14886879052E+04  0.14886879052E+04  0.00000000000E+00 0. -1.
         23    2    1    2    0    0  0.59151442503E+03  0.97278004009E+02  0.86770991445E+02  0.61263419156E+03  0.91864697396E+02 0.  0.
        254    2    1    2    0    0 -0.59151442503E+03 -0.97278004009E+02 -0.98813888022E+03  0.14633737301E+04  0.89760342144E+03 0.  0.
        -24    2    4    4    0    0 -0.32842006142E+03 -0.43562485397E+03 -0.83614931393E+03  0.10017708115E+04  0.82282035670E+02 0.  0.
         24    2    4    4    0    0 -0.26309436361E+03  0.33834684996E+03 -0.15198956628E+03  0.46160291860E+03  0.79241347537E+02 0.  0.
         13    1    3    3    0    0  0.54953227020E+03  0.97657878681E+02  0.10310356716E+03  0.56758534408E+03  0.00000000000E+00 0.  1.
        -13    1    3    3    0    0  0.41982154834E+02 -0.37987467200E+00 -0.16332575720E+02  0.45048847476E+02  0.00000000000E+00 0. -1.
          2    1    6    6  502    0 -0.17114685656E+02  0.27502431980E+02 -0.36337385214E+02  0.48679582929E+02  0.00000000000E+00 0. -1.
          3    1    5    5  503    0 -0.25547815016E+03 -0.27530251603E+03 -0.57168228622E+03  0.68401841855E+03  0.00000000000E+00 0. -1.
         -4    1    5    5    0  503 -0.72941911261E+02 -0.16032233794E+03 -0.26446702771E+03  0.31775239292E+03  0.00000000000E+00 0.  1.
         -1    1    6    6    0  502 -0.24597967796E+03  0.31084441798E+03 -0.11565218107E+03  0.41292333567E+03  0.00000000000E+00 0.  1.
<mgrwt>
<rscale>  0 0.18701189E+04</rscale>
<asrwt>0</asrwt>
<pdfrwt beam="1">  1        2 0.22902891E+00 0.18701189E+04</pdfrwt>
<pdfrwt beam="2">  1       -2 0.90356927E-01 0.18701189E+04</pdfrwt>
<totfact> 0.12665259E+01</totfact>
</mgrwt>
</event>
<event>
12    1  0.1442183E-007  0.1452609E+04  0.7818608E-02  0.8916594E-01
          1   -1    0    0  501    0  0.00000000000E+00  0.00000000000E+00  0.86830205661E+03  0.86830205661E+03  0.00000000000E+00 0. -1.
         -1   -1    0    0    0  501 -0.00000000000E+00 -0.00000000000E+00 -0.60752867260E+03  0.60752867260E+03  0.00000000000E+00 0.  1.
         23    2    1    2    0    0 -0.12237259212E+02 -0.37736353312E+03 -0.14256271573E+03  0.41356072254E+03  0.90307013398E+02 0.  0.
        254    2    1    2    0    0  0.12237259212E+02  0.37736353312E+03  0.40333609974E+03  0.10622700067E+04  0.90729519512E+03 0.  0.
        -24    2    4    4    0    0 -0.28945442254E+03  0.34458377663E+03  0.55110813343E+03  0.71593511190E+03  0.79505143698E+02 0.  0.
         24    2    4    4    0    0  0.30169168175E+03  0.32779756488E+02 -0.14777203369E+03  0.34633489478E+03  0.77581583670E+02 0.  0.
         11    1    3    3    0    0  0.21106870242E+02 -0.19629913862E+02 -0.13123254357E+02  0.31671016633E+02  0.00000000000E+00 0. -1.
        -11    1    3    3    0    0 -0.33344129454E+02 -0.35773361925E+03 -0.12943946137E+03  0.38188970590E+03  0.00000000000E+00 0.  1.
          2    1    6    6  502    0  0.13887636252E+03  0.33778613033E+02 -0.31754951174E+02  0.14641043573E+03  0.00000000000E+00 0. -1.
          1    1    5    5  503    0 -0.14942825316E+03  0.14737008760E+03  0.31046131505E+03  0.37474387747E+03  0.00000000000E+00 0. -1.
         -2    1    5    5    0  503 -0.14002616939E+03  0.19721368903E+03  0.24064681837E+03  0.34119123442E+03  0.00000000000E+00 0.  1.
         -1    1    6    6    0  502  0.16281531923E+03 -0.99885654451E+00 -0.11601708252E+03  0.19992445905E+03  0.00000000000E+00 0.  1.
<mgrwt>
<rscale>  0 0.14526092E+04</rscale>
<asrwt>0</asrwt>
<pdfrwt beam="1">  1        1 0.13358493E+00 0.14526092E+04</pdfrwt>
<pdfrwt beam="2">  1       -1 0.93465949E-01 0.14526092E+04</pdfrwt>
<totfact> 0.20854054E+01</totfact>
</mgrwt>
</event>
<event>
12    1  0.1442183E-007  0.2162561E+04  0.7818608E-02  0.8534174E-01
         -2   -1    0    0    0  501 -0.00000000000E+00  0.00000000000E+00  0.66282507597E+03  0.66282507597E+03  0.00000000000E+00 0.  1.
          2   -1    0    0  501    0  0.00000000000E+00 -0.00000000000E+00 -0.17639163217E+04  0.17639163217E+04  0.00000000000E+00 0. -1.
         23    2    1    2    0    0 -0.37898384470E+03 -0.80939939030E+03 -0.46429468977E+03  0.10111304763E+04  0.89772788725E+02 0.  0.
        254    2    1    2    0    0  0.37898384470E+03  0.80939939030E+03 -0.63679655595E+03  0.14156109214E+04  0.89425292810E+03 0.  0.
        -24    2    4    4    0    0  0.51360465063E+03  0.11739191204E+03 -0.40445613891E+03  0.66898963541E+03  0.79948519842E+02 0.  0.
         24    2    4    4    0    0 -0.13462080593E+03  0.69200747826E+03 -0.23234041704E+03  0.74662128594E+03  0.80400024077E+02 0.  0.
         11    1    3    3    0    0 -0.31211490358E+03 -0.67960088292E+03 -0.42392125860E+03  0.85964080091E+03  0.00000000000E+00 0.  1.
        -11    1    3    3    0    0 -0.66868941118E+02 -0.12979850739E+03 -0.40373431170E+02  0.15148967539E+03  0.00000000000E+00 0. -1.
          2    1    6    6  502    0 -0.14532564228E+03  0.65911955911E+03 -0.22002546155E+03  0.70990797941E+03  0.00000000000E+00 0. -1.
          3    1    5    5  503    0  0.34106670379E+03  0.70085845273E+02 -0.21917829622E+03  0.41143364918E+03  0.00000000000E+00 0. -1.
         -4    1    5    5    0  503  0.17253794683E+03  0.47306066765E+02 -0.18527784269E+03  0.25755598623E+03  0.00000000000E+00 0.  1.
         -1    1    6    6    0  502  0.10704836353E+02  0.32887919157E+02 -0.12314955487E+02  0.36713306531E+02  0.00000000000E+00 0.  1.
<mgrwt>
<rscale>  0 0.21625614E+04</rscale>
<asrwt>0</asrwt>
<pdfrwt beam="1">  1        2 0.27137174E+00 0.21625614E+04</pdfrwt>
<pdfrwt beam="2">  1       -2 0.10197309E+00 0.21625614E+04</pdfrwt>
<totfact> 0.65323470E+00</totfact>
</mgrwt>
</event>
<event>
12    1  0.1442183E-007  0.3022050E+04  0.7818608E-02  0.8237462E-01
         -2   -1    0    0    0  501 -0.00000000000E+00  0.00000000000E+00  0.14073480085E+04  0.14073480085E+04  0.00000000000E+00 0.  1.
          2   -1    0    0  501    0  0.00000000000E+00 -0.00000000000E+00 -0.16223400817E+04  0.16223400817E+04  0.00000000000E+00 0. -1.
         23    2    1    2    0    0  0.46316112340E+03  0.11162318385E+04  0.56103872611E+03  0.13354251447E+04  0.90022893404E+02 0.  0.
        254    2    1    2    0    0 -0.46316112340E+03 -0.11162318385E+04 -0.77603079928E+03  0.16942629455E+04  0.89878327954E+03 0.  0.
        -24    2    4    4    0    0 -0.55906420921E+03 -0.23727542599E+03 -0.25233815769E+03  0.66346311636E+03  0.87500532212E+02 0.  0.
         24    2    4    4    0    0  0.95903085808E+02 -0.87895641256E+03 -0.52369264159E+03  0.10307998292E+04  0.80824055503E+02 0.  0.
         13    1    3    3    0    0  0.40668600501E+02  0.98296381689E+02  0.22389972659E+02  0.10870797853E+03  0.00000000000E+00 0. -1.
        -13    1    3    3    0    0  0.42249252290E+03  0.10179354569E+04  0.53864875345E+03  0.12267171662E+04  0.00000000000E+00 0.  1.
          4    1    6    6  502    0  0.91137467260E+02 -0.85714604674E+03 -0.52346330579E+03  0.10084737061E+04  0.00000000000E+00 0. -1.
          3    1    5    5  503    0 -0.12830549679E+03 -0.78915621358E+02 -0.95990245047E+02  0.17861719666E+03  0.00000000000E+00 0. -1.
         -4    1    5    5    0  503 -0.43075871243E+03 -0.15835980463E+03 -0.15634791264E+03  0.48484591969E+03  0.00000000000E+00 0.  1.
         -3    1    6    6    0  502  0.47656185479E+01 -0.21810365822E+02 -0.22933580227E+00  0.22326123092E+02  0.00000000000E+00 0.  1.
<mgrwt>
<rscale>  0 0.30220504E+04</rscale>
<asrwt>0</asrwt>
<pdfrwt beam="1">  1        2 0.24959078E+00 0.30220504E+04</pdfrwt>
<pdfrwt beam="2">  1       -2 0.21651508E+00 0.30220504E+04</pdfrwt>
<totfact> 0.96305899E-01</totfact>
</mgrwt>
</event>
<event>
12    1  0.1442183E-007  0.1487705E+04  0.7818608E-02  0.8892671E-01
         -2   -1    0    0    0  501 -0.00000000000E+00  0.00000000000E+00  0.18752932676E+03  0.18752932676E+03  0.00000000000E+00 0.  1.
          2   -1    0    0  501    0  0.00000000000E+00 -0.00000000000E+00 -0.29505587499E+04  0.29505587499E+04  0.00000000000E+00 0. -1.
         23    2    1    2    0    0  0.30874917252E+02 -0.33778550992E+03 -0.20625152762E+03  0.40703726269E+03  0.89929579914E+02 0.  0.
        254    2    1    2    0    0 -0.30874917252E+02  0.33778550992E+03 -0.25567778955E+04  0.27310508139E+04  0.89803843474E+03 0.  0.
        -24    2    4    4    0    0  0.15739388650E+03 -0.22196341391E+03 -0.38194238954E+03  0.47609300809E+03  0.82121682855E+02 0.  0.
         24    2    4    4    0    0 -0.18826880376E+03  0.55974892383E+03 -0.21748355059E+04  0.22549578059E+04  0.78493490724E+02 0.  0.
         13    1    3    3    0    0  0.28661142505E+02 -0.15333466196E+03 -0.14416054073E+03  0.21240348668E+03  0.00000000000E+00 0. -1.
        -13    1    3    3    0    0  0.22137747473E+01 -0.18445084796E+03 -0.62090986890E+02  0.19463377601E+03  0.00000000000E+00 0.  1.
          4    1    6    6  502    0 -0.10485907728E+03  0.26489246611E+03 -0.91114426086E+03  0.95464512192E+03  0.00000000000E+00 0. -1.
          3    1    5    5  503    0  0.11174597437E+03 -0.11590592271E+03 -0.27526740298E+03  0.31889416560E+03  0.00000000000E+00 0. -1.
         -4    1    5    5    0  503  0.45647912132E+02 -0.10605749120E+03 -0.10667498656E+03  0.15719884249E+03  0.00000000000E+00 0.  1.
         -3    1    6    6    0  502 -0.83409726472E+02  0.29485645772E+03 -0.12636912451E+04  0.13003126839E+04  0.00000000000E+00 0.  1.
<mgrwt>
<rscale>  0 0.14877047E+04</rscale>
<asrwt>0</asrwt>
<pdfrwt beam="1">  1        2 0.45393212E+00 0.14877047E+04</pdfrwt>
<pdfrwt beam="2">  1       -2 0.28850665E-01 0.14877047E+04</pdfrwt>
<totfact> 0.20077873E+01</totfact>
</mgrwt>
</event>
<event>
12    1  0.1442183E-007  0.3835413E+04  0.7818608E-02  0.8038598E-01
         -2   -1    0    0    0  501 -0.00000000000E+00  0.00000000000E+00  0.14059759910E+04  0.14059759910E+04  0.00000000000E+00 0.  1.
          2   -1    0    0  501    0  0.00000000000E+00 -0.00000000000E+00 -0.26156910651E+04  0.26156910651E+04  0.00000000000E+00 0. -1.
         23    2    1    2    0    0 -0.46122965742E+03 -0.16942264630E+04 -0.10165211422E+04  0.20310092901E+04  0.92452144233E+02 0.  0.
        254    2    1    2    0    0  0.46122965742E+03  0.16942264630E+04 -0.19319393196E+03  0.19906577660E+04  0.91774633812E+03 0.  0.
        -24    2    4    4    0    0  0.23008200349E+03  0.65026960951E+02  0.16977584304E+03  0.30351284966E+03  0.78294182695E+02 0.  0.
         24    2    4    4    0    0  0.23114765392E+03  0.16291995021E+04 -0.36296977500E+03  0.16871449164E+04  0.83610141394E+02 0.  0.
         13    1    3    3    0    0 -0.21644818029E+02 -0.18300818445E+03 -0.97705773546E+02  0.20858310552E+03  0.00000000000E+00 0. -1.
        -13    1    3    3    0    0 -0.43958483939E+03 -0.15112182786E+04 -0.91881536863E+03  0.18224261846E+04  0.00000000000E+00 0.  1.
          2    1    6    6  502    0  0.15092053295E+03  0.77656683259E+03 -0.16318362050E+03  0.80775116635E+03  0.00000000000E+00 0. -1.
          3    1    5    5  503    0  0.17234252765E+03  0.40201641049E+02  0.16247144558E+03  0.24023964995E+03  0.00000000000E+00 0. -1.
         -4    1    5    5    0  503  0.57739475843E+02  0.24825319902E+02  0.73043974654E+01  0.63273199707E+02  0.00000000000E+00 0.  1.
         -1    1    6    6    0  502  0.80227120968E+02  0.85263266948E+03 -0.19978615449E+03  0.87939375000E+03  0.00000000000E+00 0.  1.
<mgrwt>
<rscale>  0 0.38354133E+04</rscale>
<asrwt>0</asrwt>
<pdfrwt beam="1">  1        2 0.40241401E+00 0.38354133E+04</pdfrwt>
<pdfrwt beam="2">  1       -2 0.21630400E+00 0.38354133E+04</pdfrwt>
<totfact> 0.24847444E-01</totfact>
</mgrwt>
</event>
<event>
12    1  0.1442183E-007  0.1313511E+04  0.7818608E-02  0.9018919E-01
         -2   -1    0    0    0  501 -0.00000000000E+00  0.00000000000E+00  0.83850555617E+03  0.83850555617E+03  0.00000000000E+00 0.  1.
          2   -1    0    0  501    0  0.00000000000E+00 -0.00000000000E+00 -0.51440064178E+03  0.51440064178E+03  0.00000000000E+00 0. -1.
         23    2    1    2    0    0  0.27194409821E+03 -0.19162561814E+03  0.15150472719E+03  0.37676197263E+03  0.91224621554E+02 0.  0.
        254    2    1    2    0    0 -0.27194409821E+03  0.19162561814E+03  0.17260018720E+03  0.97614422532E+03  0.90132832748E+03 0.  0.
        -24    2    4    4    0    0 -0.16411848842E+03  0.40609134699E+03  0.42647885929E+03  0.61709946867E+03  0.84157450478E+02 0.  0.
         24    2    4    4    0    0 -0.10782560979E+03 -0.21446572885E+03 -0.25387867208E+03  0.35904475665E+03  0.82685223336E+02 0.  0.
         13    1    3    3    0    0  0.15391339833E+03 -0.13056759279E+03  0.13507192596E+03  0.24286139186E+03  0.00000000000E+00 0.  1.
        -13    1    3    3    0    0  0.11803069988E+03 -0.61058025352E+02  0.16432801229E+02  0.13390058077E+03  0.00000000000E+00 0. -1.
          4    1    6    6  502    0 -0.83400160041E+02 -0.18668363603E+03 -0.16487547393E+03  0.26266002467E+03  0.00000000000E+00 0. -1.
          1    1    5    5  503    0 -0.16095690514E+03  0.40280730862E+03  0.43041307773E+03  0.61107795793E+03  0.00000000000E+00 0. -1.
         -2    1    5    5    0  503 -0.31615832822E+01  0.32840383758E+01 -0.39342184392E+01  0.60215107432E+01  0.00000000000E+00 0.  1.
         -3    1    6    6    0  502 -0.24425449751E+02 -0.27782092828E+02 -0.89003198155E+02  0.96384731982E+02  0.00000000000E+00 0.  1.
<mgrwt>
<rscale>  0 0.13135110E+04</rscale>
<asrwt>0</asrwt>
<pdfrwt beam="1">  1        2 0.79138560E-01 0.13135110E+04</pdfrwt>
<pdfrwt beam="2">  1       -2 0.12900085E+00 0.13135110E+04</pdfrwt>
<totfact> 0.25822492E+01</totfact>
</mgrwt>
</event>
<event>
12    1  0.1442183E-007  0.1129241E+04  0.7818608E-02  0.9177151E-01
          2   -1    0    0  501    0  0.00000000000E+00  0.00000000000E+00  0.64374053423E+03  0.64374053423E+03  0.00000000000E+00 0. -1.
         -2   -1    0    0    0  501 -0.00000000000E+00 -0.00000000000E+00 -0.49522498505E+03  0.49522498505E+03  0.00000000000E+00 0.  1.
         23    2    1    2    0    0 -0.88621844271E+02  0.85405915554E+02  0.60037259179E+02  0.16104067274E+03  0.84744463488E+02 0.  0.
        254    2    1    2    0    0  0.88621844271E+02 -0.85405915554E+02  0.88478290005E+02  0.97792484654E+03  0.96610589274E+03 0.  0.
        -24    2    4    4    0    0  0.22356063269E+03  0.20852612756E+03 -0.32076065160E+03  0.45032115307E+03  0.80244893440E+02 0.  0.
         24    2    4    4    0    0 -0.13493878842E+03 -0.29393204312E+03  0.40923894160E+03  0.52760369348E+03  0.79275617021E+02 0.  0.
         13    1    3    3    0    0 -0.54397603877E+01  0.61817596016E+02  0.16379833472E+02  0.64181812960E+02  0.00000000000E+00 0.  1.
        -13    1    3    3    0    0 -0.83182083884E+02  0.23588319539E+02  0.43657425706E+02  0.96858859776E+02  0.00000000000E+00 0. -1.
          2    1    6    6  502    0 -0.11083372987E+02 -0.54556291898E+02  0.32759231724E+02  0.64594097296E+02  0.00000000000E+00 0. -1.
          1    1    5    5  503    0  0.83381809905E+02  0.63674687274E+02 -0.60430162116E+02  0.12107351699E+03  0.00000000000E+00 0. -1.
         -2    1    5    5    0  503  0.14017882278E+03  0.14485144029E+03 -0.26033048948E+03  0.32924763608E+03  0.00000000000E+00 0.  1.
         -1    1    6    6    0  502 -0.12385541543E+03 -0.23937575122E+03  0.37647970988E+03  0.46300959618E+03  0.00000000000E+00 0.  1.
<mgrwt>
<rscale>  0 0.11292412E+04</rscale>
<asrwt>0</asrwt>
<pdfrwt beam="1">  1        2 0.99037005E-01 0.11292412E+04</pdfrwt>
<pdfrwt beam="2">  1       -2 0.76188460E-01 0.11292412E+04</pdfrwt>
<totfact> 0.69585257E+01</totfact>
</mgrwt>
</event>
<event>
12    1  0.1442183E-007  0.2010539E+04  0.7818608E-02  0.8601709E-01
          1   -1    0    0  501    0  0.00000000000E+00  0.00000000000E+00  0.19045576603E+04  0.19045576603E+04  0.00000000000E+00 0. -1.
         -1   -1    0    0    0  501 -0.00000000000E+00 -0.00000000000E+00 -0.53060459431E+03  0.53060459431E+03  0.00000000000E+00 0.  1.
         23    2    1    2    0    0  0.12885815787E+03  0.76628672008E+03  0.34241315609E+03  0.85402146901E+03  0.91138015375E+02 0.  0.
        254    2    1    2    0    0 -0.12885815787E+03 -0.76628672008E+03  0.10315399099E+04  0.15811407856E+04  0.91221260458E+03 0.  0.
        -24    2    4    4    0    0 -0.68817507898E+02 -0.73883943315E+03  0.11824935207E+04  0.13982892586E+04  0.79387446953E+02 0.  0.
         24    2    4    4    0    0 -0.60040649977E+02 -0.27447286928E+02 -0.15095361082E+03  0.18285152702E+03  0.79306084925E+02 0.  0.
         11    1    3    3    0    0  0.31256043967E+02  0.14148206751E+03  0.27164724184E+02  0.14741790241E+03  0.00000000000E+00 0. -1.
        -11    1    3    3    0    0  0.97602113907E+02  0.62480465257E+03  0.31524843190E+03  0.70660356660E+03  0.00000000000E+00 0.  1.
          2    1    6    6  502    0 -0.34471658630E+02  0.40137347621E+00 -0.13898384539E+03  0.14319555031E+03  0.00000000000E+00 0. -1.
          1    1    5    5  503    0 -0.33699041944E+02 -0.59488296808E+03  0.90136494334E+03  0.10804999455E+04  0.00000000000E+00 0. -1.
         -2    1    5    5    0  503 -0.35118465954E+02 -0.14395646507E+03  0.28112857739E+03  0.31778931308E+03  0.00000000000E+00 0.  1.
         -1    1    6    6    0  502 -0.25568991346E+02 -0.27848660404E+02 -0.11969765432E+02  0.39655976716E+02  0.00000000000E+00 0.  1.
<mgrwt>
<rscale>  0 0.20105393E+04</rscale>
<asrwt>0</asrwt>
<pdfrwt beam="1">  1        1 0.29300887E+00 0.20105393E+04</pdfrwt>
<pdfrwt beam="2">  1       -1 0.81631477E-01 0.20105393E+04</pdfrwt>
<totfact> 0.47894110E+00</totfact>
</mgrwt>
</event>
<event>
12    1  0.1442183E-007  0.2310464E+04  0.7818608E-02  0.8473807E-01
         -2   -1    0    0    0  501 -0.00000000000E+00  0.00000000000E+00  0.65347127600E+03  0.65347127600E+03  0.00000000000E+00 0.  1.
          2   -1    0    0  501    0  0.00000000000E+00 -0.00000000000E+00 -0.20422642518E+04  0.20422642518E+04  0.00000000000E+00 0. -1.
         23    2    1    2    0    0 -0.54627824810E+03 -0.60411707753E+03 -0.12173377740E+04  0.14673868197E+04  0.89081170945E+02 0.  0.
        254    2    1    2    0    0  0.54627824810E+03  0.60411707753E+03 -0.17145520179E+03  0.12283487081E+04  0.90336387721E+03 0.  0.
        -24    2    4    4    0    0 -0.15541240925E+03 -0.10639626099E+03 -0.85363513420E+02  0.22255776026E+03  0.82291226301E+02 0.  0.
         24    2    4    4    0    0  0.70169065735E+03  0.71051333852E+03 -0.86091688373E+02  0.10057909478E+04  0.83693900840E+02 0.  0.
         11    1    3    3    0    0 -0.43988891674E+03 -0.46422914643E+03 -0.10115655497E+04  0.11967772645E+04  0.00000000000E+00 0. -1.
        -11    1    3    3    0    0 -0.10638933136E+03 -0.13988793111E+03 -0.20577222428E+03  0.27060955523E+03  0.00000000000E+00 0.  1.
          4    1    6    6  502    0  0.19720416524E+01  0.16294415497E+02 -0.69101785946E+00  0.16427855318E+02  0.00000000000E+00 0. -1.
          3    1    5    5  503    0 -0.15193217557E+02  0.93464611453E+00 -0.36183048632E+02  0.39254559371E+02  0.00000000000E+00 0. -1.
         -4    1    5    5    0  503 -0.14021919169E+03 -0.10733090710E+03 -0.49180464788E+02  0.18330320089E+03  0.00000000000E+00 0.  1.
         -3    1    6    6    0  502  0.69971861570E+03  0.69421892302E+03 -0.85400670513E+02  0.98936309248E+03  0.00000000000E+00 0.  1.
<mgrwt>
<rscale>  0 0.23104640E+04</rscale>
<asrwt>0</asrwt>
<pdfrwt beam="1">  1        2 0.31419450E+00 0.23104640E+04</pdfrwt>
<pdfrwt beam="2">  1       -2 0.10053404E+00 0.23104640E+04</pdfrwt>
<totfact> 0.46753578E+00</totfact>
</mgrwt>
</event>
<event>
12    1  0.1442183E-007  0.1804056E+04  0.7818608E-02  0.8704145E-01
          1   -1    0    0  501    0  0.00000000000E+00  0.00000000000E+00  0.16303925546E+04  0.16303925546E+04  0.00000000000E+00 0. -1.
         -1   -1    0    0    0  501 -0.00000000000E+00 -0.00000000000E+00 -0.49905461828E+03  0.49905461828E+03  0.00000000000E+00 0.  1.
         23    2    1    2    0    0 -0.61156365213E+03 -0.17075971488E+03  0.14461272508E+03  0.65722022130E+03  0.88637453741E+02 0.  0.
        254    2    1    2    0    0  0.61156365213E+03  0.17075971488E+03  0.98672521122E+03  0.14722269516E+04  0.88918871656E+03 0.  0.
        -24    2    4    4    0    0 -0.60098912263E+02  0.12856619587E+03 -0.99686523825E+02  0.19163136509E+03  0.81510926124E+02 0.  0.
         24    2    4    4    0    0  0.67166256439E+03  0.42193519005E+02  0.10864117350E+04  0.12805955865E+04  0.81998198914E+02 0.  0.
         11    1    3    3    0    0 -0.58744693778E+03 -0.15965809864E+03  0.11889757541E+03  0.62025901574E+03  0.00000000000E+00 0.  1.
        -11    1    3    3    0    0 -0.24116714348E+02 -0.11101616233E+02  0.25715149674E+02  0.36961205563E+02  0.00000000000E+00 0. -1.
          2    1    6    6  502    0  0.64473278778E+03  0.53739321373E+02  0.10182120426E+04  0.12063681221E+04  0.00000000000E+00 0. -1.
          1    1    5    5  503    0 -0.51797565812E+02  0.13795785360E+03 -0.78375514690E+02  0.16690739498E+03  0.00000000000E+00 0. -1.
         -2    1    5    5    0  503 -0.83013464511E+01 -0.93916577306E+01 -0.21311009135E+02  0.24723970114E+02  0.00000000000E+00 0.  1.
         -1    1    6    6    0  502  0.26929776611E+02 -0.11545802368E+02  0.68199692435E+02  0.74227464384E+02  0.00000000000E+00 0.  1.
<mgrwt>
<rscale>  0 0.18040565E+04</rscale>
<asrwt>0</asrwt>
<pdfrwt beam="1">  1        1 0.25082962E+00 0.18040565E+04</pdfrwt>
<pdfrwt beam="2">  1       -1 0.76777634E-01 0.18040565E+04</pdfrwt>
<totfact> 0.85379058E+00</totfact>
</mgrwt>
</event>
<event>
12    1  0.1442183E-007  0.1372216E+04  0.7818608E-02  0.8974179E-01
         -2   -1    0    0    0  501 -0.00000000000E+00  0.00000000000E+00  0.22141470774E+03  0.22141470774E+03  0.00000000000E+00 0.  1.
          2   -1    0    0  501    0  0.00000000000E+00 -0.00000000000E+00 -0.21260750337E+04  0.21260750337E+04  0.00000000000E+00 0. -1.
         23    2    1    2    0    0  0.22637294719E+03 -0.26455071721E+03 -0.82701556314E+03  0.90220892601E+03  0.93778522631E+02 0.  0.
        254    2    1    2    0    0 -0.22637294719E+03  0.26455071721E+03 -0.10776447628E+04  0.14452808154E+04  0.89793463427E+03 0.  0.
        -24    2    4    4    0    0  0.26168153538E+03  0.23882285945E+03 -0.14856747560E+03  0.39255257236E+03  0.80694752633E+02 0.  0.
         24    2    4    4    0    0 -0.48805448257E+03  0.25727857758E+02 -0.92907728720E+03  0.10527282431E+04  0.78695918062E+02 0.  0.
         13    1    3    3    0    0  0.18106031193E+03 -0.25302950254E+03 -0.75188336614E+03  0.81371700362E+03  0.00000000000E+00 0. -1.
        -13    1    3    3    0    0  0.45312635264E+02 -0.11521214672E+02 -0.75132196999E+02  0.88491922388E+02  0.00000000000E+00 0.  1.
          4    1    6    6  502    0 -0.59460652810E+02 -0.12788906344E+02 -0.16432098479E+03  0.17521561403E+03  0.00000000000E+00 0. -1.
          1    1    5    5  503    0  0.81515217557E+02  0.66235708346E+02 -0.84926048772E+02  0.13507158662E+03  0.00000000000E+00 0. -1.
         -2    1    5    5    0  503  0.18016631782E+03  0.17258715110E+03 -0.63641426826E+02  0.25748098573E+03  0.00000000000E+00 0.  1.
         -3    1    6    6    0  502 -0.42859382976E+03  0.38516764102E+02 -0.76475630241E+03  0.87751262903E+03  0.00000000000E+00 0.  1.
<mgrwt>
<rscale>  0 0.13722161E+04</rscale>
<asrwt>0</asrwt>
<pdfrwt beam="1">  1        2 0.32708846E+00 0.13722161E+04</pdfrwt>
<pdfrwt beam="2">  1       -2 0.34063802E-01 0.13722161E+04</pdfrwt>
<totfact> 0.44763523E+01</totfact>
</mgrwt>
</event>
<event>
12    1  0.1442183E-007  0.1132430E+04  0.7818608E-02  0.9174147E-01
          2   -1    0    0  501    0  0.00000000000E+00  0.00000000000E+00  0.17688217717E+03  0.17688217717E+03  0.00000000000E+00 0. -1.
         -2   -1    0    0    0  501 -0.00000000000E+00 -0.00000000000E+00 -0.18125031800E+04  0.18125031800E+04  0.00000000000E+00 0.  1.
         23    2    1    2    0    0 -0.12703093934E+03 -0.21903279651E+02 -0.10079696372E+03  0.18756368796E+03  0.91670583824E+02 0.  0.
        254    2    1    2    0    0  0.12703093934E+03  0.21903279651E+02 -0.15348240392E+04  0.18018216693E+04  0.93501865404E+03 0.  0.
        -24    2    4    4    0    0  0.50717442612E+03  0.14218402657E+03 -0.95303262584E+03  0.10918443753E+04  0.80067209226E+02 0.  0.
         24    2    4    4    0    0 -0.38014348678E+03 -0.12028074692E+03 -0.58179141332E+03  0.70997729397E+03  0.81301787960E+02 0.  0.
         11    1    3    3    0    0 -0.12229169043E+03 -0.36719488965E+02 -0.54692897200E+02  0.13890605251E+03  0.00000000000E+00 0. -1.
        -11    1    3    3    0    0 -0.47392489038E+01  0.14816209314E+02 -0.46104066516E+02  0.48657635454E+02  0.00000000000E+00 0.  1.
          2    1    6    6  502    0 -0.10263251190E+03 -0.10057841042E+02 -0.10332800358E+03  0.14598379700E+03  0.00000000000E+00 0. -1.
          1    1    5    5  503    0  0.18269123181E+03  0.67129996709E+02 -0.42662626894E+03  0.46892696232E+03  0.00000000000E+00 0. -1.
         -2    1    5    5    0  503  0.32448319431E+03  0.75054029862E+02 -0.52640635690E+03  0.62291741296E+03  0.00000000000E+00 0.  1.
         -1    1    6    6    0  502 -0.27751097488E+03 -0.11022290588E+03 -0.47846340974E+03  0.56399349697E+03  0.00000000000E+00 0.  1.
<mgrwt>
<rscale>  0 0.11324301E+04</rscale>
<asrwt>0</asrwt>
<pdfrwt beam="1">  1        2 0.27212642E-01 0.11324301E+04</pdfrwt>
<pdfrwt beam="2">  1       -2 0.27884665E+00 0.11324301E+04</pdfrwt>
<totfact> 0.85027443E+00</totfact>
</mgrwt>
</event>
<event>
12    1  0.1442183E-007  0.1983039E+04  0.7818608E-02  0.8614592E-01
          2   -1    0    0  501    0  0.00000000000E+00  0.00000000000E+00  0.78177975156E+03  0.78177975156E+03  0.00000000000E+00 0. -1.
         -2   -1    0    0    0  501 -0.00000000000E+00 -0.00000000000E+00 -0.12575293656E+04  0.12575293656E+04  0.00000000000E+00 0.  1.
         23    2    1    2    0    0 -0.31631729449E+03  0.58155436060E+03  0.24002252048E+03  0.71042989896E+03  0.94009179680E+02 0.  0.
        254    2    1    2    0    0  0.31631729449E+03 -0.58155436060E+03 -0.71577213447E+03  0.13288792182E+04  0.90295521642E+03 0.  0.
        -24    2    4    4    0    0  0.80137269805E+02  0.18253047416E+03  0.48063928972E+02  0.21980728405E+03  0.79156457991E+02 0.  0.
         24    2    4    4    0    0  0.23618002469E+03 -0.76408483476E+03 -0.76383606344E+03  0.11090719341E+04  0.83596557636E+02 0.  0.
         11    1    3    3    0    0 -0.13001037378E+03  0.15098326870E+03  0.80649990006E+02  0.21494898372E+03  0.00000000000E+00 0.  1.
        -11    1    3    3    0    0 -0.18630692072E+03  0.43057109190E+03  0.15937253047E+03  0.49548091523E+03  0.00000000000E+00 0. -1.
          2    1    6    6  502    0  0.17971666678E+02 -0.70938676047E+02 -0.10634925031E+03  0.12909469240E+03  0.00000000000E+00 0. -1.
          1    1    5    5  503    0  0.29975580325E+01  0.19664117023E+02  0.33562070279E+02  0.39013784921E+02  0.00000000000E+00 0. -1.
         -2    1    5    5    0  503  0.77139711772E+02  0.16286635714E+03  0.14501858693E+02  0.18079349913E+03  0.00000000000E+00 0.  1.
         -1    1    6    6    0  502  0.21820835801E+03 -0.69314615872E+03 -0.65748681313E+03  0.97997724172E+03  0.00000000000E+00 0.  1.
<mgrwt>
<rscale>  0 0.19830391E+04</rscale>
<asrwt>0</asrwt>
<pdfrwt beam="1">  1        2 0.12027381E+00 0.19830391E+04</pdfrwt>
<pdfrwt beam="2">  1       -2 0.19346605E+00 0.19830391E+04</pdfrwt>
<totfact> 0.48522752E+00</totfact>
</mgrwt>
</event>
<event>
12    1  0.1442183E-007  0.2037453E+04  0.7818608E-02  0.8589308E-01
          2   -1    0    0  501    0  0.00000000000E+00  0.00000000000E+00  0.14747418890E+04  0.14747418890E+04  0.00000000000E+00 0.  1.
         -2   -1    0    0    0  501 -0.00000000000E+00 -0.00000000000E+00 -0.70371871191E+03  0.70371871191E+03  0.00000000000E+00 0. -1.
         23    2    1    2    0    0 -0.37802924482E+03  0.61030826559E+02  0.10855553340E+04  0.11546824545E+04  0.90721088132E+02 0.  0.
        254    2    1    2    0    0  0.37802924482E+03 -0.61030826559E+02 -0.31453215687E+03  0.10237781465E+04  0.89585732331E+03 0.  0.
        -24    2    4    4    0    0  0.50053881730E+03  0.97150296857E+02 -0.51577789564E+03  0.72960954747E+03  0.79535943657E+02 0.  0.
         24    2    4    4    0    0 -0.12250957248E+03 -0.15818112342E+03  0.20124573877E+03  0.29416859898E+03  0.77494864963E+02 0.  0.
         11    1    3    3    0    0 -0.36567408890E+02 -0.59601793987E+01  0.19636842515E+03  0.19983307416E+03  0.00000000000E+00 0. -1.
        -11    1    3    3    0    0 -0.34146183593E+03  0.66991005958E+02  0.88918690884E+03  0.95484938034E+03  0.00000000000E+00 0.  1.
          2    1    6    6  502    0 -0.11141504187E+03 -0.16482050298E+03  0.19832651985E+03  0.28091372027E+03  0.00000000000E+00 0. -1.
          3    1    5    5  503    0  0.30559429469E+03  0.97431404688E+02 -0.33375887454E+03  0.46289927403E+03  0.00000000000E+00 0. -1.
         -4    1    5    5    0  503  0.19494452261E+03 -0.28110783154E+00 -0.18201902110E+03  0.26671027344E+03  0.00000000000E+00 0.  1.
         -1    1    6    6    0  502 -0.11094530612E+02  0.66393795653E+01  0.29192189198E+01  0.13254878710E+02  0.00000000000E+00 0.  1.
<mgrwt>
<rscale>  0 0.20374528E+04</rscale>
<asrwt>0</asrwt>
<pdfrwt beam="1">  1        2 0.22688337E+00 0.20374528E+04</pdfrwt>
<pdfrwt beam="2">  1       -2 0.10826442E+00 0.20374528E+04</pdfrwt>
<totfact> 0.82980492E+00</totfact>
</mgrwt>
</event>
<event>
12    1  0.1442183E-007  0.1450268E+04  0.7818608E-02  0.8918215E-01
          2   -1    0    0  501    0  0.00000000000E+00  0.00000000000E+00  0.25055210509E+03  0.25055210509E+03  0.00000000000E+00 0. -1.
         -2   -1    0    0    0  501 -0.00000000000E+00 -0.00000000000E+00 -0.20986421579E+04  0.20986421579E+04  0.00000000000E+00 0.  1.
         23    2    1    2    0    0 -0.28052994079E+03  0.17505869924E+03 -0.10316049749E+04  0.10869774826E+04  0.89267169479E+02 0.  0.
        254    2    1    2    0    0  0.28052994079E+03 -0.17505869924E+03 -0.81648507787E+03  0.12622167804E+04  0.90399154995E+03 0.  0.
        -24    2    4    4    0    0 -0.84437628349E+02  0.79283465776E+02  0.14368815209E+03  0.20096552779E+03  0.79531611840E+02 0.  0.
         24    2    4    4    0    0  0.36496756914E+03 -0.25434216502E+03 -0.96017322995E+03  0.10612512526E+04  0.80189314374E+02 0.  0.
         11    1    3    3    0    0 -0.30139967453E+02  0.58743983206E+02 -0.17920921058E+03  0.19098485374E+03  0.00000000000E+00 0. -1.
        -11    1    3    3    0    0 -0.25038997334E+03  0.11631471604E+03 -0.85239576435E+03  0.89599262887E+03  0.00000000000E+00 0.  1.
          4    1    6    6  502    0  0.11826962192E+03 -0.56997025592E+02 -0.35656892060E+03  0.37997073510E+03  0.00000000000E+00 0. -1.
          3    1    5    5  503    0 -0.53101995348E+01  0.23327494758E+02  0.83553413467E+02  0.86911122031E+02  0.00000000000E+00 0. -1.
         -4    1    5    5    0  503 -0.79127428814E+02  0.55955971018E+02  0.60134738619E+02  0.11405440575E+03  0.00000000000E+00 0.  1.
         -3    1    6    6    0  502  0.24669794722E+03 -0.19734513942E+03 -0.60360430936E+03  0.68128051748E+03  0.00000000000E+00 0.  1.
<mgrwt>
<rscale>  0 0.14502679E+04</rscale>
<asrwt>0</asrwt>
<pdfrwt beam="1">  1        2 0.38546476E-01 0.14502679E+04</pdfrwt>
<pdfrwt beam="2">  1       -2 0.32286804E+00 0.14502679E+04</pdfrwt>
<totfact> 0.30107857E+00</totfact>
</mgrwt>
</event>
<event>
12    1  0.1442183E-007  0.1771933E+04  0.7818608E-02  0.8721369E-01
          4   -1    0    0  501    0  0.00000000000E+00  0.00000000000E+00  0.99892129944E+03  0.99892129944E+03  0.00000000000E+00 0. -1.
         -4   -1    0    0    0  501 -0.00000000000E+00 -0.00000000000E+00 -0.78578401768E+03  0.78578401768E+03  0.00000000000E+00 0.  1.
         23    2    1    2    0    0 -0.65527785212E+03 -0.19785164545E+02  0.68457297340E+02  0.66406640996E+03  0.80729666571E+02 0.  0.
        254    2    1    2    0    0  0.65527785212E+03  0.19785164545E+02  0.14467998442E+03  0.11206389072E+04  0.89728409444E+03 0.  0.
        -24    2    4    4    0    0  0.23193735472E+03  0.16491474962E+03 -0.34384240882E+03  0.45372740759E+03  0.81542302778E+02 0.  0.
         24    2    4    4    0    0  0.42334049740E+03 -0.14512958508E+03  0.48852239324E+03  0.66691149956E+03  0.76400565140E+02 0.  0.
         13    1    3    3    0    0 -0.12097929256E+03  0.13502826705E+02 -0.13567931526E+02  0.12248430235E+03  0.00000000000E+00 0. -1.
        -13    1    3    3    0    0 -0.53429855956E+03 -0.33287991250E+02  0.82025228867E+02  0.54158210761E+03  0.00000000000E+00 0.  1.
          2    1    6    6  502    0  0.24568171950E+03 -0.81237678917E+02  0.22608169050E+03  0.34361606271E+03  0.00000000000E+00 0. -1.
          3    1    5    5  503    0  0.24795950465E+02 -0.63566130582E+01 -0.17784304883E+02  0.31169330907E+02  0.00000000000E+00 0. -1.
         -4    1    5    5    0  503  0.20714140426E+03  0.17127136268E+03 -0.32605810394E+03  0.42255807669E+03  0.00000000000E+00 0.  1.
         -1    1    6    6    0  502  0.17765877790E+03 -0.63891906158E+02  0.26244070274E+03  0.32329543686E+03  0.00000000000E+00 0.  1.
<mgrwt>
<rscale>  0 0.17719327E+04</rscale>
<asrwt>0</asrwt>
<pdfrwt beam="1">  1        4 0.15368020E+00 0.17719327E+04</pdfrwt>
<pdfrwt beam="2">  1       -4 0.12088985E+00 0.17719327E+04</pdfrwt>
<totfact> 0.27467477E-01</totfact>
</mgrwt>
</event>
<event>
12    1  0.1442183E-007  0.2797529E+04  0.7818608E-02  0.8304036E-01
         -2   -1    0    0    0  501 -0.00000000000E+00  0.00000000000E+00  0.22950534523E+04  0.22950534523E+04  0.00000000000E+00 0.  1.
          2   -1    0    0  501    0  0.00000000000E+00 -0.00000000000E+00 -0.85250392698E+03  0.85250392698E+03  0.00000000000E+00 0. -1.
         23    2    1    2    0    0  0.46918137624E+03  0.86662980122E+02  0.19663293387E+04  0.20258772198E+04  0.10042811195E+03 0.  0.
        254    2    1    2    0    0 -0.46918137624E+03 -0.86662980122E+02 -0.52377981341E+03  0.11216801594E+04  0.86958579289E+03 0.  0.
        -24    2    4    4    0    0 -0.69422283817E+03  0.23458271490E+02 -0.25127607723E+03  0.74305422407E+03  0.80587054695E+02 0.  0.
         24    2    4    4    0    0  0.22504146193E+03 -0.11012125161E+03 -0.27250373617E+03  0.37862593536E+03  0.79554780200E+02 0.  0.
         13    1    3    3    0    0  0.25543988441E+03  0.75874805158E+02  0.91630064378E+03  0.95426065118E+03  0.00000000000E+00 0. -1.
        -13    1    3    3    0    0  0.21374149183E+03  0.10788174964E+02  0.10500286949E+04  0.10716165686E+04  0.00000000000E+00 0.  1.
          2    1    6    6  502    0  0.96894411058E+02 -0.84575852304E+02 -0.10404379021E+03  0.16542887284E+03  0.00000000000E+00 0. -1.
          3    1    5    5  503    0 -0.88784222304E+02  0.82251036122E+01 -0.61758753345E+02  0.10846397593E+03  0.00000000000E+00 0. -1.
         -4    1    5    5    0  503 -0.60543861586E+03  0.15233167878E+02 -0.18951732389E+03  0.63459024814E+03  0.00000000000E+00 0.  1.
         -1    1    6    6    0  502  0.12814705087E+03 -0.25545399308E+02 -0.16845994596E+03  0.21319706252E+03  0.00000000000E+00 0.  1.
<mgrwt>
<rscale>  0 0.27975290E+04</rscale>
<asrwt>0</asrwt>
<pdfrwt beam="1">  1        2 0.13115445E+00 0.27975290E+04</pdfrwt>
<pdfrwt beam="2">  1       -2 0.35308514E+00 0.27975290E+04</pdfrwt>
<totfact> 0.40924224E-01</totfact>
</mgrwt>
</event>
<event>
12    1  0.1442183E-007  0.3329660E+04  0.7818608E-02  0.8155389E-01
          2   -1    0    0  501    0  0.00000000000E+00  0.00000000000E+00  0.17707383179E+04  0.17707383179E+04  0.00000000000E+00 0.  1.
         -2   -1    0    0    0  501 -0.00000000000E+00 -0.00000000000E+00 -0.15652561112E+04  0.15652561112E+04  0.00000000000E+00 0. -1.
         23    2    1    2    0    0  0.54426175738E+03  0.12864966469E+04 -0.55633290078E+03  0.15065546576E+04  0.94372437259E+02 0.  0.
        254    2    1    2    0    0 -0.54426175738E+03 -0.12864966469E+04  0.76181510745E+03  0.18294397715E+04  0.90288046632E+03 0.  0.
        -24    2    4    4    0    0 -0.61464152014E+03 -0.13333209166E+04  0.51643688105E+03  0.15582040563E+04  0.75920774936E+02 0.  0.
         24    2    4    4    0    0  0.70379762754E+02  0.46824269672E+02  0.24537822639E+03  0.27123571518E+03  0.78819515137E+02 0.  0.
         13    1    3    3    0    0  0.43137764331E+02  0.14542516506E+03 -0.35180825903E+02  0.15571459744E+03  0.00000000000E+00 0.  1.
        -13    1    3    3    0    0  0.50112399305E+03  0.11410714818E+04 -0.52115207488E+03  0.13508400602E+04  0.00000000000E+00 0. -1.
          2    1    6    6  502    0  0.27854192158E+02  0.27632701314E+02  0.26276339230E+02  0.47221480345E+02  0.00000000000E+00 0. -1.
          3    1    5    5  503    0 -0.83766522488E+02 -0.21905919969E+03  0.58390768713E+02  0.24168832229E+03  0.00000000000E+00 0. -1.
         -4    1    5    5    0  503 -0.53087499765E+03 -0.11142617169E+04  0.45804611234E+03  0.13165157340E+04  0.00000000000E+00 0.  1.
         -1    1    6    6    0  502  0.42525570596E+02  0.19191568358E+02  0.21910188716E+03  0.22401423484E+03  0.00000000000E+00 0.  1.
<mgrwt>
<rscale>  0 0.33296600E+04</rscale>
<asrwt>0</asrwt>
<pdfrwt beam="1">  1        2 0.27242128E+00 0.33296600E+04</pdfrwt>
<pdfrwt beam="2">  1       -2 0.24080863E+00 0.33296600E+04</pdfrwt>
<totfact> 0.54656127E-01</totfact>
</mgrwt>
</event>
<event>
12    1  0.1442183E-007  0.2990077E+04  0.7818608E-02  0.8246570E-01
          1   -1    0    0  501    0  0.00000000000E+00  0.00000000000E+00  0.18265355347E+04  0.18265355347E+04  0.00000000000E+00 0. -1.
         -1   -1    0    0    0  501 -0.00000000000E+00 -0.00000000000E+00 -0.12237050102E+04  0.12237050102E+04  0.00000000000E+00 0.  1.
         23    2    1    2    0    0 -0.44735851907E+03 -0.12842549977E+04  0.29580013564E+03  0.13947964893E+04  0.92298334603E+02 0.  0.
        254    2    1    2    0    0  0.44735851907E+03  0.12842549977E+04  0.30703038891E+03  0.16554440557E+04  0.89262916048E+03 0.  0.
        -24    2    4    4    0    0  0.40083935383E+03  0.13156301520E+04  0.47292638272E+02  0.13784171367E+04  0.79008384642E+02 0.  0.
         24    2    4    4    0    0  0.46519165235E+02 -0.31375154304E+02  0.25973775063E+03  0.27702691894E+03  0.78305693744E+02 0.  0.
         13    1    3    3    0    0 -0.33765745041E+03 -0.95597581181E+03  0.26111053230E+03  0.10469388791E+04  0.00000000000E+00 0. -1.
        -13    1    3    3    0    0 -0.10970106865E+03 -0.32827918586E+03  0.34689603347E+02  0.34785761011E+03  0.00000000000E+00 0.  1.
          4    1    6    6  502    0  0.41715111352E+02  0.17278994871E+02  0.94942848583E+02  0.10513257666E+03  0.00000000000E+00 0. -1.
          1    1    5    5  503    0  0.18233172177E+03  0.73166044127E+03  0.32148438723E+02  0.75472205493E+03  0.00000000000E+00 0. -1.
         -2    1    5    5    0  503  0.21850763206E+03  0.58396971071E+03  0.15144199550E+02  0.62369508181E+03  0.00000000000E+00 0.  1.
         -3    1    6    6    0  502  0.48040538831E+01 -0.48654149174E+02  0.16479490205E+03  0.17189434228E+03  0.00000000000E+00 0.  1.
<mgrwt>
<rscale>  0 0.29900774E+04</rscale>
<asrwt>0</asrwt>
<pdfrwt beam="1">  1        1 0.28100547E+00 0.29900774E+04</pdfrwt>
<pdfrwt beam="2">  1       -1 0.18826231E+00 0.29900774E+04</pdfrwt>
<totfact> 0.60505639E-01</totfact>
</mgrwt>
</event>
<event>
12    1  0.1442183E-007  0.1049143E+04  0.7818608E-02  0.9256230E-01
          1   -1    0    0  501    0  0.00000000000E+00  0.00000000000E+00  0.15208922329E+04  0.15208922329E+04  0.00000000000E+00 0. -1.
         -1   -1    0    0    0  501 -0.00000000000E+00 -0.00000000000E+00 -0.18093003546E+03  0.18093003546E+03  0.00000000000E+00 0.  1.
         23    2    1    2    0    0 -0.50387612170E+02 -0.41747761933E+02  0.50491940091E+02  0.12238958656E+03  0.90266205186E+02 0.  0.
        254    2    1    2    0    0  0.50387612170E+02  0.41747761933E+02  0.12894702574E+04  0.15794326818E+04  0.90972098177E+03 0.  0.
        -24    2    4    4    0    0  0.13039361768E+03  0.44827512666E+03  0.83077068411E+03  0.95614126515E+03  0.77930126555E+02 0.  0.
         24    2    4    4    0    0 -0.80006005513E+02 -0.40652736473E+03  0.45869957324E+03  0.62329141665E+03  0.80133840531E+02 0.  0.
         11    1    3    3    0    0 -0.13760252041E+02 -0.56986612443E+02  0.57343459485E+00  0.58627189606E+02  0.00000000000E+00 0.  1.
        -11    1    3    3    0    0 -0.36627360129E+02  0.15238850510E+02  0.49918505496E+02  0.63762396958E+02  0.00000000000E+00 0. -1.
          2    1    6    6  502    0 -0.20160917514E+02 -0.46096387512E+02  0.96456830779E+02  0.10878997996E+03  0.00000000000E+00 0. -1.
          1    1    5    5  503    0  0.46970711661E+01  0.14541490006E+01  0.51274507170E+00  0.49436761994E+01  0.00000000000E+00 0. -1.
         -2    1    5    5    0  503  0.12569654652E+03  0.44682097766E+03  0.83025793904E+03  0.95119758895E+03  0.00000000000E+00 0.  1.
         -1    1    6    6    0  502 -0.59845088000E+02 -0.36043097721E+03  0.36224274246E+03  0.51450143669E+03  0.00000000000E+00 0.  1.
<mgrwt>
<rscale>  0 0.10491427E+04</rscale>
<asrwt>0</asrwt>
<pdfrwt beam="1">  1        1 0.23398341E+00 0.10491427E+04</pdfrwt>
<pdfrwt beam="2">  1       -1 0.27835391E-01 0.10491427E+04</pdfrwt>
<totfact> 0.73569141E+01</totfact>
</mgrwt>
</event>
<event>
12    1  0.1442183E-007  0.1694464E+04  0.7818608E-02  0.8764528E-01
          1   -1    0    0  501    0  0.00000000000E+00  0.00000000000E+00  0.84932451392E+03  0.84932451392E+03  0.00000000000E+00 0. -1.
         -1   -1    0    0    0  501 -0.00000000000E+00 -0.00000000000E+00 -0.84514471107E+03  0.84514471107E+03  0.00000000000E+00 0.  1.
         23    2    1    2    0    0 -0.28347427042E+03 -0.45263663123E+03  0.28219034031E+03  0.61101319921E+03  0.92022603331E+02 0.  0.
        254    2    1    2    0    0  0.28347427042E+03  0.45263663123E+03 -0.27801053745E+03  0.10834560258E+04  0.90074942073E+03 0.  0.
        -24    2    4    4    0    0 -0.28588396105E+03  0.67866893855E+01  0.18532529010E+02  0.29774431261E+03  0.80824023175E+02 0.  0.
         24    2    4    4    0    0  0.56935823146E+03  0.44584994185E+03 -0.29654306646E+03  0.78571171318E+03  0.80337659757E+02 0.  0.
         13    1    3    3    0    0 -0.12168926760E+03 -0.19417951540E+03  0.70292395481E+02  0.23969769067E+03  0.00000000000E+00 0.  1.
        -13    1    3    3    0    0 -0.16178500282E+03 -0.25845711583E+03  0.21189794482E+03  0.37131550854E+03  0.00000000000E+00 0. -1.
          2    1    6    6  502    0  0.55083000358E+03  0.40901126876E+03 -0.27450734963E+03  0.73895750610E+03  0.00000000000E+00 0. -1.
          3    1    5    5  503    0 -0.24817597026E+03  0.33372579970E+02  0.86453046513E+01  0.25055894038E+03  0.00000000000E+00 0. -1.
         -4    1    5    5    0  503 -0.37707990782E+02 -0.26585890584E+02  0.98872243586E+01  0.47185372230E+02  0.00000000000E+00 0.  1.
         -1    1    6    6    0  502  0.18528227885E+02  0.36838673087E+02 -0.22035716832E+02  0.46754207080E+02  0.00000000000E+00 0.  1.
<mgrwt>
<rscale>  0 0.16944641E+04</rscale>
<asrwt>0</asrwt>
<pdfrwt beam="1">  1        1 0.13066531E+00 0.16944641E+04</pdfrwt>
<pdfrwt beam="2">  1       -1 0.13002226E+00 0.16944641E+04</pdfrwt>
<totfact> 0.96803585E+00</totfact>
</mgrwt>
</event>
<event>
12    1  0.1442183E-007  0.1152900E+04  0.7818608E-02  0.9155113E-01
         -1   -1    0    0    0  501 -0.00000000000E+00  0.00000000000E+00  0.43945283051E+03  0.43945283051E+03  0.00000000000E+00 0.  1.
          1   -1    0    0  501    0  0.00000000000E+00 -0.00000000000E+00 -0.75615504011E+03  0.75615504011E+03  0.00000000000E+00 0. -1.
         23    2    1    2    0    0  0.16873970986E+03 -0.10918783603E+02 -0.18326643617E+03  0.26468403421E+03  0.88762277012E+02 0.  0.
        254    2    1    2    0    0 -0.16873970986E+03  0.10918783603E+02 -0.13343577343E+03  0.93092383640E+03  0.90566095976E+03 0.  0.
        -24    2    4    4    0    0 -0.18279767068E+03 -0.37967947932E+03 -0.27355273126E+03  0.50827503673E+03  0.77077368681E+02 0.  0.
         24    2    4    4    0    0  0.14057960819E+02  0.39059826293E+03  0.14011695783E+03  0.42264879967E+03  0.78959589208E+02 0.  0.
         11    1    3    3    0    0  0.79527715201E+02 -0.44747892659E+02 -0.11763652792E+03  0.14888043553E+03  0.00000000000E+00 0. -1.
        -11    1    3    3    0    0  0.89211994660E+02  0.33829109055E+02 -0.65629908253E+02  0.11580359868E+03  0.00000000000E+00 0.  1.
          4    1    6    6  502    0  0.39485423367E+02  0.18219241598E+03  0.42964918210E+02  0.19130906746E+03  0.00000000000E+00 0. -1.
          3    1    5    5  503    0 -0.16415831590E+03 -0.33984224920E+03 -0.21279698153E+03  0.43327042637E+03  0.00000000000E+00 0. -1.
         -4    1    5    5    0  503 -0.18639354785E+02 -0.39837230123E+02 -0.60755749729E+02  0.75004610363E+02  0.00000000000E+00 0.  1.
         -3    1    6    6    0  502 -0.25427462548E+02  0.20840584695E+03  0.97152039615E+02  0.23133973221E+03  0.00000000000E+00 0.  1.
<mgrwt>
<rscale>  0 0.11528998E+04</rscale>
<asrwt>0</asrwt>
<pdfrwt beam="1">  1        1 0.11633155E+00 0.11528998E+04</pdfrwt>
<pdfrwt beam="2">  1       -1 0.67608128E-01 0.11528998E+04</pdfrwt>
<totfact> 0.53212628E+01</totfact>
</mgrwt>
</event>
<event>
12    1  0.1442183E-007  0.1936195E+04  0.7818608E-02  0.8637047E-01
         -2   -1    0    0    0  501 -0.00000000000E+00  0.00000000000E+00  0.78116555897E+03  0.78116555897E+03  0.00000000000E+00 0.  1.
          2   -1    0    0  501    0  0.00000000000E+00 -0.00000000000E+00 -0.11997616673E+04  0.11997616673E+04  0.00000000000E+00 0. -1.
         23    2    1    2    0    0 -0.37275924207E+03  0.40374149973E+03 -0.69269672915E+03  0.88900085065E+03  0.92396443289E+02 0.  0.
        254    2    1    2    0    0  0.37275924207E+03 -0.40374149973E+03  0.27410062084E+03  0.10919263756E+04  0.90289279996E+03 0.  0.
        -24    2    4    4    0    0 -0.17786903937E+03  0.16301544794E+03  0.92084002463E+01  0.25462706210E+03  0.80862319336E+02 0.  0.
         24    2    4    4    0    0  0.55062828144E+03 -0.56675694767E+03  0.26489222060E+03  0.83729931349E+03  0.80605891805E+02 0.  0.
         11    1    3    3    0    0 -0.21271143314E+03  0.23047310719E+03 -0.46699357605E+03  0.56253622728E+03  0.00000000000E+00 0. -1.
        -11    1    3    3    0    0 -0.16004780892E+03  0.17326839254E+03 -0.22570315309E+03  0.32646462337E+03  0.00000000000E+00 0.  1.
          2    1    6    6  502    0  0.33258172567E+03 -0.37928846916E+03  0.13797159854E+03  0.52297849774E+03  0.00000000000E+00 0. -1.
          3    1    5    5  503    0 -0.17869459958E+03  0.16889188013E+03  0.14999343719E+02  0.24633555854E+03  0.00000000000E+00 0. -1.
         -4    1    5    5    0  503  0.82556020806E+00 -0.58764321923E+01 -0.57909434724E+01  0.82915035590E+01  0.00000000000E+00 0.  1.
         -1    1    6    6    0  502  0.21804655576E+03 -0.18746847851E+03  0.12692062206E+03  0.31432081576E+03  0.00000000000E+00 0.  1.
<mgrwt>
<rscale>  0 0.19361947E+04</rscale>
<asrwt>0</asrwt>
<pdfrwt beam="1">  1        2 0.18457872E+00 0.19361947E+04</pdfrwt>
<pdfrwt beam="2">  1       -2 0.12017932E+00 0.19361947E+04</pdfrwt>
<totfact> 0.93620418E+00</totfact>
</mgrwt>
</event>
<event>
12    1  0.1442183E-007  0.2307894E+04  0.7818608E-02  0.8474815E-01
         -1   -1    0    0    0  501 -0.00000000000E+00  0.00000000000E+00  0.24150547372E+04  0.24150547372E+04  0.00000000000E+00 0.  1.
          1   -1    0    0  501    0  0.00000000000E+00 -0.00000000000E+00 -0.55137193882E+03  0.55137193882E+03  0.00000000000E+00 0. -1.
         23    2    1    2    0    0  0.89024024044E+03  0.24120677145E+03  0.51393853143E+03  0.10588703005E+04  0.79781620054E+02 0.  0.
        254    2    1    2    0    0 -0.89024024044E+03 -0.24120677145E+03  0.13497442670E+04  0.19075563755E+04  0.98298186521E+03 0.  0.
        -24    2    4    4    0    0 -0.65165915626E+03  0.29360812403E+03  0.95977434091E+03  0.11992767978E+04  0.78947234711E+02 0.  0.
         24    2    4    4    0    0 -0.23858108418E+03 -0.53481489547E+03  0.38996992604E+03  0.70827957771E+03  0.81458644922E+02 0.  0.
         11    1    3    3    0    0  0.14332600298E+03  0.65824225087E+02  0.71016227628E+02  0.17296958208E+03  0.00000000000E+00 0.  1.
        -11    1    3    3    0    0  0.74691423745E+03  0.17538254636E+03  0.44292230380E+03  0.88590071841E+03  0.00000000000E+00 0. -1.
          2    1    6    6  502    0 -0.16948220036E+03 -0.45009702265E+03  0.33321275671E+03  0.58510023694E+03  0.00000000000E+00 0. -1.
          3    1    5    5  503    0 -0.54322737772E+03  0.22129358751E+03  0.81957262842E+03  0.10078522357E+04  0.00000000000E+00 0. -1.
         -4    1    5    5    0  503 -0.10843177854E+03  0.72314536521E+02  0.14020171249E+03  0.19142456209E+03  0.00000000000E+00 0.  1.
         -1    1    6    6    0  502 -0.69098883818E+02 -0.84717872822E+02  0.56757169338E+02  0.12317934077E+03  0.00000000000E+00 0.  1.
<mgrwt>
<rscale>  0 0.23078938E+04</rscale>
<asrwt>0</asrwt>
<pdfrwt beam="1">  1        1 0.84826453E-01 0.23078938E+04</pdfrwt>
<pdfrwt beam="2">  1       -1 0.37154688E+00 0.23078938E+04</pdfrwt>
<totfact> 0.38978900E-01</totfact>
</mgrwt>
</event>
<event>
12    1  0.1442183E-007  0.2127328E+04  0.7818608E-02  0.8549300E-01
          2   -1    0    0  501    0  0.00000000000E+00  0.00000000000E+00  0.12618403133E+04  0.12618403133E+04  0.00000000000E+00 0. -1.
         -2   -1    0    0    0  501 -0.00000000000E+00 -0.00000000000E+00 -0.89661170386E+03  0.89661170386E+03  0.00000000000E+00 0.  1.
         23    2    1    2    0    0 -0.66843617877E+03  0.53198960765E+03 -0.19830075726E+02  0.85931403203E+03  0.90595286899E+02 0.  0.
        254    2    1    2    0    0  0.66843617877E+03 -0.53198960765E+03  0.38505868517E+03  0.12991379851E+04  0.89981633995E+03 0.  0.
        -24    2    4    4    0    0  0.59503996824E+03 -0.62843834424E+03  0.58788397897E+03  0.10491601613E+04  0.78244200561E+02 0.  0.
         24    2    4    4    0    0  0.73396210528E+02  0.96448736593E+02 -0.20282529380E+03  0.24997782387E+03  0.81617707099E+02 0.  0.
         13    1    3    3    0    0 -0.55308901721E+03  0.45004576047E+03 -0.49403538898E+02  0.71476524617E+03  0.00000000000E+00 0.  1.
        -13    1    3    3    0    0 -0.11534716156E+03  0.81943847179E+02  0.29573463172E+02  0.14454878586E+03  0.00000000000E+00 0. -1.
          4    1    6    6  502    0 -0.17496588627E+02  0.82441380548E+01 -0.30465653384E+02  0.36086735263E+02  0.00000000000E+00 0. -1.
          1    1    5    5  503    0  0.10754875121E+03 -0.11666087932E+03  0.14584431835E+03  0.21551579952E+03  0.00000000000E+00 0. -1.
         -2    1    5    5    0  503  0.48749121703E+03 -0.51177746493E+03  0.44203966062E+03  0.83364436173E+03  0.00000000000E+00 0.  1.
         -3    1    6    6    0  502  0.90892799155E+02  0.88204598539E+02 -0.17235964042E+03  0.21389108861E+03  0.00000000000E+00 0.  1.
<mgrwt>
<rscale>  0 0.21273277E+04</rscale>
<asrwt>0</asrwt>
<pdfrwt beam="1">  1        2 0.19412928E+00 0.21273277E+04</pdfrwt>
<pdfrwt beam="2">  1       -2 0.13794026E+00 0.21273277E+04</pdfrwt>
<totfact> 0.59744255E+00</totfact>
</mgrwt>
</event>
<event>
12    1  0.1442183E-007  0.1608050E+04  0.7818608E-02  0.8815618E-01
         -1   -1    0    0    0  501 -0.00000000000E+00  0.00000000000E+00  0.27582498232E+03  0.27582498232E+03  0.00000000000E+00 0.  1.
          1   -1    0    0  501    0  0.00000000000E+00 -0.00000000000E+00 -0.23437182834E+04  0.23437182834E+04  0.00000000000E+00 0. -1.
         23    2    1    2    0    0 -0.32621108890E+03 -0.49090144089E+02 -0.26302177603E+00  0.34227865550E+03  0.91274816171E+02 0.  0.
        254    2    1    2    0    0  0.32621108890E+03  0.49090144089E+02 -0.20676302793E+04  0.22772646102E+04  0.89555324591E+03 0.  0.
        -24    2    4    4    0    0 -0.75702863417E+02  0.30536457327E+03 -0.29036065278E+03  0.43550316786E+03  0.79845190192E+02 0.  0.
         24    2    4    4    0    0  0.40191395231E+03 -0.25627442918E+03 -0.17772696265E+04  0.18417614423E+04  0.78654161033E+02 0.  0.
         11    1    3    3    0    0 -0.19508757220E+03 -0.23636652953E+02 -0.44654797728E+02  0.20152395180E+03  0.00000000000E+00 0.  1.
        -11    1    3    3    0    0 -0.13112351669E+03 -0.25453491136E+02  0.44391775952E+02  0.14075470370E+03  0.00000000000E+00 0. -1.
          2    1    6    6  502    0  0.14759392630E+03 -0.13939339741E+03 -0.77387112512E+03  0.80005687586E+03  0.00000000000E+00 0. -1.
          3    1    5    5  503    0 -0.14764781206E+02  0.19610445648E+03 -0.14898081990E+03  0.24671895208E+03  0.00000000000E+00 0. -1.
         -4    1    5    5    0  503 -0.60938082211E+02  0.10926011679E+03 -0.14137983288E+03  0.18878421578E+03  0.00000000000E+00 0.  1.
         -1    1    6    6    0  502  0.25432002602E+03 -0.11688103177E+03 -0.10033985014E+04  0.10417045665E+04  0.00000000000E+00 0.  1.
<mgrwt>
<rscale>  0 0.16080498E+04</rscale>
<asrwt>0</asrwt>
<pdfrwt beam="1">  1        1 0.36057204E+00 0.16080498E+04</pdfrwt>
<pdfrwt beam="2">  1       -1 0.42434613E-01 0.16080498E+04</pdfrwt>
<totfact> 0.91106316E+00</totfact>
</mgrwt>
</event>
<event>
12    1  0.1442183E-007  0.2161725E+04  0.7818608E-02  0.8534530E-01
          1   -1    0    0  501    0  0.00000000000E+00  0.00000000000E+00  0.22083353955E+04  0.22083353955E+04  0.00000000000E+00 0. -1.
         -1   -1    0    0    0  501 -0.00000000000E+00 -0.00000000000E+00 -0.52902457741E+03  0.52902457741E+03  0.00000000000E+00 0.  1.
         23    2    1    2    0    0  0.73033403561E+03  0.44049453463E+03  0.45397040855E+03  0.97007670139E+03  0.86812649593E+02 0.  0.
        254    2    1    2    0    0 -0.73033403561E+03 -0.44049453463E+03  0.12253404095E+04  0.17672832715E+04  0.94573135927E+03 0.  0.
        -24    2    4    4    0    0 -0.53054487296E+03 -0.63038917334E+03  0.45309422267E+03  0.94373445944E+03  0.80448637247E+02 0.  0.
         24    2    4    4    0    0 -0.19978916265E+03  0.18989463871E+03  0.77224618684E+03  0.82354881205E+03  0.76764506197E+02 0.  0.
         13    1    3    3    0    0  0.28766847980E+01 -0.19146314758E+01  0.84629022168E+01  0.91412167158E+01  0.00000000000E+00 0. -1.
        -13    1    3    3    0    0  0.72745735081E+03  0.44240916610E+03  0.44550750633E+03  0.96093548467E+03  0.00000000000E+00 0.  1.
          2    1    6    6  502    0 -0.98763032423E+00 -0.39969667037E+01  0.16370091254E+01  0.44306833970E+01  0.00000000000E+00 0. -1.
          1    1    5    5  503    0 -0.14749993337E+03 -0.17269539681E+03  0.16683377883E+03  0.28180390378E+03  0.00000000000E+00 0. -1.
         -2    1    5    5    0  503 -0.38304493959E+03 -0.45769377653E+03  0.28626044383E+03  0.66193055566E+03  0.00000000000E+00 0.  1.
         -1    1    6    6    0  502 -0.19880153233E+03  0.19389160542E+03  0.77060917772E+03  0.81911812865E+03  0.00000000000E+00 0.  1.
<mgrwt>
<rscale>  0 0.21617250E+04</rscale>
<asrwt>0</asrwt>
<pdfrwt beam="1">  1        1 0.33974390E+00 0.21617250E+04</pdfrwt>
<pdfrwt beam="2">  1       -1 0.81388398E-01 0.21617250E+04</pdfrwt>
<totfact> 0.29570180E+00</totfact>
</mgrwt>
</event>
<event>
12    1  0.1442183E-007  0.1301133E+04  0.7818608E-02  0.9028667E-01
         -1   -1    0    0    0  501 -0.00000000000E+00  0.00000000000E+00  0.47413963245E+03  0.47413963245E+03  0.00000000000E+00 0.  1.
          1   -1    0    0  501    0  0.00000000000E+00 -0.00000000000E+00 -0.89264209467E+03  0.89264209467E+03  0.00000000000E+00 0. -1.
         23    2    1    2    0    0  0.12851580551E+02  0.21166688035E+03 -0.37337216774E+03  0.43947658645E+03  0.93620847238E+02 0.  0.
        254    2    1    2    0    0 -0.12851580551E+02 -0.21166688035E+03 -0.45130294474E+02  0.92730514066E+03  0.90160415320E+03 0.  0.
        -24    2    4    4    0    0  0.23540014670E+03  0.27761267820E+03 -0.11999720046E+02  0.37180977597E+03  0.74943232241E+02 0.  0.
         24    2    4    4    0    0 -0.24825172725E+03 -0.48927955856E+03 -0.33130574428E+02  0.55549536470E+03  0.80337156607E+02 0.  0.
         11    1    3    3    0    0 -0.41582945188E+01  0.18071799274E+02 -0.11333369285E+03  0.11484079100E+03  0.00000000000E+00 0.  1.
        -11    1    3    3    0    0  0.17009875070E+02  0.19359508108E+03 -0.26003847489E+03  0.32463579546E+03  0.00000000000E+00 0. -1.
          2    1    6    6  502    0 -0.20961281713E+01 -0.21245795505E+02  0.12454988460E+02  0.24716478663E+02  0.00000000000E+00 0. -1.
          1    1    5    5  503    0  0.62909098757E+01  0.30848480603E+02  0.13210213294E+02  0.34142554647E+02  0.00000000000E+00 0. -1.
         -2    1    5    5    0  503  0.22910923682E+03  0.24676419760E+03 -0.25209933340E+02  0.33766722132E+03  0.00000000000E+00 0.  1.
         -1    1    6    6    0  502 -0.24615559908E+03 -0.46803376305E+03 -0.45585562888E+02  0.53077888603E+03  0.00000000000E+00 0.  1.
<mgrwt>
<rscale>  0 0.13011333E+04</rscale>
<asrwt>0</asrwt>
<pdfrwt beam="1">  1        1 0.13732955E+00 0.13011333E+04</pdfrwt>
<pdfrwt beam="2">  1       -1 0.72944560E-01 0.13011333E+04</pdfrwt>
<totfact> 0.34356488E+01</totfact>
</mgrwt>
</event>
<event>
12    1  0.1442183E-007  0.1413411E+04  0.7818608E-02  0.8944168E-01
         -1   -1    0    0    0  501 -0.00000000000E+00  0.00000000000E+00  0.10051734969E+04  0.10051734969E+04  0.00000000000E+00 0.  1.
          1   -1    0    0  501    0  0.00000000000E+00 -0.00000000000E+00 -0.49686181267E+03  0.49686181267E+03  0.00000000000E+00 0. -1.
         23    2    1    2    0    0  0.27774576415E+03 -0.21096932449E+03 -0.36001178387E+02  0.36380538476E+03  0.96992307711E+02 0.  0.
        254    2    1    2    0    0 -0.27774576415E+03  0.21096932449E+03  0.54431286263E+03  0.11382299248E+04  0.93682447874E+03 0.  0.
        -24    2    4    4    0    0 -0.44519299369E+03  0.47365691201E+03  0.47545043961E+03  0.80935050076E+03  0.80295956454E+02 0.  0.
         24    2    4    4    0    0  0.16744722955E+03 -0.26268758752E+03  0.68862423020E+02  0.32887942407E+03  0.79851731050E+02 0.  0.
         13    1    3    3    0    0  0.75907814935E+02 -0.44500691625E+02  0.31752968409E+02  0.93544422207E+02  0.00000000000E+00 0. -1.
        -13    1    3    3    0    0  0.20183794921E+03 -0.16646863286E+03 -0.67754146795E+02  0.27026096255E+03  0.00000000000E+00 0.  1.
          2    1    6    6  502    0  0.25202467949E+02 -0.61364649208E+02  0.47217267197E+02  0.81426377082E+02  0.00000000000E+00 0. -1.
          1    1    5    5  503    0 -0.19213924490E+03  0.22345764649E+03  0.16898546524E+03  0.33971590582E+03  0.00000000000E+00 0. -1.
         -2    1    5    5    0  503 -0.25305374880E+03  0.25019926552E+03  0.30646497437E+03  0.46963459494E+03  0.00000000000E+00 0.  1.
         -1    1    6    6    0  502  0.14224476160E+03 -0.20132293831E+03  0.21645155823E+02  0.24745304698E+03  0.00000000000E+00 0.  1.
<mgrwt>
<rscale>  0 0.14134105E+04</rscale>
<asrwt>0</asrwt>
<pdfrwt beam="1">  1        1 0.76440279E-01 0.14134105E+04</pdfrwt>
<pdfrwt beam="2">  1       -1 0.15464208E+00 0.14134105E+04</pdfrwt>
<totfact> 0.13986361E+01</totfact>
</mgrwt>
</event>
<event>
12    1  0.1442183E-007  0.3221861E+04  0.7818608E-02  0.8183067E-01
         -2   -1    0    0    0  501 -0.00000000000E+00  0.00000000000E+00  0.21550800253E+04  0.21550800253E+04  0.00000000000E+00 0.  1.
          2   -1    0    0  501    0  0.00000000000E+00 -0.00000000000E+00 -0.12041767536E+04  0.12041767536E+04  0.00000000000E+00 0. -1.
         23    2    1    2    0    0  0.78067937892E+03  0.93363513306E+03 -0.43661517343E+03  0.12963375470E+04  0.93398992129E+02 0.  0.
        254    2    1    2    0    0 -0.78067937892E+03 -0.93363513306E+03  0.13875184452E+04  0.20629192319E+04  0.92157119489E+03 0.  0.
        -24    2    4    4    0    0 -0.48018020171E+02  0.13551544282E+03  0.39682669001E+03  0.42958671488E+03  0.80019736225E+02 0.  0.
         24    2    4    4    0    0 -0.73266135874E+03 -0.10691505759E+04  0.99069175518E+03  0.16333325170E+04  0.80183145865E+02 0.  0.
         13    1    3    3    0    0  0.15492859203E+03  0.22575511072E+03 -0.12938418579E+03  0.30283412320E+03  0.00000000000E+00 0.  1.
        -13    1    3    3    0    0  0.62575078689E+03  0.70788002234E+03 -0.30723098764E+03  0.99350342379E+03  0.00000000000E+00 0. -1.
          4    1    6    6  502    0 -0.66947611787E+03 -0.93209830283E+03  0.88026151280E+03  0.14463284030E+04  0.00000000000E+00 0. -1.
          3    1    5    5  503    0 -0.46818251120E+02  0.13626940069E+03  0.30059553003E+03  0.33334512277E+03  0.00000000000E+00 0. -1.
         -4    1    5    5    0  503 -0.11997690504E+01 -0.75395787072E+00  0.96231159988E+02  0.96241592105E+02  0.00000000000E+00 0.  1.
         -3    1    6    6    0  502 -0.63185240878E+02 -0.13705227306E+03  0.11043024237E+03  0.18700411398E+03  0.00000000000E+00 0.  1.
<mgrwt>
<rscale>  0 0.32218611E+04</rscale>
<asrwt>0</asrwt>
<pdfrwt beam="1">  1        2 0.18525796E+00 0.32218611E+04</pdfrwt>
<pdfrwt beam="2">  1       -2 0.33155077E+00 0.32218611E+04</pdfrwt>
<totfact> 0.32128673E-01</totfact>
</mgrwt>
</event>
<event>
12    1  0.1442183E-007  0.1746513E+04  0.7818608E-02  0.8735272E-01
          2   -1    0    0  501    0  0.00000000000E+00  0.00000000000E+00  0.61445749315E+03  0.61445749315E+03  0.00000000000E+00 0. -1.
         -2   -1    0    0    0  501 -0.00000000000E+00 -0.00000000000E+00 -0.12410569907E+04  0.12410569907E+04  0.00000000000E+00 0.  1.
         23    2    1    2    0    0  0.27195413352E+03 -0.54872673796E+03 -0.36199689806E+02  0.62058521949E+03  0.93570900478E+02 0.  0.
        254    2    1    2    0    0 -0.27195413352E+03  0.54872673796E+03 -0.59039980770E+03  0.12349292643E+04  0.89521967764E+03 0.  0.
        -24    2    4    4    0    0 -0.30147587413E+03  0.29939501668E+03 -0.79246929385E+03  0.90254843632E+03  0.77852549754E+02 0.  0.
         24    2    4    4    0    0  0.29521740608E+02  0.24933172128E+03  0.20206948615E+03  0.33238082800E+03  0.81284052463E+02 0.  0.
         13    1    3    3    0    0  0.21491199146E+03 -0.33622789660E+03 -0.11850238530E+02  0.39922022829E+03  0.00000000000E+00 0. -1.
        -13    1    3    3    0    0  0.57042142064E+02 -0.21249884137E+03 -0.24349451276E+02  0.22136499121E+03  0.00000000000E+00 0.  1.
          4    1    6    6  502    0  0.28069102364E+01  0.13183606586E+03  0.56629831244E+02  0.14351154933E+03  0.00000000000E+00 0. -1.
          3    1    5    5  503    0 -0.76925141330E+02  0.48157534119E+02 -0.22442073596E+03  0.24207703771E+03  0.00000000000E+00 0. -1.
         -4    1    5    5    0  503 -0.22455073280E+03  0.25123748256E+03 -0.56804855790E+03  0.66047139860E+03  0.00000000000E+00 0.  1.
         -3    1    6    6    0  502  0.26714830372E+02  0.11749565543E+03  0.14543965491E+03  0.18886927867E+03  0.00000000000E+00 0.  1.
<mgrwt>
<rscale>  0 0.17465128E+04</rscale>
<asrwt>0</asrwt>
<pdfrwt beam="1">  1        2 0.94531923E-01 0.17465128E+04</pdfrwt>
<pdfrwt beam="2">  1       -2 0.19093184E+00 0.17465128E+04</pdfrwt>
<totfact> 0.69730601E+00</totfact>
</mgrwt>
</event>
<event>
12    1  0.1442183E-007  0.1577718E+04  0.7818608E-02  0.8834355E-01
          1   -1    0    0  501    0  0.00000000000E+00  0.00000000000E+00  0.10759416826E+04  0.10759416826E+04  0.00000000000E+00 0. -1.
         -1   -1    0    0    0  501 -0.00000000000E+00 -0.00000000000E+00 -0.57837587653E+03  0.57837587653E+03  0.00000000000E+00 0.  1.
         23    2    1    2    0    0 -0.54638737844E+02  0.51399390512E+03  0.45771701857E+02  0.52645129641E+03  0.88773828505E+02 0.  0.
        254    2    1    2    0    0  0.54638737844E+02 -0.51399390512E+03  0.45179410426E+03  0.11278662628E+04  0.89486829638E+03 0.  0.
        -24    2    4    4    0    0  0.18060649671E+03 -0.18071081905E+03 -0.23147320144E+03  0.35323497765E+03  0.76941534130E+02 0.  0.
         24    2    4    4    0    0 -0.12596775887E+03 -0.33328308607E+03  0.68326730570E+03  0.77463128512E+03  0.79081762193E+02 0.  0.
         11    1    3    3    0    0 -0.21846320951E+02  0.29333993303E+03 -0.17204500001E+02  0.29465500652E+03  0.00000000000E+00 0.  1.
        -11    1    3    3    0    0 -0.32792416892E+02  0.22065397209E+03  0.62976201859E+02  0.23179628989E+03  0.00000000000E+00 0. -1.
          4    1    6    6  502    0 -0.44531718640E+02 -0.37745540884E+02  0.11335473590E+03  0.12750331750E+03  0.00000000000E+00 0. -1.
          1    1    5    5  503    0  0.69496764245E+01  0.42533748461E+00  0.48922175187E+01  0.85095655959E+01  0.00000000000E+00 0. -1.
         -2    1    5    5    0  503  0.17365682029E+03 -0.18113615654E+03 -0.23636541896E+03  0.34472541205E+03  0.00000000000E+00 0.  1.
         -3    1    6    6    0  502 -0.81436040227E+02 -0.29553754519E+03  0.56991256979E+03  0.64712796761E+03  0.00000000000E+00 0.  1.
<mgrwt>
<rscale>  0 0.15777182E+04</rscale>
<asrwt>0</asrwt>
<pdfrwt beam="1">  1        1 0.16552949E+00 0.15777182E+04</pdfrwt>
<pdfrwt beam="2">  1       -1 0.88980904E-01 0.15777182E+04</pdfrwt>
<totfact> 0.15746488E+01</totfact>
</mgrwt>
</event>
<event>
12    1  0.1442183E-007  0.1263308E+04  0.7818608E-02  0.9059179E-01
         -1   -1    0    0    0  501 -0.00000000000E+00  0.00000000000E+00  0.36060819973E+03  0.36060819973E+03  0.00000000000E+00 0.  1.
          1   -1    0    0  501    0  0.00000000000E+00 -0.00000000000E+00 -0.11064281339E+04  0.11064281339E+04  0.00000000000E+00 0. -1.
         23    2    1    2    0    0 -0.18275830927E+03 -0.37608684122E+01 -0.46960089103E+03  0.51259594354E+03  0.93887489777E+02 0.  0.
        254    2    1    2    0    0  0.18275830927E+03  0.37608684122E+01 -0.27621904309E+03  0.95444039005E+03  0.89512275954E+03 0.  0.
        -24    2    4    4    0    0  0.41140142667E+03 -0.21040081329E+03  0.77564832513E+02  0.47532539183E+03  0.79989304154E+02 0.  0.
         24    2    4    4    0    0 -0.22864311740E+03  0.21416168170E+03 -0.35378387561E+03  0.47911499822E+03  0.79026893110E+02 0.  0.
         13    1    3    3    0    0 -0.15412528960E+03  0.33789859059E+02 -0.37574941765E+03  0.40753402844E+03  0.00000000000E+00 0. -1.
        -13    1    3    3    0    0 -0.28633019667E+02 -0.37550727471E+02 -0.93851473375E+02  0.10506191510E+03  0.00000000000E+00 0.  1.
          2    1    6    6  502    0 -0.88229651081E+02  0.34223925580E+02 -0.95806116378E+02  0.13466462174E+03  0.00000000000E+00 0. -1.
          1    1    5    5  503    0  0.82180859275E+02 -0.82189969421E+01  0.12135709785E+02  0.83477667635E+02  0.00000000000E+00 0. -1.
         -2    1    5    5    0  503  0.32922056739E+03 -0.20218181635E+03  0.65429122727E+02  0.39184772419E+03  0.00000000000E+00 0.  1.
         -1    1    6    6    0  502 -0.14041346632E+03  0.17993775612E+03 -0.25797775923E+03  0.34445037648E+03  0.00000000000E+00 0.  1.
<mgrwt>
<rscale>  0 0.12633084E+04</rscale>
<asrwt>0</asrwt>
<pdfrwt beam="1">  1        1 0.17021971E+00 0.12633084E+04</pdfrwt>
<pdfrwt beam="2">  1       -1 0.55478185E-01 0.12633084E+04</pdfrwt>
<totfact> 0.40576405E+01</totfact>
</mgrwt>
</event>
<event>
12    1  0.1817932E-007  0.1353183E+04  0.7818608E-02  0.8988422E-01
          1   -1    0    0  501    0  0.00000000000E+00  0.00000000000E+00  0.59722419693E+03  0.59722419693E+03  0.00000000000E+00 0. -1.
         -1   -1    0    0    0  501 -0.00000000000E+00 -0.00000000000E+00 -0.76650610866E+03  0.76650610866E+03  0.00000000000E+00 0.  1.
         23    2    1    2    0    0 -0.11060117670E+03 -0.22508266880E+03 -0.32857287857E+03  0.42123708201E+03  0.81152416187E+02 0.  0.
        254    2    1    2    0    0  0.11060117670E+03  0.22508266880E+03  0.15929096684E+03  0.94249322358E+03  0.89444118661E+03 0.  0.
        -24    2    4    4    0    0  0.28036770779E+03  0.15290309371E+03 -0.29722615289E+03  0.44345237988E+03  0.79506098046E+02 0.  0.
         24    2    4    4    0    0 -0.16976653109E+03  0.72179575085E+02  0.45651711972E+03  0.49904084370E+03  0.81260795857E+02 0.  0.
         13    1    3    3    0    0  0.10936235108E+02 -0.17794246977E+02 -0.13029924960E+02  0.24617380207E+02  0.00000000000E+00 0. -1.
        -13    1    3    3    0    0 -0.12153741180E+03 -0.20728842182E+03 -0.31554295361E+03  0.39661970181E+03  0.00000000000E+00 0.  1.
          2    1    6    6  502    0 -0.99357568478E+02  0.19860194185E+02  0.15628239700E+03  0.18625397000E+03  0.00000000000E+00 0. -1.
          1    1    5    5  503    0  0.43592746601E+02 -0.90444508426E+00 -0.20764679712E+02  0.48294073143E+02  0.00000000000E+00 0. -1.
         -2    1    5    5    0  503  0.23677496119E+03  0.15380753880E+03 -0.27646147317E+03  0.39515830674E+03  0.00000000000E+00 0.  1.
         -1    1    6    6    0  502 -0.70408962613E+02  0.52319380900E+02  0.30023472272E+03  0.31278687370E+03  0.00000000000E+00 0.  1.
<mgrwt>
<rscale>  0 0.13531829E+04</rscale>
<asrwt>0</asrwt>
<pdfrwt beam="1">  1        1 0.91880646E-01 0.13531829E+04</pdfrwt>
<pdfrwt beam="2">  1       -1 0.11792402E+00 0.13531829E+04</pdfrwt>
<totfact> 0.21806648E+01</totfact>
</mgrwt>
</event>
<event>
12    1  0.1442183E-007  0.2003142E+04  0.7818608E-02  0.8605153E-01
          2   -1    0    0  501    0  0.00000000000E+00  0.00000000000E+00  0.74716465225E+03  0.74716465225E+03  0.00000000000E+00 0. -1.
         -2   -1    0    0    0  501 -0.00000000000E+00 -0.00000000000E+00 -0.13426010300E+04  0.13426010300E+04  0.00000000000E+00 0.  1.
         23    2    1    2    0    0 -0.61629082452E+03  0.40178446746E+03  0.81316462213E+02  0.74557148340E+03  0.89550718254E+02 0.  0.
        254    2    1    2    0    0  0.61629082452E+03 -0.40178446746E+03 -0.67675283993E+03  0.13441941988E+04  0.89867597002E+03 0.  0.
        -24    2    4    4    0    0  0.27291441112E+03 -0.63210543365E+03 -0.22904461357E+03  0.72981271647E+03  0.78266283061E+02 0.  0.
         24    2    4    4    0    0  0.34337641340E+03  0.23032096619E+03 -0.44770822636E+03  0.61438148235E+03  0.77889929771E+02 0.  0.
         13    1    3    3    0    0 -0.36192710473E+02  0.89211188653E+01  0.19948619103E+02  0.42278198369E+02  0.00000000000E+00 0. -1.
        -13    1    3    3    0    0 -0.58009811405E+03  0.39286334860E+03  0.61367843110E+02  0.70329328503E+03  0.00000000000E+00 0.  1.
          4    1    6    6  502    0  0.34497798033E+03  0.21811121213E+03 -0.43051356839E+03  0.59323202909E+03  0.00000000000E+00 0. -1.
          3    1    5    5  503    0  0.22615587967E+03 -0.49872194477E+03 -0.21297058036E+03  0.58755980819E+03  0.00000000000E+00 0. -1.
         -4    1    5    5    0  503  0.46758531447E+02 -0.13338348888E+03 -0.16074033217E+02  0.14225290828E+03  0.00000000000E+00 0.  1.
         -3    1    6    6    0  502 -0.16015669232E+01  0.12209754055E+02 -0.17194657963E+02  0.21149453259E+02  0.00000000000E+00 0.  1.
<mgrwt>
<rscale>  0 0.20031416E+04</rscale>
<asrwt>0</asrwt>
<pdfrwt beam="1">  1        2 0.11494841E+00 0.20031416E+04</pdfrwt>
<pdfrwt beam="2">  1       -2 0.20655400E+00 0.20031416E+04</pdfrwt>
<totfact> 0.42164355E+00</totfact>
</mgrwt>
</event>
<event>
12    1  0.1442183E-007  0.1933574E+04  0.7818608E-02  0.8638323E-01
          2   -1    0    0  501    0  0.00000000000E+00  0.00000000000E+00  0.24548632480E+04  0.24548632480E+04  0.00000000000E+00 0. -1.
         -2   -1    0    0    0  501 -0.00000000000E+00 -0.00000000000E+00 -0.38074492357E+03  0.38074492357E+03  0.00000000000E+00 0.  1.
         23    2    1    2    0    0 -0.52744927653E+03  0.54237319738E+03  0.87293964754E+03  0.11584642778E+04  0.87432432434E+02 0.  0.
        254    2    1    2    0    0  0.52744927653E+03 -0.54237319738E+03  0.12011786769E+04  0.16771438937E+04  0.89309014209E+03 0.  0.
        -24    2    4    4    0    0  0.28479554139E+02  0.31278414381E+02  0.81584931033E+03  0.82089820273E+03  0.80463270320E+02 0.  0.
         24    2    4    4    0    0  0.49896972239E+03 -0.57365161176E+03  0.38532936653E+03  0.85624569097E+03  0.81430995742E+02 0.  0.
         11    1    3    3    0    0 -0.27890579032E+03  0.30155131138E+03  0.53769044620E+03  0.67663331961E+03  0.00000000000E+00 0.  1.
        -11    1    3    3    0    0 -0.24854348621E+03  0.24082188599E+03  0.33524920134E+03  0.48183095823E+03  0.00000000000E+00 0. -1.
          2    1    6    6  502    0  0.36763234255E+03 -0.46172585148E+03  0.27253716155E+03  0.65009292077E+03  0.00000000000E+00 0. -1.
          1    1    5    5  503    0  0.51786518523E+02  0.19725092857E+02  0.35345828347E+03  0.35777602063E+03  0.00000000000E+00 0. -1.
         -2    1    5    5    0  503 -0.23306964384E+02  0.11553321524E+02  0.46239102686E+03  0.46312218210E+03  0.00000000000E+00 0.  1.
         -1    1    6    6    0  502  0.13133737984E+03 -0.11192576028E+03  0.11279220498E+03  0.20615277021E+03  0.00000000000E+00 0.  1.
<mgrwt>
<rscale>  0 0.19335736E+04</rscale>
<asrwt>0</asrwt>
<pdfrwt beam="1">  1        2 0.37767126E+00 0.19335736E+04</pdfrwt>
<pdfrwt beam="2">  1       -2 0.58576144E-01 0.19335736E+04</pdfrwt>
<totfact> 0.94142269E+00</totfact>
</mgrwt>
</event>
<event>
12    1  0.1442183E-007  0.1500214E+04  0.7818608E-02  0.8884311E-01
         -2   -1    0    0    0  501 -0.00000000000E+00  0.00000000000E+00  0.67057582665E+03  0.67057582665E+03  0.00000000000E+00 0.  1.
          2   -1    0    0  501    0  0.00000000000E+00 -0.00000000000E+00 -0.83907080131E+03  0.83907080131E+03  0.00000000000E+00 0. -1.
         23    2    1    2    0    0 -0.42619747150E+03 -0.15719911746E+03 -0.19462807222E+03  0.50269042887E+03  0.91987681467E+02 0.  0.
        254    2    1    2    0    0  0.42619747150E+03  0.15719911746E+03  0.26133097557E+02  0.10069561991E+04  0.89828837289E+03 0.  0.
        -24    2    4    4    0    0  0.39492245786E+03  0.47875807693E+03  0.16202761461E+03  0.64743324407E+03  0.87998941401E+02 0.  0.
         24    2    4    4    0    0  0.31275013638E+02 -0.32155895947E+03 -0.13589451706E+03  0.35952295502E+03  0.80069622984E+02 0.  0.
         11    1    3    3    0    0 -0.21592769825E+03 -0.65091397270E+02 -0.48848368123E+02  0.23075490014E+03  0.00000000000E+00 0. -1.
        -11    1    3    3    0    0 -0.21026977325E+03 -0.92107720186E+02 -0.14577970410E+03  0.27193552873E+03  0.00000000000E+00 0.  1.
          2    1    6    6  502    0  0.15216598137E+02 -0.10952046073E+03 -0.88577224022E+02  0.14167639462E+03  0.00000000000E+00 0. -1.
          1    1    5    5  503    0  0.52988387636E+02  0.27416951527E+02  0.52591496699E+01  0.59892546369E+02  0.00000000000E+00 0. -1.
         -2    1    5    5    0  503  0.34193407022E+03  0.45134112540E+03  0.15676846494E+03  0.58754069770E+03  0.00000000000E+00 0.  1.
         -1    1    6    6    0  502  0.16058415501E+02 -0.21203849874E+03 -0.47317293034E+02  0.21784656040E+03  0.00000000000E+00 0.  1.
<mgrwt>
<rscale>  0 0.15002141E+04</rscale>
<asrwt>0</asrwt>
<pdfrwt beam="1">  1        2 0.12908782E+00 0.15002141E+04</pdfrwt>
<pdfrwt beam="2">  1       -2 0.10316551E+00 0.15002141E+04</pdfrwt>
<totfact> 0.23938037E+01</totfact>
</mgrwt>
</event>
<event>
12    1  0.1442183E-007  0.1816267E+04  0.7818608E-02  0.8697696E-01
         -1   -1    0    0    0  501 -0.00000000000E+00  0.00000000000E+00  0.75356377858E+03  0.75356377858E+03  0.00000000000E+00 0.  1.
          1   -1    0    0  501    0  0.00000000000E+00 -0.00000000000E+00 -0.10944085452E+04  0.10944085452E+04  0.00000000000E+00 0. -1.
         23    2    1    2    0    0 -0.63583708056E+03  0.22289137937E+03 -0.21965318457E+03  0.71446599023E+03  0.90800714217E+02 0.  0.
        254    2    1    2    0    0  0.63583708056E+03 -0.22289137937E+03 -0.12119158208E+03  0.11335063336E+04  0.90342672568E+03 0.  0.
        -24    2    4    4    0    0  0.11741971661E+01 -0.43268584377E+03 -0.13737514074E+03  0.46069561866E+03  0.78422609134E+02 0.  0.
         24    2    4    4    0    0  0.63466288339E+03  0.20979446440E+03  0.16183558657E+02  0.67281071491E+03  0.74844222799E+02 0.  0.
         13    1    3    3    0    0 -0.17289063020E+03  0.93691208080E+02 -0.35867495640E+02  0.19988919362E+03  0.00000000000E+00 0.  1.
        -13    1    3    3    0    0 -0.46294645036E+03  0.12920017129E+03 -0.18378568893E+03  0.51457679661E+03  0.00000000000E+00 0. -1.
          4    1    6    6  502    0  0.61060938549E+03  0.18761519939E+03  0.69732791152E+01  0.63882071922E+03  0.00000000000E+00 0. -1.
          1    1    5    5  503    0 -0.21740995253E+02 -0.38926530827E+03 -0.13042799393E+03  0.41111021964E+03  0.00000000000E+00 0. -1.
         -2    1    5    5    0  503  0.22915192419E+02 -0.43420535503E+02 -0.69471468046E+01  0.49585399017E+02  0.00000000000E+00 0.  1.
         -3    1    6    6    0  502  0.24053497901E+02  0.22179265011E+02  0.92102795420E+01  0.33989995689E+02  0.00000000000E+00 0.  1.
<mgrwt>
<rscale>  0 0.18162672E+04</rscale>
<asrwt>0</asrwt>
<pdfrwt beam="1">  1        1 0.16837054E+00 0.18162672E+04</pdfrwt>
<pdfrwt beam="2">  1       -1 0.11593289E+00 0.18162672E+04</pdfrwt>
<totfact> 0.81224535E+00</totfact>
</mgrwt>
</event>
<event>
12    1  0.1442183E-007  0.2346012E+04  0.7818608E-02  0.8459997E-01
         -2   -1    0    0    0  501 -0.00000000000E+00  0.00000000000E+00  0.36905693844E+03  0.36905693844E+03  0.00000000000E+00 0.  1.
          2   -1    0    0  501    0  0.00000000000E+00 -0.00000000000E+00 -0.37282684308E+04  0.37282684308E+04  0.00000000000E+00 0. -1.
         23    2    1    2    0    0  0.14572668707E+03 -0.92485842242E+03 -0.83358110411E+03  0.12568898038E+04  0.91187460653E+02 0.  0.
        254    2    1    2    0    0 -0.14572668707E+03  0.92485842242E+03 -0.25256303882E+04  0.28404355654E+04  0.90147988017E+03 0.  0.
        -24    2    4    4    0    0  0.37527476666E+03  0.36049285940E+03 -0.10374861687E+04  0.11636960876E+04  0.83813971443E+02 0.  0.
         24    2    4    4    0    0 -0.52100145373E+03  0.56436556303E+03 -0.14881442195E+04  0.16767394778E+04  0.83252957074E+02 0.  0.
         11    1    3    3    0    0  0.27981458839E+02 -0.43038876619E+03 -0.41308124165E+03  0.59720479260E+03  0.00000000000E+00 0.  1.
        -11    1    3    3    0    0  0.11774522823E+03 -0.49446965624E+03 -0.42049986246E+03  0.65968501123E+03  0.00000000000E+00 0. -1.
          2    1    6    6  502    0 -0.49278330806E+03  0.55527044479E+03 -0.14180519318E+04  0.16006348543E+04  0.00000000000E+00 0. -1.
          1    1    5    5  503    0  0.31779285236E+03  0.25706885992E+03 -0.80624874764E+03  0.90394343784E+03  0.00000000000E+00 0. -1.
         -2    1    5    5    0  503  0.57481914298E+02  0.10342399948E+03 -0.23123742106E+03  0.25975264972E+03  0.00000000000E+00 0.  1.
         -1    1    6    6    0  502 -0.28218145669E+02  0.90951182367E+01 -0.70092287749E+02  0.76104623530E+02  0.00000000000E+00 0.  1.
<mgrwt>
<rscale>  0 0.23460122E+04</rscale>
<asrwt>0</asrwt>
<pdfrwt beam="1">  1        2 0.57357976E+00 0.23460122E+04</pdfrwt>
<pdfrwt beam="2">  1       -2 0.56777990E-01 0.23460122E+04</pdfrwt>
<totfact> 0.14665213E+00</totfact>
</mgrwt>
</event>
<event>
12    1  0.1442183E-007  0.1850563E+04  0.7818608E-02  0.8679864E-01
         -1   -1    0    0    0  501 -0.00000000000E+00  0.00000000000E+00  0.68055844362E+03  0.68055844362E+03  0.00000000000E+00 0.  1.
          1   -1    0    0  501    0  0.00000000000E+00 -0.00000000000E+00 -0.12580042903E+04  0.12580042903E+04  0.00000000000E+00 0. -1.
         23    2    1    2    0    0 -0.68947933929E+03  0.20708988445E+02 -0.81780849388E+02  0.70154304031E+03  0.98305180787E+02 0.  0.
        254    2    1    2    0    0  0.68947933929E+03 -0.20708988445E+02 -0.49566499732E+03  0.12370196937E+04  0.89929044886E+03 0.  0.
        -24    2    4    4    0    0  0.14921101031E+03 -0.41534889178E+03 -0.28387841880E+03  0.53069258589E+03  0.79177247731E+02 0.  0.
         24    2    4    4    0    0  0.54026832898E+03  0.39463990334E+03 -0.21178657852E+03  0.70632710776E+03  0.80086876025E+02 0.  0.
         13    1    3    3    0    0 -0.49878859106E+03  0.46273239615E+02 -0.90089641097E+02  0.50896700748E+03  0.00000000000E+00 0. -1.
        -13    1    3    3    0    0 -0.19069074823E+03 -0.25564251170E+02  0.83087917085E+01  0.19257603282E+03  0.00000000000E+00 0.  1.
          4    1    6    6  502    0  0.29332558191E+03  0.23343136044E+03 -0.79996496569E+02  0.38331388770E+03  0.00000000000E+00 0. -1.
          1    1    5    5  503    0  0.81445147573E+02 -0.24484216858E+03 -0.21080807870E+03  0.33319820772E+03  0.00000000000E+00 0. -1.
         -2    1    5    5    0  503  0.67765862736E+02 -0.17050672320E+03 -0.73070340097E+02  0.19749437818E+03  0.00000000000E+00 0.  1.
         -3    1    6    6    0  502  0.24694274706E+03  0.16120854289E+03 -0.13179008195E+03  0.32301322005E+03  0.00000000000E+00 0.  1.
<mgrwt>
<rscale>  0 0.18505626E+04</rscale>
<asrwt>0</asrwt>
<pdfrwt beam="1">  1        1 0.19353912E+00 0.18505626E+04</pdfrwt>
<pdfrwt beam="2">  1       -1 0.10470130E+00 0.18505626E+04</pdfrwt>
<totfact> 0.78087044E+00</totfact>
</mgrwt>
</event>
<event>
12    1  0.1442183E-007  0.1472372E+04  0.7818608E-02  0.8903036E-01
          1   -1    0    0  501    0  0.00000000000E+00  0.00000000000E+00  0.10405254873E+04  0.10405254873E+04  0.00000000000E+00 0. -1.
         -1   -1    0    0    0  501 -0.00000000000E+00 -0.00000000000E+00 -0.52086186329E+03  0.52086186329E+03  0.00000000000E+00 0.  1.
         23    2    1    2    0    0 -0.39533941372E+03  0.80245547650E+02 -0.79330033973E+02  0.41988638329E+03  0.85315418444E+02 0.  0.
        254    2    1    2    0    0  0.39533941372E+03 -0.80245547650E+02  0.59899365801E+03  0.11415009673E+04  0.88402401330E+03 0.  0.
        -24    2    4    4    0    0 -0.12133957530E+03 -0.54652302056E+02  0.59829900636E+03  0.61807590339E+03  0.79661500705E+02 0.  0.
         24    2    4    4    0    0  0.51667898902E+03 -0.25593245594E+02  0.69465165053E+00  0.52342506392E+03  0.79756649202E+02 0.  0.
         11    1    3    3    0    0 -0.19736745350E+03  0.13381360408E+02 -0.43052892031E+01  0.19786740010E+03  0.00000000000E+00 0. -1.
        -11    1    3    3    0    0 -0.19797196022E+03  0.66864187242E+02 -0.75024744770E+02  0.22201898319E+03  0.00000000000E+00 0.  1.
          2    1    6    6  502    0  0.27592062396E+03 -0.49520740814E+01  0.39198508146E+02  0.27873506562E+03  0.00000000000E+00 0. -1.
          3    1    5    5  503    0 -0.52644421098E+02 -0.37608131068E+02  0.43925310433E+03  0.44399222544E+03  0.00000000000E+00 0. -1.
         -4    1    5    5    0  503 -0.68695154202E+02 -0.17044170988E+02  0.15904590203E+03  0.17408367795E+03  0.00000000000E+00 0.  1.
         -1    1    6    6    0  502  0.24075836505E+03 -0.20641171513E+02 -0.38503856495E+02  0.24468999830E+03  0.00000000000E+00 0.  1.
<mgrwt>
<rscale>  0 0.14723723E+04</rscale>
<asrwt>0</asrwt>
<pdfrwt beam="1">  1        1 0.16008084E+00 0.14723723E+04</pdfrwt>
<pdfrwt beam="2">  1       -1 0.80132595E-01 0.14723723E+04</pdfrwt>
<totfact> 0.21212672E+01</totfact>
</mgrwt>
</event>
<event>
12    1  0.1442183E-007  0.1458561E+04  0.7818608E-02  0.8912487E-01
          2   -1    0    0  501    0  0.00000000000E+00  0.00000000000E+00  0.73930846197E+03  0.73930846197E+03  0.00000000000E+00 0. -1.
         -2   -1    0    0    0  501 -0.00000000000E+00 -0.00000000000E+00 -0.71938874594E+03  0.71938874594E+03  0.00000000000E+00 0.  1.
         23    2    1    2    0    0 -0.42545587741E+03  0.80337653304E+02  0.11134509839E+03  0.45629589914E+03  0.91331125465E+02 0.  0.
        254    2    1    2    0    0  0.42545587741E+03 -0.80337653304E+02 -0.91425382359E+02  0.10024013088E+04  0.89943478980E+03 0.  0.
        -24    2    4    4    0    0  0.80729808512E+02 -0.15031522546E+03 -0.45352377256E+03  0.49100026476E+03  0.79281011130E+02 0.  0.
         24    2    4    4    0    0  0.34472606890E+03  0.69977572152E+02  0.36209839020E+03  0.51140104400E+03  0.81748764137E+02 0.  0.
         13    1    3    3    0    0 -0.34705560057E+02 -0.18521427351E+02  0.71354374018E+01  0.39980415667E+02  0.00000000000E+00 0.  1.
        -13    1    3    3    0    0 -0.39075031735E+03  0.98859080654E+02  0.10420966098E+03  0.41631548348E+03  0.00000000000E+00 0. -1.
          4    1    6    6  502    0  0.47282274655E+02  0.33261081989E+02  0.87812965391E+02  0.10513339128E+03  0.00000000000E+00 0. -1.
          3    1    5    5  503    0  0.15635399112E+02 -0.69310828562E+02 -0.10106982850E+03  0.12354580889E+03  0.00000000000E+00 0. -1.
         -4    1    5    5    0  503  0.65094409400E+02 -0.81004396894E+02 -0.35245394406E+03  0.36745445586E+03  0.00000000000E+00 0.  1.
         -3    1    6    6    0  502  0.29744379424E+03  0.36716490163E+02  0.27428542481E+03  0.40626765272E+03  0.00000000000E+00 0.  1.
<mgrwt>
<rscale>  0 0.14585612E+04</rscale>
<asrwt>0</asrwt>
<pdfrwt beam="1">  1        2 0.11373976E+00 0.14585612E+04</pdfrwt>
<pdfrwt beam="2">  1       -2 0.11067519E+00 0.14585612E+04</pdfrwt>
<totfact> 0.23970235E+01</totfact>
</mgrwt>
</event>
<event>
12    1  0.1442183E-007  0.1210004E+04  0.7818608E-02  0.9104144E-01
          2   -1    0    0  501    0  0.00000000000E+00  0.00000000000E+00  0.51663989972E+03  0.51663989972E+03  0.00000000000E+00 0.  1.
         -2   -1    0    0    0  501 -0.00000000000E+00 -0.00000000000E+00 -0.70847744837E+03  0.70847744837E+03  0.00000000000E+00 0. -1.
         23    2    1    2    0    0  0.97997847503E+02  0.11229129430E+02  0.20213743509E+03  0.24311542655E+03  0.92281615161E+02 0.  0.
        254    2    1    2    0    0 -0.97997847503E+02 -0.11229129430E+02 -0.39397498375E+03  0.98200192154E+03  0.89408154809E+03 0.  0.
        -24    2    4    4    0    0  0.20619979578E+03 -0.15558468446E+03 -0.54176587706E+03  0.60538174563E+03  0.79068594165E+02 0.  0.
         24    2    4    4    0    0 -0.30419764328E+03  0.14435555503E+03  0.14779089331E+03  0.37662017591E+03  0.81399485915E+02 0.  0.
         13    1    3    3    0    0  0.48293060735E+02  0.45316994564E+02  0.14783229783E+03  0.16198838846E+03  0.00000000000E+00 0.  1.
        -13    1    3    3    0    0  0.49704786768E+02 -0.34087865134E+02  0.54305137259E+02  0.81127038093E+02  0.00000000000E+00 0. -1.
          4    1    6    6  502    0 -0.51759568195E+02  0.54663269290E+01 -0.15958495432E+01  0.52071876916E+02  0.00000000000E+00 0. -1.
          1    1    5    5  503    0  0.62715568096E+02 -0.12151864092E+02 -0.92322280494E+02  0.11226893496E+03  0.00000000000E+00 0. -1.
         -2    1    5    5    0  503  0.14348422768E+03 -0.14343282037E+03 -0.44944359656E+03  0.49311281067E+03  0.00000000000E+00 0.  1.
         -3    1    6    6    0  502 -0.25243807509E+03  0.13888922810E+03  0.14938674286E+03  0.32454829899E+03  0.00000000000E+00 0.  1.
<mgrwt>
<rscale>  0 0.12100045E+04</rscale>
<asrwt>0</asrwt>
<pdfrwt beam="1">  1        2 0.79483062E-01 0.12100045E+04</pdfrwt>
<pdfrwt beam="2">  1       -2 0.10899653E+00 0.12100045E+04</pdfrwt>
<totfact> 0.39261695E+01</totfact>
</mgrwt>
</event>
<event>
12    1  0.1839115E-007  0.2417488E+04  0.7818608E-02  0.8432985E-01
          2   -1    0    0  501    0  0.00000000000E+00  0.00000000000E+00  0.16799654365E+04  0.16799654365E+04  0.00000000000E+00 0. -1.
         -2   -1    0    0    0  501 -0.00000000000E+00 -0.00000000000E+00 -0.86969761352E+03  0.86969761352E+03  0.00000000000E+00 0.  1.
         23    2    1    2    0    0 -0.15109516359E+03  0.10238395476E+04  0.43529224026E+03  0.11266453961E+04  0.93666143113E+02 0.  0.
        254    2    1    2    0    0  0.15109516359E+03 -0.10238395476E+04  0.37497558275E+03  0.14230176539E+04  0.90182891282E+03 0.  0.
        -24    2    4    4    0    0 -0.27565635566E+03 -0.60698517659E+02  0.19245334684E+03  0.35084303887E+03  0.79886236294E+02 0.  0.
         24    2    4    4    0    0  0.42675151926E+03 -0.96314102998E+03  0.18252223590E+03  0.10721746151E+04  0.80539032721E+02 0.  0.
         13    1    3    3    0    0 -0.10715268515E+03  0.73011319007E+03  0.26364883822E+03  0.78361832428E+03  0.00000000000E+00 0. -1.
        -13    1    3    3    0    0 -0.43942478448E+02  0.29372635757E+03  0.17164340205E+03  0.34302707183E+03  0.00000000000E+00 0.  1.
          2    1    6    6  502    0  0.78498758177E+00 -0.38218035047E+02  0.68501043668E+01  0.38835014332E+02  0.00000000000E+00 0. -1.
          3    1    5    5  503    0 -0.30479890161E+02 -0.35524574326E+02  0.33623482904E+02  0.57632956612E+02  0.00000000000E+00 0. -1.
         -4    1    5    5    0  503 -0.24517646550E+03 -0.25173943333E+02  0.15882986394E+03  0.29321008226E+03  0.00000000000E+00 0.  1.
         -1    1    6    6    0  502  0.42596653167E+03 -0.92492299494E+03  0.17567213154E+03  0.10333396007E+04  0.00000000000E+00 0.  1.
<mgrwt>
<rscale>  0 0.24174879E+04</rscale>
<asrwt>0</asrwt>
<pdfrwt beam="1">  1        2 0.25845622E+00 0.24174879E+04</pdfrwt>
<pdfrwt beam="2">  1       -2 0.13379963E+00 0.24174879E+04</pdfrwt>
<totfact> 0.36473360E+00</totfact>
</mgrwt>
</event>
<event>
12    1  0.1610032E-007  0.2754355E+04  0.7818608E-02  0.8317581E-01
         -2   -1    0    0    0  501 -0.00000000000E+00  0.00000000000E+00  0.80142367789E+03  0.80142367789E+03  0.00000000000E+00 0.  1.
          2   -1    0    0  501    0  0.00000000000E+00 -0.00000000000E+00 -0.23665616491E+04  0.23665616491E+04  0.00000000000E+00 0. -1.
         23    2    1    2    0    0 -0.50047302720E+03  0.53840068735E+03 -0.18308776372E+04  0.19750268232E+04  0.90936675394E+02 0.  0.
        254    2    1    2    0    0  0.50047302720E+03 -0.53840068735E+03  0.26573966601E+03  0.11929585037E+04  0.90121244470E+03 0.  0.
        -24    2    4    4    0    0  0.35383052029E+03 -0.40655614540E+03  0.59107110739E+03  0.80382647224E+03  0.79296954722E+02 0.  0.
         24    2    4    4    0    0  0.14664250691E+03 -0.13184454195E+03 -0.32533144138E+03  0.38913203151E+03  0.81830209093E+02 0.  0.
         11    1    3    3    0    0 -0.42533618871E+03  0.43416973755E+03 -0.14223344200E+04  0.15467544850E+04  0.00000000000E+00 0. -1.
        -11    1    3    3    0    0 -0.75136838492E+02  0.10423094980E+03 -0.40854321721E+03  0.42827233826E+03  0.00000000000E+00 0.  1.
          4    1    6    6  502    0  0.15135459255E+03 -0.13245109102E+03 -0.32716276281E+03  0.38404033326E+03  0.00000000000E+00 0. -1.
          1    1    5    5  503    0  0.34029170886E+03 -0.36214912159E+03  0.55551007104E+03  0.74534681352E+03  0.00000000000E+00 0. -1.
         -2    1    5    5    0  503  0.13538811435E+02 -0.44407023804E+02  0.35561036350E+02  0.58479658724E+02  0.00000000000E+00 0.  1.
         -3    1    6    6    0  502 -0.47120856458E+01  0.60654907179E+00  0.18313214269E+01  0.50916982509E+01  0.00000000000E+00 0.  1.
<mgrwt>
<rscale>  0 0.27543555E+04</rscale>
<asrwt>0</asrwt>
<pdfrwt beam="1">  1        2 0.36408641E+00 0.27543555E+04</pdfrwt>
<pdfrwt beam="2">  1       -2 0.12329595E+00 0.27543555E+04</pdfrwt>
<totfact> 0.18005461E+00</totfact>
</mgrwt>
</event>
<event>
12    1  0.1442183E-007  0.1648592E+04  0.7818608E-02  0.8791240E-01
          2   -1    0    0  501    0  0.00000000000E+00  0.00000000000E+00  0.49977258171E+03  0.49977258171E+03  0.00000000000E+00 0. -1.
         -2   -1    0    0    0  501 -0.00000000000E+00 -0.00000000000E+00 -0.13595462370E+04  0.13595462370E+04  0.00000000000E+00 0.  1.
         23    2    1    2    0    0  0.12008829551E+02  0.36713240054E+03  0.19078270559E+03  0.42352969488E+03  0.89715941638E+02 0.  0.
        254    2    1    2    0    0 -0.12008829551E+02 -0.36713240054E+03 -0.10505563608E+04  0.14357891238E+04  0.90713357847E+03 0.  0.
        -24    2    4    4    0    0 -0.86122329635E+02 -0.18450845313E+03 -0.11716081736E+04  0.11918538234E+04  0.79933715651E+02 0.  0.
         24    2    4    4    0    0  0.74113500084E+02 -0.18262394740E+03  0.12105181275E+03  0.24393530043E+03  0.77502079759E+02 0.  0.
         13    1    3    3    0    0 -0.12127129122E+02  0.21205496813E+01  0.57901128209E+01  0.13604756454E+02  0.00000000000E+00 0.  1.
        -13    1    3    3    0    0  0.24135958673E+02  0.36501185086E+03  0.18499259277E+03  0.40992493843E+03  0.00000000000E+00 0. -1.
          2    1    6    6  502    0  0.90227396428E+02 -0.16373284270E+03  0.10724490327E+03  0.21552469957E+03  0.00000000000E+00 0. -1.
          1    1    5    5  503    0 -0.76077880807E+02 -0.68741752948E+02 -0.55493132826E+03  0.56432442056E+03  0.00000000000E+00 0. -1.
         -2    1    5    5    0  503 -0.10044448828E+02 -0.11576670019E+03 -0.61667684533E+03  0.62752940281E+03  0.00000000000E+00 0.  1.
         -1    1    6    6    0  502 -0.16113896344E+02 -0.18891104705E+02  0.13806909473E+02  0.28410600866E+02  0.00000000000E+00 0.  1.
<mgrwt>
<rscale>  0 0.16485920E+04</rscale>
<asrwt>0</asrwt>
<pdfrwt beam="1">  1        2 0.76888090E-01 0.16485920E+04</pdfrwt>
<pdfrwt beam="2">  1       -2 0.20916096E+00 0.16485920E+04</pdfrwt>
<totfact> 0.68186921E+00</totfact>
</mgrwt>
</event>
<event>
12    1  0.1442183E-007  0.2207311E+04  0.7818608E-02  0.8515391E-01
         -2   -1    0    0    0  501 -0.00000000000E+00  0.00000000000E+00  0.67643737246E+03  0.67643737246E+03  0.00000000000E+00 0.  1.
          2   -1    0    0  501    0  0.00000000000E+00 -0.00000000000E+00 -0.18006927993E+04  0.18006927993E+04  0.00000000000E+00 0. -1.
         23    2    1    2    0    0  0.13653063401E+03  0.80262378571E+03  0.26202710192E+02  0.82110107231E+03  0.10331908588E+03 0.  0.
        254    2    1    2    0    0 -0.13653063401E+03 -0.80262378571E+03 -0.11504581371E+04  0.16560290995E+04  0.86950152259E+03 0.  0.
        -24    2    4    4    0    0 -0.40898616545E+03 -0.80464938390E+03 -0.85252031863E+03  0.12441195757E+04  0.79450050054E+02 0.  0.
         24    2    4    4    0    0  0.27245553144E+03  0.20255981847E+01 -0.29793781842E+03  0.41190952377E+03  0.81647978933E+02 0.  0.
         11    1    3    3    0    0  0.94090862618E+02  0.39208401336E+03  0.57006377551E+02  0.40722560214E+03  0.00000000000E+00 0.  1.
        -11    1    3    3    0    0  0.42439771389E+02  0.41053977235E+03 -0.30803667358E+02  0.41387547016E+03  0.00000000000E+00 0. -1.
          4    1    6    6  502    0  0.27070548754E+03  0.60068217274E+01 -0.30224064241E+03  0.40579175548E+03  0.00000000000E+00 0. -1.
          3    1    5    5  503    0 -0.19375131116E+03 -0.34113548247E+03 -0.32258707812E+03  0.50791279856E+03  0.00000000000E+00 0. -1.
         -4    1    5    5    0  503 -0.21523485429E+03 -0.46351390143E+03 -0.52993324051E+03  0.73620677715E+03  0.00000000000E+00 0.  1.
         -3    1    6    6    0  502  0.17500438988E+01 -0.39812235427E+01  0.43028239872E+01  0.61177682867E+01  0.00000000000E+00 0.  1.
<mgrwt>
<rscale>  0 0.22073114E+04</rscale>
<asrwt>0</asrwt>
<pdfrwt beam="1">  1        2 0.27702966E+00 0.22073114E+04</pdfrwt>
<pdfrwt beam="2">  1       -2 0.10406729E+00 0.22073114E+04</pdfrwt>
<totfact> 0.59144970E+00</totfact>
</mgrwt>
</event>
<event>
12    1  0.1442183E-007  0.2167614E+04  0.7818608E-02  0.8532030E-01
          1   -1    0    0  501    0  0.00000000000E+00  0.00000000000E+00  0.82021716792E+03  0.82021716792E+03  0.00000000000E+00 0. -1.
         -1   -1    0    0    0  501 -0.00000000000E+00 -0.00000000000E+00 -0.14321052474E+04  0.14321052474E+04  0.00000000000E+00 0.  1.
         23    2    1    2    0    0 -0.33578732213E+03 -0.81596029073E+03 -0.34668060421E+03  0.95235123553E+03  0.90780574646E+02 0.  0.
        254    2    1    2    0    0  0.33578732213E+03  0.81596029073E+03 -0.26520747528E+03  0.12999711798E+04  0.91708546037E+03 0.  0.
        -24    2    4    4    0    0  0.45242970918E+03  0.92774562586E+03 -0.36085152006E+03  0.10963970587E+04  0.80424515126E+02 0.  0.
         24    2    4    4    0    0 -0.11664238705E+03 -0.11178533513E+03  0.95644044781E+02  0.20357412115E+03  0.78697089477E+02 0.  0.
         11    1    3    3    0    0 -0.24691423931E+03 -0.60414478950E+03 -0.21275679209E+03  0.68645686015E+03  0.00000000000E+00 0.  1.
        -11    1    3    3    0    0 -0.88873082818E+02 -0.21181550123E+03 -0.13392381213E+03  0.26589437539E+03  0.00000000000E+00 0. -1.
          2    1    6    6  502    0 -0.11152595047E+03 -0.61945020740E+02  0.81972451087E+02  0.15164005395E+03  0.00000000000E+00 0. -1.
          1    1    5    5  503    0  0.43015065101E+03  0.90519808470E+03 -0.35929046387E+03  0.10646608815E+04  0.00000000000E+00 0. -1.
         -2    1    5    5    0  503  0.22279058169E+02  0.22547541158E+02 -0.15610561862E+01  0.31736177173E+02  0.00000000000E+00 0.  1.
         -1    1    6    6    0  502 -0.51164365743E+01 -0.49840314393E+02  0.13671593695E+02  0.51934067202E+02  0.00000000000E+00 0.  1.
<mgrwt>
<rscale>  0 0.21676137E+04</rscale>
<asrwt>0</asrwt>
<pdfrwt beam="1">  1        1 0.12618726E+00 0.21676137E+04</pdfrwt>
<pdfrwt beam="2">  1       -1 0.22032388E+00 0.21676137E+04</pdfrwt>
<totfact> 0.21257291E+00</totfact>
</mgrwt>
</event>
<event>
12    1  0.1442183E-007  0.2891976E+04  0.7818608E-02  0.8275269E-01
          2   -1    0    0  501    0  0.00000000000E+00  0.00000000000E+00  0.41011331849E+04  0.41011331849E+04  0.00000000000E+00 0. -1.
         -2   -1    0    0    0  501 -0.00000000000E+00 -0.00000000000E+00 -0.50983025107E+03  0.50983025107E+03  0.00000000000E+00 0.  1.
         23    2    1    2    0    0 -0.12745621920E+04  0.10240517823E+03  0.19843991017E+04  0.23623986939E+04  0.89956612653E+02 0.  0.
        254    2    1    2    0    0  0.12745621920E+04 -0.10240517823E+03  0.16069038321E+04  0.22485647421E+04  0.91591914064E+03 0.  0.
        -24    2    4    4    0    0  0.28871785746E+03  0.24319918745E+03  0.75501889764E+02  0.39310512248E+03  0.79544050480E+02 0.  0.
         24    2    4    4    0    0  0.98584433449E+03 -0.34560436568E+03  0.15314019424E+04  0.18554596197E+04  0.78784907683E+02 0.  0.
         11    1    3    3    0    0 -0.53298377066E+03  0.46075344179E+02  0.91258773919E+03  0.10578331716E+04  0.00000000000E+00 0. -1.
        -11    1    3    3    0    0 -0.74157842129E+03  0.56329834051E+02  0.10718113625E+04  0.13045655223E+04  0.00000000000E+00 0.  1.
          2    1    6    6  502    0  0.71627740639E+03 -0.28493946783E+03  0.11029444271E+04  0.13456337661E+04  0.00000000000E+00 0. -1.
          3    1    5    5  503    0  0.22578388246E+03  0.22046431826E+03  0.81500873947E+02  0.32592218344E+03  0.00000000000E+00 0. -1.
         -4    1    5    5    0  503  0.62933974995E+02  0.22734869189E+02 -0.59989841833E+01  0.67182939032E+02  0.00000000000E+00 0.  1.
         -3    1    6    6    0  502  0.26956692810E+03 -0.60664897850E+02  0.42845751524E+03  0.50982585353E+03  0.00000000000E+00 0.  1.
<mgrwt>
<rscale>  0 0.28919763E+04</rscale>
<asrwt>0</asrwt>
<pdfrwt beam="1">  1        2 0.63094354E+00 0.28919763E+04</pdfrwt>
<pdfrwt beam="2">  1       -2 0.78435426E-01 0.28919763E+04</pdfrwt>
<totfact> 0.35246236E-01</totfact>
</mgrwt>
</event>
<event>
12    1  0.1442183E-007  0.2284260E+04  0.7818608E-02  0.8484153E-01
          2   -1    0    0  501    0  0.00000000000E+00  0.00000000000E+00  0.21965757129E+04  0.21965757129E+04  0.00000000000E+00 0.  1.
         -2   -1    0    0    0  501 -0.00000000000E+00 -0.00000000000E+00 -0.59386109253E+03  0.59386109253E+03  0.00000000000E+00 0. -1.
         23    2    1    2    0    0  0.38123881954E+02  0.40269204453E+03  0.17386397675E+04  0.17872324159E+04  0.87847335723E+02 0.  0.
        254    2    1    2    0    0 -0.38123881954E+02 -0.40269204453E+03 -0.13592514711E+03  0.10032043895E+04  0.90792570643E+03 0.  0.
        -24    2    4    4    0    0  0.14130367046E+03 -0.11537523120E+03  0.35109746662E+03  0.40442228156E+03  0.83724425923E+02 0.  0.
         24    2    4    4    0    0 -0.17942755241E+03 -0.28731681333E+03 -0.48702261374E+03  0.59878210794E+03  0.81263698589E+02 0.  0.
         13    1    3    3    0    0  0.42527168323E+02  0.10841984262E+03  0.59809751181E+03  0.60933082636E+03  0.00000000000E+00 0. -1.
        -13    1    3    3    0    0 -0.44032863686E+01  0.29427220191E+03  0.11405422557E+04  0.11779015896E+04  0.00000000000E+00 0.  1.
          2    1    6    6  502    0 -0.85751169644E+02 -0.20964367473E+03 -0.30812518842E+03  0.38241975000E+03  0.00000000000E+00 0. -1.
          1    1    5    5  503    0  0.13583741876E+03 -0.12336144640E+03  0.34932203405E+03  0.39458298781E+03  0.00000000000E+00 0. -1.
         -2    1    5    5    0  503  0.54662516918E+01  0.79862151987E+01  0.17754325720E+01  0.98392937539E+01  0.00000000000E+00 0.  1.
         -1    1    6    6    0  502 -0.93676382765E+02 -0.77673138600E+02 -0.17889742531E+03  0.21636235793E+03  0.00000000000E+00 0.  1.
<mgrwt>
<rscale>  0 0.22842599E+04</rscale>
<asrwt>0</asrwt>
<pdfrwt beam="1">  1        2 0.33793472E+00 0.22842599E+04</pdfrwt>
<pdfrwt beam="2">  1       -2 0.91363246E-01 0.22842599E+04</pdfrwt>
<totfact> 0.48052082E+00</totfact>
</mgrwt>
</event>
<event>
12    1  0.1442183E-007  0.2286798E+04  0.7818608E-02  0.8483145E-01
          1   -1    0    0  501    0  0.00000000000E+00  0.00000000000E+00  0.26348430938E+04  0.26348430938E+04  0.00000000000E+00 0. -1.
         -1   -1    0    0    0  501 -0.00000000000E+00 -0.00000000000E+00 -0.49618177075E+03  0.49618177075E+03  0.00000000000E+00 0.  1.
         23    2    1    2    0    0 -0.28789171819E+03 -0.90769723005E+03  0.77170776030E+03  0.12290262911E+04  0.90425958731E+02 0.  0.
        254    2    1    2    0    0  0.28789171819E+03  0.90769723005E+03  0.13669535628E+04  0.19019985735E+04  0.91773668772E+03 0.  0.
        -24    2    4    4    0    0 -0.33069426655E+02 -0.24962758679E+02 -0.98871361430E+02  0.13341343522E+03  0.79415818862E+02 0.  0.
         24    2    4    4    0    0  0.32096114484E+03  0.93265998873E+03  0.14658249242E+04  0.17685851383E+04  0.79874726071E+02 0.  0.
         11    1    3    3    0    0 -0.25883396533E+03 -0.85533740107E+03  0.74502263102E+03  0.11634671512E+04  0.00000000000E+00 0. -1.
        -11    1    3    3    0    0 -0.29057752857E+02 -0.52359828979E+02  0.26685129281E+02  0.65559139840E+02  0.00000000000E+00 0.  1.
          4    1    6    6  502    0  0.47171571245E+02  0.16812242293E+03  0.31365765143E+03  0.35898666901E+03  0.00000000000E+00 0. -1.
          1    1    5    5  503    0 -0.73641075128E+01  0.26685136912E+02 -0.52672763830E+02  0.59504173475E+02  0.00000000000E+00 0. -1.
         -2    1    5    5    0  503 -0.25705319142E+02 -0.51647895591E+02 -0.46198597600E+02  0.73909261743E+02  0.00000000000E+00 0.  1.
         -3    1    6    6    0  502  0.27378957360E+03  0.76453756580E+03  0.11521672728E+04  0.14095984693E+04  0.00000000000E+00 0.  1.
<mgrwt>
<rscale>  0 0.22867979E+04</rscale>
<asrwt>0</asrwt>
<pdfrwt beam="1">  1        1 0.40536047E+00 0.22867979E+04</pdfrwt>
<pdfrwt beam="2">  1       -1 0.76335659E-01 0.22867979E+04</pdfrwt>
<totfact> 0.17005268E+00</totfact>
</mgrwt>
</event>
<event>
12    1  0.1442183E-007  0.2212119E+04  0.7818608E-02  0.8513401E-01
         -2   -1    0    0    0  501 -0.00000000000E+00  0.00000000000E+00  0.60690108317E+03  0.60690108317E+03  0.00000000000E+00 0. -1.
          2   -1    0    0  501    0  0.00000000000E+00 -0.00000000000E+00 -0.20157614228E+04  0.20157614228E+04  0.00000000000E+00 0.  1.
         23    2    1    2    0    0 -0.46728111829E+03  0.71974864874E+03 -0.87717034284E+03  0.12303324412E+04  0.88883882668E+02 0.  0.
        254    2    1    2    0    0  0.46728111829E+03 -0.71974864874E+03 -0.53168999674E+03  0.13923300647E+04  0.95890510253E+03 0.  0.
        -24    2    4    4    0    0  0.54721358880E+03 -0.49889421363E+02 -0.46027526471E+02  0.55715711672E+03  0.79836416482E+02 0.  0.
         24    2    4    4    0    0 -0.79932470508E+02 -0.66985922738E+03 -0.48566247027E+03  0.83517294801E+03  0.80902618756E+02 0.  0.
         13    1    3    3    0    0 -0.36961264703E+03  0.52683219732E+03 -0.61104889811E+03  0.88743812678E+03  0.00000000000E+00 0.  1.
        -13    1    3    3    0    0 -0.97668471262E+02  0.19291645142E+03 -0.26612144473E+03  0.34289431441E+03  0.00000000000E+00 0. -1.
          2    1    6    6  502    0 -0.49834427904E+01 -0.34475358242E+03 -0.22391425638E+03  0.41111733301E+03  0.00000000000E+00 0. -1.
          3    1    5    5  503    0  0.33415176500E+02 -0.17000872824E+02 -0.17884276195E+02  0.41538548751E+02  0.00000000000E+00 0. -1.
         -4    1    5    5    0  503  0.51379841230E+03 -0.32888548538E+02 -0.28143250276E+02  0.51561856797E+03  0.00000000000E+00 0.  1.
         -1    1    6    6    0  502 -0.74949027718E+02 -0.32510564495E+03 -0.26174821389E+03  0.42405561500E+03  0.00000000000E+00 0.  1.
<mgrwt>
<rscale>  0 0.22121192E+04</rscale>
<asrwt>0</asrwt>
<pdfrwt beam="1">  1        2 0.31011714E+00 0.22121192E+04</pdfrwt>
<pdfrwt beam="2">  1       -2 0.93369397E-01 0.22121192E+04</pdfrwt>
<totfact> 0.58015702E+00</totfact>
</mgrwt>
</event>
<event>
12    1  0.1442183E-007  0.1257427E+04  0.7818608E-02  0.9064024E-01
         -1   -1    0    0    0  501 -0.00000000000E+00  0.00000000000E+00  0.16043600978E+03  0.16043600978E+03  0.00000000000E+00 0.  1.
          1   -1    0    0  501    0  0.00000000000E+00 -0.00000000000E+00 -0.24637906368E+04  0.24637906368E+04  0.00000000000E+00 0. -1.
         23    2    1    2    0    0  0.19951206139E+03  0.17770139648E+03 -0.31016513519E+03  0.41937062476E+03  0.91029999861E+02 0.  0.
        254    2    1    2    0    0 -0.19951206139E+03 -0.17770139648E+03 -0.19931894918E+04  0.22048560218E+04  0.90399274201E+03 0.  0.
        -24    2    4    4    0    0 -0.11618803458E+03 -0.50926613875E+03 -0.78134088235E+03  0.94335499865E+03  0.81076627913E+02 0.  0.
         24    2    4    4    0    0 -0.83324026806E+02  0.33156474227E+03 -0.12118486095E+04  0.12615010231E+04  0.77004593172E+02 0.  0.
         11    1    3    3    0    0  0.10465565260E+03  0.74701937502E+02 -0.21347111454E+03  0.24920493942E+03  0.00000000000E+00 0. -1.
        -11    1    3    3    0    0  0.94856408793E+02  0.10299945898E+03 -0.96694020643E+02  0.17016568534E+03  0.00000000000E+00 0.  1.
          2    1    6    6  502    0 -0.21793403606E+02  0.17713442540E+03 -0.51318034726E+03  0.54332828559E+03  0.00000000000E+00 0. -1.
          3    1    5    5  503    0 -0.12561068493E+03 -0.47388706610E+03 -0.74447446832E+03  0.89139734663E+03  0.00000000000E+00 0. -1.
         -4    1    5    5    0  503  0.94226503463E+01 -0.35379072646E+02 -0.36866414031E+02  0.51957652029E+02  0.00000000000E+00 0.  1.
         -1    1    6    6    0  502 -0.61530623200E+02  0.15443031687E+03 -0.69866826221E+03  0.71817273756E+03  0.00000000000E+00 0.  1.
<mgrwt>
<rscale>  0 0.12574271E+04</rscale>
<asrwt>0</asrwt>
<pdfrwt beam="1">  1        1 0.37904469E+00 0.12574271E+04</pdfrwt>
<pdfrwt beam="2">  1       -1 0.24682464E-01 0.12574271E+04</pdfrwt>
<totfact> 0.20356102E+01</totfact>
</mgrwt>
</event>
<event>
12    1  0.1442183E-007  0.1039357E+04  0.7818608E-02  0.9266402E-01
         -2   -1    0    0    0  501 -0.00000000000E+00  0.00000000000E+00  0.19194382157E+03  0.19194382157E+03  0.00000000000E+00 0.  1.
          2   -1    0    0  501    0  0.00000000000E+00 -0.00000000000E+00 -0.14070041082E+04  0.14070041082E+04  0.00000000000E+00 0. -1.
         23    2    1    2    0    0 -0.52831347349E+02 -0.12589700027E+03 -0.16027124968E+03  0.22892094466E+03  0.89870570767E+02 0.  0.
        254    2    1    2    0    0  0.52831347349E+02  0.12589700027E+03 -0.10547890370E+04  0.13700269851E+04  0.86356981276E+03 0.  0.
        -24    2    4    4    0    0 -0.31431478046E+03  0.31118229709E+03 -0.45942708658E+03  0.64210106920E+03  0.74781895883E+02 0.  0.
         24    2    4    4    0    0  0.36714612781E+03 -0.18528529682E+03 -0.59536195037E+03  0.72792591590E+03  0.79330742505E+02 0.  0.
         13    1    3    3    0    0 -0.75643177169E+02 -0.10423156740E+03 -0.14504477754E+03  0.19396932073E+03  0.00000000000E+00 0. -1.
        -13    1    3    3    0    0  0.22811829820E+02 -0.21665432874E+02 -0.15226472145E+02  0.34951623930E+02  0.00000000000E+00 0.  1.
          2    1    6    6  502    0  0.95600237575E+02 -0.69351069649E+02 -0.22652861414E+03  0.25546856814E+03  0.00000000000E+00 0. -1.
          1    1    5    5  503    0 -0.27003206395E+02  0.51997877784E+02 -0.37275079173E+02  0.69443386849E+02  0.00000000000E+00 0. -1.
         -2    1    5    5    0  503 -0.28731157407E+03  0.25918441930E+03 -0.42215200741E+03  0.57265768236E+03  0.00000000000E+00 0.  1.
         -1    1    6    6    0  502  0.27154589023E+03 -0.11593422717E+03 -0.36883333624E+03  0.47245734776E+03  0.00000000000E+00 0.  1.
<mgrwt>
<rscale>  0 0.10393570E+04</rscale>
<asrwt>0</asrwt>
<pdfrwt beam="1">  1        2 0.21646217E+00 0.10393570E+04</pdfrwt>
<pdfrwt beam="2">  1       -2 0.29529818E-01 0.10393570E+04</pdfrwt>
<totfact> 0.15069517E+02</totfact>
</mgrwt>
</event>
<event>
12    1  0.1442183E-007  0.1345132E+04  0.7818608E-02  0.8994521E-01
          1   -1    0    0  501    0  0.00000000000E+00  0.00000000000E+00  0.17034857724E+04  0.17034857724E+04  0.00000000000E+00 0. -1.
         -1   -1    0    0    0  501 -0.00000000000E+00 -0.00000000000E+00 -0.26554086135E+03  0.26554086135E+03  0.00000000000E+00 0.  1.
         23    2    1    2    0    0  0.36143149193E+03  0.34911701222E+01  0.36282056757E+03  0.52046444342E+03  0.92733817943E+02 0.  0.
        254    2    1    2    0    0 -0.36143149193E+03 -0.34911701222E+01  0.10751243434E+04  0.14485621903E+04  0.90099675562E+03 0.  0.
        -24    2    4    4    0    0 -0.13169596765E+02 -0.78587812910E+02  0.10770668236E+04  0.10829876615E+04  0.80248675590E+02 0.  0.
         24    2    4    4    0    0 -0.34826189517E+03  0.75096642787E+02 -0.19424801507E+01  0.36557452875E+03  0.81945771469E+02 0.  0.
         13    1    3    3    0    0  0.55747052239E+02  0.14912678206E+02  0.10752165213E+03  0.12202879775E+03  0.00000000000E+00 0. -1.
        -13    1    3    3    0    0  0.30568443969E+03 -0.11421508084E+02  0.25529891544E+03  0.39843564567E+03  0.00000000000E+00 0.  1.
          2    1    6    6  502    0 -0.19822317482E+03  0.10426285831E+01 -0.31641069895E+01  0.19825116818E+03  0.00000000000E+00 0. -1.
          1    1    5    5  503    0  0.64923083069E+01  0.13944549393E+02  0.26168311478E+03  0.26213479945E+03  0.00000000000E+00 0. -1.
         -2    1    5    5    0  503 -0.19661905072E+02 -0.92532362302E+02  0.81538370882E+03  0.82085286208E+03  0.00000000000E+00 0.  1.
         -1    1    6    6    0  502 -0.15003872035E+03  0.74054014204E+02  0.12216268388E+01  0.16732336058E+03  0.00000000000E+00 0.  1.
<mgrwt>
<rscale>  0 0.13451321E+04</rscale>
<asrwt>0</asrwt>
<pdfrwt beam="1">  1        1 0.26207473E+00 0.13451321E+04</pdfrwt>
<pdfrwt beam="2">  1       -1 0.40852441E-01 0.13451321E+04</pdfrwt>
<totfact> 0.27200722E+01</totfact>
</mgrwt>
</event>
<event>
12    1  0.1442183E-007  0.2806856E+04  0.7818608E-02  0.8301143E-01
         -2   -1    0    0    0  501 -0.00000000000E+00  0.00000000000E+00  0.82595778859E+03  0.82595778859E+03  0.00000000000E+00 0. -1.
          2   -1    0    0  501    0  0.00000000000E+00 -0.00000000000E+00 -0.23846372227E+04  0.23846372227E+04  0.00000000000E+00 0.  1.
         23    2    1    2    0    0  0.38612876704E+03 -0.70091304741E+03  0.40718719264E+03  0.90292322416E+03  0.95364637737E+02 0.  0.
        254    2    1    2    0    0 -0.38612876704E+03  0.70091304741E+03 -0.19658666267E+04  0.23076717871E+04  0.90572786100E+03 0.  0.
        -24    2    4    4    0    0  0.18715895281E+03 -0.47131122852E+02 -0.14099607980E+03  0.25226381408E+03  0.80667967722E+02 0.  0.
         24    2    4    4    0    0 -0.57328771984E+03  0.74804417026E+03 -0.18248705469E+04  0.20554079730E+04  0.79501774796E+02 0.  0.
         13    1    3    3    0    0  0.31668311005E+03 -0.54681905118E+03  0.27880729617E+03  0.69067559340E+03  0.00000000000E+00 0. -1.
        -13    1    3    3    0    0  0.69445656987E+02 -0.15409399623E+03  0.12837989647E+03  0.21224763076E+03  0.00000000000E+00 0.  1.
          4    1    6    6  502    0 -0.69954117427E+02  0.59475668834E+02 -0.15004799031E+03  0.17591285662E+03  0.00000000000E+00 0. -1.
          3    1    5    5  503    0  0.40697453935E+02 -0.47636434134E+02 -0.45160102283E+02  0.77233072268E+02  0.00000000000E+00 0. -1.
         -4    1    5    5    0  503  0.14646149887E+03  0.50531128181E+00 -0.95835977518E+02  0.17503074181E+03  0.00000000000E+00 0.  1.
         -3    1    6    6    0  502 -0.50333360242E+03  0.68856850143E+03 -0.16748225566E+04  0.18794951164E+04  0.00000000000E+00 0.  1.
<mgrwt>
<rscale>  0 0.28068557E+04</rscale>
<asrwt>0</asrwt>
<pdfrwt beam="1">  1        2 0.36686726E+00 0.28068557E+04</pdfrwt>
<pdfrwt beam="2">  1       -2 0.12707043E+00 0.28068557E+04</pdfrwt>
<totfact> 0.16229033E+00</totfact>
</mgrwt>
</event>
<event>
12    1  0.1442183E-007  0.1856129E+04  0.7818608E-02  0.8677008E-01
         -1   -1    0    0    0  501 -0.00000000000E+00  0.00000000000E+00  0.40711569875E+03  0.40711569875E+03  0.00000000000E+00 0.  1.
          1   -1    0    0  501    0  0.00000000000E+00 -0.00000000000E+00 -0.21156228752E+04  0.21156228752E+04  0.00000000000E+00 0. -1.
         23    2    1    2    0    0  0.14157746878E+02 -0.57208125125E+03 -0.12095741258E+04  0.13412455750E+04  0.91611826976E+02 0.  0.
        254    2    1    2    0    0 -0.14157746878E+02  0.57208125125E+03 -0.49893305073E+03  0.11814929990E+04  0.90527019051E+03 0.  0.
        -24    2    4    4    0    0 -0.14028646948E+03  0.68788041475E+03 -0.63192721427E+03  0.94796434582E+03  0.80278504573E+02 0.  0.
         24    2    4    4    0    0  0.12612872260E+03 -0.11579916350E+03  0.13299416354E+03  0.23352865321E+03  0.86777205541E+02 0.  0.
         11    1    3    3    0    0 -0.27762957333E+02 -0.44014671083E+03 -0.91058262554E+03  0.10117611511E+04  0.00000000000E+00 0. -1.
        -11    1    3    3    0    0  0.41920704212E+02 -0.13193454042E+03 -0.29899150022E+03  0.32948442391E+03  0.00000000000E+00 0.  1.
          2    1    6    6  502    0  0.40140738154E+02 -0.71632567803E+02  0.19406013955E+02  0.84374741524E+02  0.00000000000E+00 0. -1.
          1    1    5    5  503    0 -0.10622358200E+03  0.57947473272E+03 -0.49085897015E+03  0.76682262865E+03  0.00000000000E+00 0. -1.
         -2    1    5    5    0  503 -0.34062887478E+02  0.10840568202E+03 -0.14106824412E+03  0.18114171717E+03  0.00000000000E+00 0.  1.
         -3    1    6    6    0  502  0.85987984450E+02 -0.44166595697E+02  0.11358814958E+03  0.14915391169E+03  0.00000000000E+00 0.  1.
<mgrwt>
<rscale>  0 0.18561285E+04</rscale>
<asrwt>0</asrwt>
<pdfrwt beam="1">  1        1 0.32548044E+00 0.18561285E+04</pdfrwt>
<pdfrwt beam="2">  1       -1 0.62633184E-01 0.18561285E+04</pdfrwt>
<totfact> 0.60392795E+00</totfact>
</mgrwt>
</event>
<event>
12    1  0.1442183E-007  0.1560385E+04  0.7818608E-02  0.8845262E-01
          1   -1    0    0  501    0  0.00000000000E+00  0.00000000000E+00  0.90241982800E+03  0.90241982800E+03  0.00000000000E+00 0. -1.
         -1   -1    0    0    0  501 -0.00000000000E+00 -0.00000000000E+00 -0.67452012099E+03  0.67452012099E+03  0.00000000000E+00 0.  1.
         23    2    1    2    0    0  0.15380698444E+03 -0.41685309304E+03  0.33348498558E+03  0.56302677055E+03  0.91453917940E+02 0.  0.
        254    2    1    2    0    0 -0.15380698444E+03  0.41685309304E+03 -0.10558527857E+03  0.10139131784E+04  0.90523399888E+03 0.  0.
        -24    2    4    4    0    0 -0.89138704125E+02 -0.21875511683E+03 -0.25061002881E+03  0.35388064597E+03  0.81404025341E+02 0.  0.
         24    2    4    4    0    0 -0.64668280316E+02  0.63560820987E+03  0.14502475024E+03  0.66003253248E+03  0.80193408836E+02 0.  0.
         13    1    3    3    0    0  0.32303156954E+02 -0.20833494640E+02  0.39148774783E+02  0.54864879614E+02  0.00000000000E+00 0.  1.
        -13    1    3    3    0    0  0.12150382749E+03 -0.39601959840E+03  0.29433621080E+03  0.50816189094E+03  0.00000000000E+00 0. -1.
          2    1    6    6  502    0 -0.37806423049E+02  0.53393277653E+03  0.14614711523E+03  0.55486260891E+03  0.00000000000E+00 0. -1.
          1    1    5    5  503    0 -0.64988951727E+02 -0.57425738464E+02 -0.87051246637E+02  0.12287879730E+03  0.00000000000E+00 0. -1.
         -2    1    5    5    0  503 -0.24149752398E+02 -0.16132937836E+03 -0.16355878217E+03  0.23100184867E+03  0.00000000000E+00 0.  1.
         -3    1    6    6    0  502 -0.26861857267E+02  0.10167543333E+03 -0.11223649978E+01  0.10516992357E+03  0.00000000000E+00 0.  1.
<mgrwt>
<rscale>  0 0.15603850E+04</rscale>
<asrwt>0</asrwt>
<pdfrwt beam="1">  1        1 0.13883382E+00 0.15603850E+04</pdfrwt>
<pdfrwt beam="2">  1       -1 0.10377233E+00 0.15603850E+04</pdfrwt>
<totfact> 0.15261640E+01</totfact>
</mgrwt>
</event>
<event>
12    1  0.1442183E-007  0.1446965E+04  0.7818608E-02  0.8920507E-01
         -1   -1    0    0    0  501 -0.00000000000E+00  0.00000000000E+00  0.22797897515E+03  0.22797897515E+03  0.00000000000E+00 0.  1.
          1   -1    0    0  501    0  0.00000000000E+00 -0.00000000000E+00 -0.22959438389E+04  0.22959438389E+04  0.00000000000E+00 0. -1.
         23    2    1    2    0    0  0.25666761815E+03 -0.35175044500E+02 -0.12505655859E+04  0.12803295488E+04  0.90630673161E+02 0.  0.
        254    2    1    2    0    0 -0.25666761815E+03  0.35175044500E+02 -0.81739927783E+03  0.12435932652E+04  0.90070365825E+03 0.  0.
        -24    2    4    4    0    0  0.18040940383E+02 -0.33894233800E+03 -0.62836882503E+02  0.35435548915E+03  0.80074683069E+02 0.  0.
         24    2    4    4    0    0 -0.27470855853E+03  0.37411738250E+03 -0.75456239532E+03  0.88923777608E+03  0.77141467122E+02 0.  0.
         11    1    3    3    0    0  0.17729195611E+03 -0.58476188969E+02 -0.97090462910E+03  0.98868989131E+03  0.00000000000E+00 0. -1.
        -11    1    3    3    0    0  0.79375662037E+02  0.23301144470E+02 -0.27966095681E+03  0.29163965749E+03  0.00000000000E+00 0.  1.
          2    1    6    6  502    0 -0.26967136518E+03  0.33052576886E+03 -0.68784013875E+03  0.80937876520E+03  0.00000000000E+00 0. -1.
          1    1    5    5  503    0  0.44017328282E+02 -0.24128513117E+03 -0.25351644243E+02  0.24657401643E+03  0.00000000000E+00 0. -1.
         -2    1    5    5    0  503 -0.25976387899E+02 -0.97657206838E+02 -0.37485238260E+02  0.10778147273E+03  0.00000000000E+00 0.  1.
         -1    1    6    6    0  502 -0.50371933548E+01  0.43591613642E+02 -0.66722256572E+02  0.79859010880E+02  0.00000000000E+00 0.  1.
<mgrwt>
<rscale>  0 0.14469650E+04</rscale>
<asrwt>0</asrwt>
<pdfrwt beam="1">  1        1 0.35322211E+00 0.14469650E+04</pdfrwt>
<pdfrwt beam="2">  1       -1 0.35073690E-01 0.14469650E+04</pdfrwt>
<totfact> 0.14094499E+01</totfact>
</mgrwt>
</event>
<event>
12    1  0.1442183E-007  0.3003043E+04  0.7818608E-02  0.8242862E-01
          2   -1    0    0  501    0  0.00000000000E+00  0.00000000000E+00  0.21477753463E+04  0.21477753463E+04  0.00000000000E+00 0. -1.
         -2   -1    0    0    0  501 -0.00000000000E+00 -0.00000000000E+00 -0.10497218922E+04  0.10497218922E+04  0.00000000000E+00 0.  1.
         23    2    1    2    0    0  0.13222559192E+03  0.80671433854E+03  0.16688234308E+04  0.18604208243E+04  0.89007692052E+02 0.  0.
        254    2    1    2    0    0 -0.13222559192E+03 -0.80671433854E+03 -0.57076997666E+03  0.13370764143E+04  0.89091152208E+03 0.  0.
        -24    2    4    4    0    0 -0.11687833247E+03  0.10307764691E+02  0.17661162297E+03  0.22676123192E+03  0.80387787140E+02 0.  0.
         24    2    4    4    0    0 -0.15347259450E+02 -0.81702210323E+03 -0.74738159963E+03  0.11103151824E+04  0.80373460525E+02 0.  0.
         13    1    3    3    0    0  0.43017082299E+02  0.44485997841E+03  0.98433065989E+03  0.10810447344E+04  0.00000000000E+00 0. -1.
        -13    1    3    3    0    0  0.89208509617E+02  0.36185436014E+03  0.68449277088E+03  0.77937608991E+03  0.00000000000E+00 0.  1.
          4    1    6    6  502    0 -0.20053432896E+02 -0.78355437427E+03 -0.73441574694E+03  0.10741164215E+04  0.00000000000E+00 0. -1.
          3    1    5    5  503    0 -0.77063981438E+02  0.40243200506E+02  0.14054924435E+03  0.16526482538E+03  0.00000000000E+00 0. -1.
         -4    1    5    5    0  503 -0.39814351029E+02 -0.29935435815E+02  0.36062378621E+02  0.61496406538E+02  0.00000000000E+00 0.  1.
         -3    1    6    6    0  502  0.47061734467E+01 -0.33467728967E+02 -0.12965852690E+02  0.36198760844E+02  0.00000000000E+00 0.  1.
<mgrwt>
<rscale>  0 0.30030430E+04</rscale>
<asrwt>0</asrwt>
<pdfrwt beam="1">  1        2 0.33042697E+00 0.30030430E+04</pdfrwt>
<pdfrwt beam="2">  1       -2 0.16149568E+00 0.30030430E+04</pdfrwt>
<totfact> 0.11611194E+00</totfact>
</mgrwt>
</event>
<event>
12    1  0.1442183E-007  0.2613881E+04  0.7818608E-02  0.8363501E-01
          2   -1    0    0  501    0  0.00000000000E+00  0.00000000000E+00  0.20068148950E+04  0.20068148950E+04  0.00000000000E+00 0. -1.
         -2   -1    0    0    0  501 -0.00000000000E+00 -0.00000000000E+00 -0.85114671323E+03  0.85114671323E+03  0.00000000000E+00 0.  1.
         23    2    1    2    0    0  0.90736669825E+03 -0.69283782237E+03  0.35313944181E+03  0.11985131593E+04  0.91584684284E+02 0.  0.
        254    2    1    2    0    0 -0.90736669825E+03  0.69283782237E+03  0.80252873996E+03  0.16594484489E+04  0.89798563632E+03 0.  0.
        -24    2    4    4    0    0  0.85426047647E+02  0.49919381426E+02 -0.10513312225E+03  0.16646136821E+03  0.82866515879E+02 0.  0.
         24    2    4    4    0    0 -0.99279274590E+03  0.64291844095E+03  0.90766186221E+03  0.14929870807E+04  0.78605401369E+02 0.  0.
         11    1    3    3    0    0  0.52982873717E+03 -0.45834002959E+03  0.22946716508E+03  0.73719010662E+03  0.00000000000E+00 0.  1.
        -11    1    3    3    0    0  0.37753796108E+03 -0.23449779278E+03  0.12367227672E+03  0.46132305265E+03  0.00000000000E+00 0. -1.
          2    1    6    6  502    0 -0.48473754262E+01  0.73238694794E+01  0.15706395360E+02  0.17995192910E+02  0.00000000000E+00 0. -1.
          3    1    5    5  503    0 -0.45380102712E+01  0.49605813367E+01 -0.52538245578E+02  0.52966670207E+02  0.00000000000E+00 0. -1.
         -4    1    5    5    0  503  0.89964057918E+02  0.44958800089E+02 -0.52594876669E+02  0.11349469800E+03  0.00000000000E+00 0.  1.
         -3    1    6    6    0  502 -0.98794537047E+03  0.63559457147E+03  0.89195546685E+03  0.14749918878E+04  0.00000000000E+00 0.  1.
<mgrwt>
<rscale>  0 0.26138813E+04</rscale>
<asrwt>0</asrwt>
<pdfrwt beam="1">  1        2 0.30874075E+00 0.26138813E+04</pdfrwt>
<pdfrwt beam="2">  1       -2 0.13094565E+00 0.26138813E+04</pdfrwt>
<totfact> 0.24952344E+00</totfact>
</mgrwt>
</event>
<event>
12    1  0.1442183E-007  0.1302010E+04  0.7818608E-02  0.9027972E-01
          2   -1    0    0  501    0  0.00000000000E+00  0.00000000000E+00  0.38513084714E+04  0.38513084714E+04  0.00000000000E+00 0. -1.
         -2   -1    0    0    0  501 -0.00000000000E+00 -0.00000000000E+00 -0.11004252645E+03  0.11004252645E+03  0.00000000000E+00 0.  1.
         23    2    1    2    0    0 -0.22471552100E+03 -0.18602780326E+03  0.51639750616E+03  0.59991681277E+03  0.90168669267E+02 0.  0.
        254    2    1    2    0    0  0.22471552100E+03  0.18602780326E+03  0.32248684387E+04  0.33614341850E+04  0.90241892938E+03 0.  0.
        -24    2    4    4    0    0  0.34841712794E+03  0.35001522957E+03  0.92746130184E+03  0.10534639055E+04  0.75475676892E+02 0.  0.
         24    2    4    4    0    0 -0.12370160694E+03 -0.16398742631E+03  0.22974071369E+04  0.23079702795E+04  0.80332402867E+02 0.  0.
         11    1    3    3    0    0 -0.29665951130E+02 -0.13985249190E+02  0.17207867505E+02  0.37037367016E+02  0.00000000000E+00 0. -1.
        -11    1    3    3    0    0 -0.19504956987E+03 -0.17204255407E+03  0.49918963866E+03  0.56287944576E+03  0.00000000000E+00 0.  1.
          4    1    6    6  502    0 -0.92023111559E+02 -0.14342401909E+03  0.14960856292E+04  0.15057592477E+04  0.00000000000E+00 0. -1.
          1    1    5    5  503    0  0.10870349759E+02  0.38401471268E+02  0.64699768791E+02  0.76019060643E+02  0.00000000000E+00 0. -1.
         -2    1    5    5    0  503  0.33754677818E+03  0.31161375830E+03  0.86276153305E+03  0.97744484485E+03  0.00000000000E+00 0.  1.
         -3    1    6    6    0  502 -0.31678495384E+02 -0.20563407217E+02  0.80132150772E+03  0.80221103179E+03  0.00000000000E+00 0.  1.
<mgrwt>
<rscale>  0 0.13020103E+04</rscale>
<asrwt>0</asrwt>
<pdfrwt beam="1">  1        2 0.59250889E+00 0.13020103E+04</pdfrwt>
<pdfrwt beam="2">  1       -2 0.16929622E-01 0.13020103E+04</pdfrwt>
<totfact> 0.12930152E+01</totfact>
</mgrwt>
</event>
<event>
12    1  0.1442183E-007  0.1264040E+04  0.7818608E-02  0.9058578E-01
          2   -1    0    0  501    0  0.00000000000E+00  0.00000000000E+00  0.92543301136E+03  0.92543301136E+03  0.00000000000E+00 0. -1.
         -2   -1    0    0    0  501 -0.00000000000E+00 -0.00000000000E+00 -0.43163501047E+03  0.43163501047E+03  0.00000000000E+00 0.  1.
         23    2    1    2    0    0  0.16572357721E+03  0.10760041703E+02  0.30635201492E+03  0.36343967659E+03  0.10323157914E+03 0.  0.
        254    2    1    2    0    0 -0.16572357721E+03 -0.10760041703E+02  0.18744598597E+03  0.99362834523E+03  0.96155145897E+03 0.  0.
        -24    2    4    4    0    0 -0.12986999972E+03  0.33435640622E+03  0.42744702723E+03  0.56394628774E+03  0.81633517341E+02 0.  0.
         24    2    4    4    0    0 -0.35853577485E+02 -0.34511644793E+03 -0.24000104126E+03  0.42968205750E+03  0.81457529288E+02 0.  0.
         13    1    3    3    0    0  0.17801163846E+03  0.11412370220E+01  0.29330272110E+03  0.34309755472E+03  0.00000000000E+00 0. -1.
        -13    1    3    3    0    0 -0.12288061254E+02  0.96188046809E+01  0.13049293820E+02  0.20342121867E+02  0.00000000000E+00 0.  1.
          2    1    6    6  502    0 -0.54779039696E+02 -0.16316976116E+03 -0.13511369295E+03  0.21881687360E+03  0.00000000000E+00 0. -1.
          3    1    5    5  503    0 -0.35358313090E+01  0.10381055895E+02  0.48103783687E+02  0.49338042417E+02  0.00000000000E+00 0. -1.
         -4    1    5    5    0  503 -0.12633416841E+03  0.32397535033E+03  0.37934324354E+03  0.51460824532E+03  0.00000000000E+00 0.  1.
         -1    1    6    6    0  502  0.18925462211E+02 -0.18194668676E+03 -0.10488734831E+03  0.21086518390E+03  0.00000000000E+00 0.  1.
<mgrwt>
<rscale>  0 0.12640400E+04</rscale>
<asrwt>0</asrwt>
<pdfrwt beam="1">  1        2 0.14237431E+00 0.12640400E+04</pdfrwt>
<pdfrwt beam="2">  1       -2 0.66405386E-01 0.12640400E+04</pdfrwt>
<totfact> 0.57756850E+01</totfact>
</mgrwt>
</event>
<event>
12    1  0.1442183E-007  0.1354524E+04  0.7818608E-02  0.8987411E-01
          1   -1    0    0  501    0  0.00000000000E+00  0.00000000000E+00  0.16394238422E+04  0.16394238422E+04  0.00000000000E+00 0. -1.
         -1   -1    0    0    0  501 -0.00000000000E+00 -0.00000000000E+00 -0.27978348851E+03  0.27978348851E+03  0.00000000000E+00 0.  1.
         23    2    1    2    0    0  0.44047342472E+02 -0.38992285383E+03  0.26241626293E+03  0.48084264668E+03  0.91473250184E+02 0.  0.
        254    2    1    2    0    0 -0.44047342472E+02  0.38992285383E+03  0.10972240908E+04  0.14383646841E+04  0.84321542838E+03 0.  0.
        -24    2    4    4    0    0 -0.68194587806E+02  0.64578163235E+03  0.69691035809E+03  0.95596373412E+03  0.80611384078E+02 0.  0.
         24    2    4    4    0    0  0.24147245334E+02 -0.25585877852E+03  0.40031373271E+03  0.48240094996E+03  0.80079884637E+02 0.  0.
         11    1    3    3    0    0  0.16553299899E+02 -0.14866976419E+03  0.48543044540E+02  0.15726772617E+03  0.00000000000E+00 0.  1.
        -11    1    3    3    0    0  0.27494042573E+02 -0.24125308964E+03  0.21387321839E+03  0.32357492051E+03  0.00000000000E+00 0. -1.
          2    1    6    6  502    0  0.30353553452E+01 -0.10756440908E+03  0.23988390447E+03  0.26291367995E+03  0.00000000000E+00 0. -1.
          1    1    5    5  503    0 -0.71812875866E+02  0.64005108439E+03  0.69722225625E+03  0.94917930571E+03  0.00000000000E+00 0. -1.
         -2    1    5    5    0  503  0.36182880600E+01  0.57305479576E+01 -0.31189815808E+00  0.67844284093E+01  0.00000000000E+00 0.  1.
         -1    1    6    6    0  502  0.21111889988E+02 -0.14829436944E+03  0.16042982824E+03  0.21948727001E+03  0.00000000000E+00 0.  1.
<mgrwt>
<rscale>  0 0.13545239E+04</rscale>
<asrwt>0</asrwt>
<pdfrwt beam="1">  1        1 0.25221905E+00 0.13545239E+04</pdfrwt>
<pdfrwt beam="2">  1       -1 0.43043615E-01 0.13545239E+04</pdfrwt>
<totfact> 0.27296125E+01</totfact>
</mgrwt>
</event>
<event>
12    1  0.1442183E-007  0.1304063E+04  0.7818608E-02  0.9026349E-01
         -2   -1    0    0    0  501 -0.00000000000E+00  0.00000000000E+00  0.18311298230E+03  0.18311298230E+03  0.00000000000E+00 0.  1.
          2   -1    0    0  501    0  0.00000000000E+00 -0.00000000000E+00 -0.23217653722E+04  0.23217653722E+04  0.00000000000E+00 0. -1.
         23    2    1    2    0    0 -0.20008720601E+03  0.20779011886E+03 -0.45470288633E+03  0.54589043169E+03  0.89610407163E+02 0.  0.
        254    2    1    2    0    0  0.20008720601E+03 -0.20779011886E+03 -0.16839495036E+04  0.19589879228E+04  0.95850723923E+03 0.  0.
        -24    2    4    4    0    0  0.28225981871E+03 -0.85186007086E+02 -0.42398913348E+02  0.30889861101E+03  0.81813342268E+02 0.  0.
         24    2    4    4    0    0 -0.82172612703E+02 -0.12260411177E+03 -0.16415505902E+04  0.16500893118E+04  0.79512830126E+02 0.  0.
         13    1    3    3    0    0 -0.66308650317E+02  0.12883960518E+03 -0.24946557633E+03  0.28849532880E+03  0.00000000000E+00 0. -1.
        -13    1    3    3    0    0 -0.13377855569E+03  0.78950513676E+02 -0.20523731000E+03  0.25739510288E+03  0.00000000000E+00 0.  1.
          2    1    6    6  502    0  0.52950629701E+01 -0.55206467273E+01 -0.13696515998E+02  0.15687886493E+02  0.00000000000E+00 0. -1.
          1    1    5    5  503    0  0.19898488492E+03 -0.89894048225E+02 -0.53359609407E+02  0.22477360221E+03  0.00000000000E+00 0. -1.
         -2    1    5    5    0  503  0.83274933784E+02  0.47080411397E+01  0.10960696059E+02  0.84125008803E+02  0.00000000000E+00 0.  1.
         -1    1    6    6    0  502 -0.87467675673E+02 -0.11708346504E+03 -0.16278540743E+04  0.16344014253E+04  0.00000000000E+00 0.  1.
<mgrwt>
<rscale>  0 0.13040635E+04</rscale>
<asrwt>0</asrwt>
<pdfrwt beam="1">  1        2 0.35719467E+00 0.13040635E+04</pdfrwt>
<pdfrwt beam="2">  1       -2 0.28171228E-01 0.13040635E+04</pdfrwt>
<totfact> 0.49919362E+01</totfact>
</mgrwt>
</event>
<event>
12    1  0.1442183E-007  0.1128717E+04  0.7818608E-02  0.9177646E-01
         -1   -1    0    0    0  501 -0.00000000000E+00  0.00000000000E+00  0.35109608899E+03  0.35109608899E+03  0.00000000000E+00 0.  1.
          1   -1    0    0  501    0  0.00000000000E+00 -0.00000000000E+00 -0.90715988521E+03  0.90715988521E+03  0.00000000000E+00 0. -1.
         23    2    1    2    0    0  0.14966820207E+03 -0.77752679150E+02 -0.49249325759E+01  0.18787218773E+03  0.82617517114E+02 0.  0.
        254    2    1    2    0    0 -0.14966820207E+03  0.77752679150E+02 -0.55113886365E+03  0.10703837865E+04  0.90195418592E+03 0.  0.
        -24    2    4    4    0    0  0.12318950322E+03 -0.23849315645E+03 -0.57982777595E+03  0.64400620041E+03  0.80554931744E+02 0.  0.
         24    2    4    4    0    0 -0.27285770529E+03  0.31624583560E+03  0.28688912304E+02  0.42637758606E+03  0.80697189135E+02 0.  0.
         11    1    3    3    0    0 -0.94619282735E+01 -0.70086344519E+01 -0.70276673148E+01  0.13712663907E+02  0.00000000000E+00 0. -1.
        -11    1    3    3    0    0  0.15913013034E+03 -0.70744044698E+02  0.21027347389E+01  0.17415952382E+03  0.00000000000E+00 0.  1.
          4    1    6    6  502    0 -0.97849523400E+02  0.72199564860E+02 -0.16389515267E+02  0.12270257783E+03  0.00000000000E+00 0. -1.
          1    1    5    5  503    0  0.10449003382E+03 -0.12897382361E+03 -0.29874148226E+03  0.34175852231E+03  0.00000000000E+00 0. -1.
         -2    1    5    5    0  503  0.18699469402E+02 -0.10951933284E+03 -0.28108629369E+03  0.30224767811E+03  0.00000000000E+00 0.  1.
         -3    1    6    6    0  502 -0.17500818189E+03  0.24404627074E+03  0.45078427571E+02  0.30367500823E+03  0.00000000000E+00 0.  1.
<mgrwt>
<rscale>  0 0.11287166E+04</rscale>
<asrwt>0</asrwt>
<pdfrwt beam="1">  1        1 0.13956306E+00 0.11287166E+04</pdfrwt>
<pdfrwt beam="2">  1       -1 0.54014784E-01 0.11287166E+04</pdfrwt>
<totfact> 0.61774755E+01</totfact>
</mgrwt>
</event>
<event>
12    1  0.1442183E-007  0.2025358E+04  0.7818608E-02  0.8594856E-01
         -2   -1    0    0    0  501 -0.00000000000E+00  0.00000000000E+00  0.34845551687E+03  0.34845551687E+03  0.00000000000E+00 0.  1.
          2   -1    0    0  501    0  0.00000000000E+00 -0.00000000000E+00 -0.29430399797E+04  0.29430399797E+04  0.00000000000E+00 0. -1.
         23    2    1    2    0    0 -0.51899225288E+03 -0.67346145991E+03 -0.10243979593E+04  0.13344323132E+04  0.91733979499E+02 0.  0.
        254    2    1    2    0    0  0.51899225288E+03  0.67346145991E+03 -0.15701865035E+04  0.19570631833E+04  0.80106638378E+03 0.  0.
        -24    2    4    4    0    0  0.66127875718E+03  0.40747693533E+03 -0.13962402049E+04  0.15998435079E+04  0.81764860062E+02 0.  0.
         24    2    4    4    0    0 -0.14228650429E+03  0.26598452458E+03 -0.17394629859E+03  0.35721967546E+03  0.79720543935E+02 0.  0.
         13    1    3    3    0    0 -0.32105473049E+03 -0.37654679835E+03 -0.53507722384E+03  0.72881497431E+03  0.00000000000E+00 0. -1.
        -13    1    3    3    0    0 -0.19793752240E+03 -0.29691466156E+03 -0.48932073547E+03  0.60561733891E+03  0.00000000000E+00 0.  1.
          4    1    6    6  502    0  0.32793974999E+01  0.33718683493E+02 -0.39102537247E+02  0.51736954719E+02  0.00000000000E+00 0. -1.
          3    1    5    5  503    0  0.52750663730E+03  0.30319646431E+03 -0.10310661515E+04  0.11972003830E+04  0.00000000000E+00 0. -1.
         -4    1    5    5    0  503  0.13377211987E+03  0.10428047102E+03 -0.36517405341E+03  0.40264312483E+03  0.00000000000E+00 0.  1.
         -3    1    6    6    0  502 -0.14556590179E+03  0.23226584108E+03 -0.13484376135E+03  0.30548272074E+03  0.00000000000E+00 0.  1.
<mgrwt>
<rscale>  0 0.20253578E+04</rscale>
<asrwt>0</asrwt>
<pdfrwt beam="1">  1        2 0.45277538E+00 0.20253578E+04</pdfrwt>
<pdfrwt beam="2">  1       -2 0.53608541E-01 0.20253578E+04</pdfrwt>
<totfact> 0.57559233E+00</totfact>
</mgrwt>
</event>
<event>
12    1  0.1442183E-007  0.1444206E+04  0.7818608E-02  0.8922427E-01
         -2   -1    0    0    0  501 -0.00000000000E+00  0.00000000000E+00  0.12222535844E+04  0.12222535844E+04  0.00000000000E+00 0.  1.
          2   -1    0    0  501    0  0.00000000000E+00 -0.00000000000E+00 -0.42661564015E+03  0.42661564015E+03  0.00000000000E+00 0. -1.
         23    2    1    2    0    0 -0.38818192708E+03  0.20280954450E+01  0.44813716914E+03  0.59930599317E+03  0.87472449387E+02 0.  0.
        254    2    1    2    0    0  0.38818192708E+03 -0.20280954450E+01  0.34750077513E+03  0.10495632314E+04  0.91111846996E+03 0.  0.
        -24    2    4    4    0    0 -0.12982220698E+03 -0.11972395385E+03 -0.20430286199E+03  0.27955800050E+03  0.72286829203E+02 0.  0.
         24    2    4    4    0    0  0.51800413406E+03  0.11769585840E+03  0.55180363712E+03  0.77000523091E+03  0.78994959970E+02 0.  0.
         11    1    3    3    0    0 -0.38933508425E+03  0.99979731253E+01  0.44247149919E+03  0.58945974832E+03  0.00000000000E+00 0.  1.
        -11    1    3    3    0    0  0.11531571670E+01 -0.79698776803E+01  0.56656699500E+01  0.98462448513E+01  0.00000000000E+00 0. -1.
          4    1    6    6  502    0  0.39519259075E+03  0.11418805044E+03  0.45661347032E+03  0.61458274945E+03  0.00000000000E+00 0. -1.
          3    1    5    5  503    0 -0.11662928467E+03 -0.66628306828E+02 -0.12699764034E+03  0.18485162148E+03  0.00000000000E+00 0. -1.
         -4    1    5    5    0  503 -0.13192922305E+02 -0.53095647021E+02 -0.77305221650E+02  0.94706379014E+02  0.00000000000E+00 0.  1.
         -3    1    6    6    0  502  0.12281154331E+03  0.35078079604E+01  0.95190166801E+02  0.15542248146E+03  0.00000000000E+00 0.  1.
<mgrwt>
<rscale>  0 0.14442057E+04</rscale>
<asrwt>0</asrwt>
<pdfrwt beam="1">  1        2 0.65633176E-01 0.14442057E+04</pdfrwt>
<pdfrwt beam="2">  1       -2 0.18803901E+00 0.14442057E+04</pdfrwt>
<totfact> 0.11445974E+01</totfact>
</mgrwt>
</event>
<event>
12    1  0.1776608E-007  0.1354688E+04  0.7818608E-02  0.8987287E-01
         -2   -1    0    0    0  501 -0.00000000000E+00  0.00000000000E+00  0.36852643178E+03  0.36852643178E+03  0.00000000000E+00 0.  1.
          2   -1    0    0  501    0  0.00000000000E+00 -0.00000000000E+00 -0.12449435442E+04  0.12449435442E+04  0.00000000000E+00 0. -1.
         23    2    1    2    0    0  0.34650648086E+02  0.65500486911E+01 -0.68988987174E+03  0.69720858055E+03  0.94383256522E+02 0.  0.
        254    2    1    2    0    0 -0.34650648086E+02 -0.65500486911E+01 -0.18652724069E+03  0.91626139544E+03  0.89638103656E+03 0.  0.
        -24    2    4    4    0    0  0.29441027925E+03 -0.78483543148E+02 -0.40054207757E+03  0.50955813003E+03  0.79865217085E+02 0.  0.
         24    2    4    4    0    0 -0.32906092734E+03  0.71933494457E+02  0.21401483688E+03  0.40670326541E+03  0.78419858275E+02 0.  0.
         11    1    3    3    0    0  0.40109131943E+02 -0.16438372600E+02 -0.64522356080E+03  0.64667797702E+03  0.00000000000E+00 0. -1.
        -11    1    3    3    0    0 -0.54584838576E+01  0.22988421292E+02 -0.44666310945E+02  0.50530603528E+02  0.00000000000E+00 0.  1.
          2    1    6    6  502    0 -0.28784996313E+03  0.87476617769E+02  0.17617695191E+03  0.34863745971E+03  0.00000000000E+00 0. -1.
          1    1    5    5  503    0  0.26999442426E+03 -0.53568942592E+02 -0.32198868600E+03  0.42360752431E+03  0.00000000000E+00 0. -1.
         -2    1    5    5    0  503  0.24415854992E+02 -0.24914600556E+02 -0.78553391572E+02  0.85950605718E+02  0.00000000000E+00 0.  1.
         -1    1    6    6    0  502 -0.41210964204E+02 -0.15543123312E+02  0.37837884970E+02  0.58065805703E+02  0.00000000000E+00 0.  1.
<mgrwt>
<rscale>  0 0.13546876E+04</rscale>
<asrwt>0</asrwt>
<pdfrwt beam="1">  1        2 0.19152978E+00 0.13546876E+04</pdfrwt>
<pdfrwt beam="2">  1       -2 0.56696373E-01 0.13546876E+04</pdfrwt>
<totfact> 0.50739114E+01</totfact>
</mgrwt>
</event>
<event>
12    1  0.1442183E-007  0.1724047E+04  0.7818608E-02  0.8747767E-01
          2   -1    0    0  501    0  0.00000000000E+00  0.00000000000E+00  0.24007371510E+04  0.24007371510E+04  0.00000000000E+00 0. -1.
         -2   -1    0    0    0  501 -0.00000000000E+00 -0.00000000000E+00 -0.30952342002E+03  0.30952342002E+03  0.00000000000E+00 0.  1.
         23    2    1    2    0    0 -0.85794031390E+02 -0.27336373340E+03  0.16355943527E+04  0.16629947412E+04  0.91072915590E+02 0.  0.
        254    2    1    2    0    0  0.85794031390E+02  0.27336373340E+03  0.45561937822E+03  0.10472658298E+04  0.89838096258E+03 0.  0.
        -24    2    4    4    0    0 -0.14963903058E+03 -0.78261377655E+02 -0.19460323989E+03  0.26734910099E+03  0.71333289015E+02 0.  0.
         24    2    4    4    0    0  0.23543306197E+03  0.35162511106E+03  0.65022261810E+03  0.77991672882E+03  0.80073125366E+02 0.  0.
         13    1    3    3    0    0 -0.33375589663E+02 -0.14758958757E+03  0.10990890506E+04  0.11094563342E+04  0.00000000000E+00 0. -1.
        -13    1    3    3    0    0 -0.52418441727E+02 -0.12577414583E+03  0.53650530217E+03  0.55353840702E+03  0.00000000000E+00 0.  1.
          4    1    6    6  502    0  0.23214693846E+03  0.31115517845E+03  0.56502451714E+03  0.68553807413E+03  0.00000000000E+00 0. -1.
          1    1    5    5  503    0 -0.12107908746E+03 -0.87256632767E+02 -0.18061964046E+03  0.23430177102E+03  0.00000000000E+00 0. -1.
         -2    1    5    5    0  503 -0.28559943115E+02  0.89952551128E+01 -0.13983599423E+02  0.33047329969E+02  0.00000000000E+00 0.  1.
         -3    1    6    6    0  502  0.32861235040E+01  0.40469932603E+02  0.85198100968E+02  0.94378654690E+02  0.00000000000E+00 0.  1.
<mgrwt>
<rscale>  0 0.17240468E+04</rscale>
<asrwt>0</asrwt>
<pdfrwt beam="1">  1        2 0.36934416E+00 0.17240468E+04</pdfrwt>
<pdfrwt beam="2">  1       -2 0.47618989E-01 0.17240468E+04</pdfrwt>
<totfact> 0.15781010E+01</totfact>
</mgrwt>
</event>
<event>
12    1  0.1442183E-007  0.1270769E+04  0.7818608E-02  0.9053072E-01
          2   -1    0    0  501    0  0.00000000000E+00  0.00000000000E+00  0.19831885233E+04  0.19831885233E+04  0.00000000000E+00 0. -1.
         -2   -1    0    0    0  501 -0.00000000000E+00 -0.00000000000E+00 -0.20356782135E+03  0.20356782135E+03  0.00000000000E+00 0.  1.
         23    2    1    2    0    0 -0.18710007721E+03  0.26905944310E+03  0.39035187878E+03  0.51633617090E+03  0.82637941086E+02 0.  0.
        254    2    1    2    0    0  0.18710007721E+03 -0.26905944310E+03  0.13892688232E+04  0.16704201737E+04  0.86766138036E+03 0.  0.
        -24    2    4    4    0    0 -0.21225607955E+03 -0.96737425867E+02  0.11324892378E+04  0.11587176084E+04  0.75391307992E+02 0.  0.
         24    2    4    4    0    0  0.39935615676E+03 -0.17232201723E+03  0.25677958534E+03  0.51170256535E+03  0.81997209493E+02 0.  0.
         13    1    3    3    0    0 -0.58009364226E+02  0.62056314778E+02  0.15824753474E+03  0.17960611012E+03  0.00000000000E+00 0.  1.
        -13    1    3    3    0    0 -0.12909071298E+03  0.20700312832E+03  0.23210434403E+03  0.33673006078E+03  0.00000000000E+00 0. -1.
          4    1    6    6  502    0  0.15785232109E+03 -0.39729507618E+02  0.13051742228E+03  0.20863984894E+03  0.00000000000E+00 0. -1.
          1    1    5    5  503    0 -0.70980076576E+02 -0.51175114693E+02  0.27850696916E+03  0.29193012093E+03  0.00000000000E+00 0. -1.
         -2    1    5    5    0  503 -0.14127600298E+03 -0.45562311174E+02  0.85398226867E+03  0.86678748746E+03  0.00000000000E+00 0.  1.
         -3    1    6    6    0  502  0.24150383567E+03 -0.13259250961E+03  0.12626216306E+03  0.30306271640E+03  0.00000000000E+00 0.  1.
<mgrwt>
<rscale>  0 0.12707688E+04</rscale>
<asrwt>0</asrwt>
<pdfrwt beam="1">  1        2 0.30510591E+00 0.12707688E+04</pdfrwt>
<pdfrwt beam="2">  1       -2 0.31318128E-01 0.12707688E+04</pdfrwt>
<totfact> 0.63485545E+01</totfact>
</mgrwt>
</event>
<event>
12    1  0.1442183E-007  0.1842358E+04  0.7818608E-02  0.8684093E-01
         -1   -1    0    0    0  501 -0.00000000000E+00  0.00000000000E+00  0.60932538099E+03  0.60932538099E+03  0.00000000000E+00 0.  1.
          1   -1    0    0  501    0  0.00000000000E+00 -0.00000000000E+00 -0.13926397804E+04  0.13926397804E+04  0.00000000000E+00 0. -1.
         23    2    1    2    0    0 -0.22872088097E+03 -0.37432582416E+03 -0.88895580602E+03  0.99599228508E+03  0.96566779205E+02 0.  0.
        254    2    1    2    0    0  0.22872088097E+03  0.37432582416E+03  0.10564140659E+03  0.10059728763E+04  0.89910414142E+03 0.  0.
        -24    2    4    4    0    0  0.19286377373E+03  0.61850408368E+03  0.26169797957E+03  0.70322369038E+03  0.79334667395E+02 0.  0.
         24    2    4    4    0    0  0.35857107248E+02 -0.24417825952E+03 -0.15605657297E+03  0.30274918596E+03  0.79966624720E+02 0.  0.
         11    1    3    3    0    0 -0.22008482289E+03 -0.28827804294E+03 -0.71539271902E+03  0.80207749110E+03  0.00000000000E+00 0. -1.
        -11    1    3    3    0    0 -0.86360580856E+01 -0.86047781227E+02 -0.17356308700E+03  0.19391479398E+03  0.00000000000E+00 0.  1.
          4    1    6    6  502    0  0.12395278413E+02 -0.16993108311E+03 -0.63585356341E+02  0.18186069800E+03  0.00000000000E+00 0. -1.
          3    1    5    5  503    0  0.10105705364E+02  0.93176679728E+02  0.15643745095E+02  0.95019712095E+02  0.00000000000E+00 0. -1.
         -2    1    5    5    0  503  0.18275806836E+03  0.52532740396E+03  0.24605423447E+03  0.60820397828E+03  0.00000000000E+00 0.  1.
         -3    1    6    6    0  502  0.23461828835E+02 -0.74247176410E+02 -0.92471216634E+02  0.12088848797E+03  0.00000000000E+00 0.  1.
<mgrwt>
<rscale>  0 0.18423580E+04</rscale>
<asrwt>0</asrwt>
<pdfrwt beam="1">  1        1 0.21425227E+00 0.18423580E+04</pdfrwt>
<pdfrwt beam="2">  1       -1 0.93742366E-01 0.18423580E+04</pdfrwt>
<totfact> 0.80650194E+00</totfact>
</mgrwt>
</event>
<event>
12    1  0.1442183E-007  0.4377968E+04  0.7818608E-02  0.7932356E-01
          1   -1    0    0  501    0  0.00000000000E+00  0.00000000000E+00  0.38031948507E+04  0.38031948507E+04  0.00000000000E+00 0. -1.
         -1   -1    0    0    0  501 -0.00000000000E+00 -0.00000000000E+00 -0.12599012506E+04  0.12599012506E+04  0.00000000000E+00 0.  1.
         23    2    1    2    0    0 -0.15485278180E+04  0.13668626803E+04  0.86072475401E+03  0.22395873475E+04  0.93018251496E+02 0.  0.
        254    2    1    2    0    0  0.15485278180E+04 -0.13668626803E+04  0.16825688461E+04  0.28235087538E+04  0.93536718512E+03 0.  0.
        -24    2    4    4    0    0 -0.10159536045E+03 -0.16364445883E+03  0.69617776899E+02  0.21997066231E+03  0.80245443780E+02 0.  0.
         24    2    4    4    0    0  0.16501231785E+04 -0.12032182215E+04  0.16129510692E+04  0.26035380915E+04  0.78478338551E+02 0.  0.
         13    1    3    3    0    0 -0.12104850170E+04  0.10759146437E+04  0.71541989608E+03  0.17705061211E+04  0.00000000000E+00 0. -1.
        -13    1    3    3    0    0 -0.33804280099E+03  0.29094803658E+03  0.14530485793E+03  0.46908122647E+03  0.00000000000E+00 0.  1.
          2    1    6    6  502    0  0.11594673653E+04 -0.88856993651E+03  0.11610726688E+04  0.18660146960E+04  0.00000000000E+00 0. -1.
          1    1    5    5  503    0 -0.27256211978E+02 -0.47714068292E+02 -0.16707206368E+02  0.57433998198E+02  0.00000000000E+00 0. -1.
         -2    1    5    5    0  503 -0.74339148476E+02 -0.11593039053E+03  0.86324983267E+02  0.16253666411E+03  0.00000000000E+00 0.  1.
         -1    1    6    6    0  502  0.49065581317E+03 -0.31464828496E+03  0.45187840034E+03  0.73752339550E+03  0.00000000000E+00 0.  1.
<mgrwt>
<rscale>  0 0.43779675E+04</rscale>
<asrwt>0</asrwt>
<pdfrwt beam="1">  1        1 0.58510690E+00 0.43779675E+04</pdfrwt>
<pdfrwt beam="2">  1       -1 0.19383096E+00 0.43779675E+04</pdfrwt>
<totfact> 0.17811657E-02</totfact>
</mgrwt>
</event>
<event>
12    1  0.1442183E-007  0.1360921E+04  0.7818608E-02  0.8982602E-01
          2   -1    0    0  501    0  0.00000000000E+00  0.00000000000E+00  0.23958465355E+04  0.23958465355E+04  0.00000000000E+00 0. -1.
         -2   -1    0    0    0  501 -0.00000000000E+00 -0.00000000000E+00 -0.19326205427E+03  0.19326205427E+03  0.00000000000E+00 0.  1.
         23    2    1    2    0    0  0.22452853751E+03 -0.69811063156E+02  0.68333065235E+02  0.26110201799E+03  0.90654328625E+02 0.  0.
        254    2    1    2    0    0 -0.22452853751E+03  0.69811063156E+02  0.21342514160E+04  0.23280065718E+04  0.89961038394E+03 0.  0.
        -24    2    4    4    0    0 -0.32520318372E+03  0.41283667452E+03  0.94869733121E+03  0.10874375761E+04  0.79389074142E+02 0.  0.
         24    2    4    4    0    0  0.10067464621E+03 -0.34302561136E+03  0.11855540848E+04  0.12405689957E+04  0.75305980593E+02 0.  0.
         13    1    3    3    0    0  0.16982039666E+03 -0.70428672780E+02  0.86869113403E+02  0.20333570256E+03  0.00000000000E+00 0.  1.
        -13    1    3    3    0    0  0.54708140849E+02  0.61760962421E+00 -0.18536048168E+02  0.57766315431E+02  0.00000000000E+00 0. -1.
          2    1    6    6  502    0 -0.40873909374E+01 -0.68775442414E+02  0.16995332600E+03  0.18338729853E+03  0.00000000000E+00 0. -1.
          1    1    5    5  503    0 -0.36231875809E+02  0.17515786375E+02  0.52063384125E+02  0.65803856752E+02  0.00000000000E+00 0. -1.
         -2    1    5    5    0  503 -0.28897130791E+03  0.39532088814E+03  0.89663394709E+03  0.10216337193E+04  0.00000000000E+00 0.  1.
         -1    1    6    6    0  502  0.10476203715E+03 -0.27425016895E+03  0.10156007587E+04  0.10571816971E+04  0.00000000000E+00 0.  1.
<mgrwt>
<rscale>  0 0.13609206E+04</rscale>
<asrwt>0</asrwt>
<pdfrwt beam="1">  1        2 0.36859175E+00 0.13609206E+04</pdfrwt>
<pdfrwt beam="2">  1       -2 0.29732625E-01 0.13609206E+04</pdfrwt>
<totfact> 0.40811138E+01</totfact>
</mgrwt>
</event>
<event>
12    1  0.1442183E-007  0.2041612E+04  0.7818608E-02  0.8587409E-01
          2   -1    0    0  501    0  0.00000000000E+00  0.00000000000E+00  0.28161398826E+04  0.28161398826E+04  0.00000000000E+00 0. -1.
         -2   -1    0    0    0  501 -0.00000000000E+00 -0.00000000000E+00 -0.37002602359E+03  0.37002602359E+03  0.00000000000E+00 0.  1.
         23    2    1    2    0    0 -0.90770123258E+02 -0.43646222069E+03  0.20593912129E+04  0.21090941463E+04  0.91910090271E+02 0.  0.
        254    2    1    2    0    0  0.90770123258E+02  0.43646222069E+03  0.38672264611E+03  0.10770717599E+04  0.90099427613E+03 0.  0.
        -24    2    4    4    0    0  0.28397146517E+02  0.65997151658E+03  0.47340857554E+03  0.81686278590E+03  0.82342765058E+02 0.  0.
         24    2    4    4    0    0  0.62372976740E+02 -0.22350929589E+03 -0.86685929426E+02  0.26020897402E+03  0.79670987331E+02 0.  0.
         11    1    3    3    0    0 -0.66628472124E+02 -0.42150466784E+03  0.19373975356E+04  0.19838383879E+04  0.00000000000E+00 0. -1.
        -11    1    3    3    0    0 -0.24141651134E+02 -0.14957552854E+02  0.12199367731E+03  0.12525575839E+03  0.00000000000E+00 0.  1.
          2    1    6    6  502    0  0.45692113346E+02 -0.87168157381E+02 -0.12058310858E+01  0.98425153857E+02  0.00000000000E+00 0. -1.
          3    1    5    5  503    0  0.15425417680E+02  0.15510670022E+03  0.71799434123E+02  0.17161349220E+03  0.00000000000E+00 0. -1.
         -4    1    5    5    0  503  0.12971728838E+02  0.50486481636E+03  0.40160914142E+03  0.64524929370E+03  0.00000000000E+00 0.  1.
         -1    1    6    6    0  502  0.16680863394E+02 -0.13634113851E+03 -0.85480098340E+02  0.16178382016E+03  0.00000000000E+00 0.  1.
<mgrwt>
<rscale>  0 0.20416121E+04</rscale>
<asrwt>0</asrwt>
<pdfrwt beam="1">  1        2 0.43325228E+00 0.20416121E+04</pdfrwt>
<pdfrwt beam="2">  1       -2 0.56927082E-01 0.20416121E+04</pdfrwt>
<totfact> 0.60650017E+00</totfact>
</mgrwt>
</event>
<event>
12    1  0.1442183E-007  0.2008707E+04  0.7818608E-02  0.8602561E-01
          1   -1    0    0  501    0  0.00000000000E+00  0.00000000000E+00  0.63361321762E+03  0.63361321762E+03  0.00000000000E+00 0. -1.
         -1   -1    0    0    0  501 -0.00000000000E+00 -0.00000000000E+00 -0.15920213936E+04  0.15920213936E+04  0.00000000000E+00 0.  1.
         23    2    1    2    0    0 -0.48876296237E+02 -0.12423264235E+03  0.49922884885E+03  0.52451211493E+03  0.89782367036E+02 0.  0.
        254    2    1    2    0    0  0.48876296237E+02  0.12423264235E+03 -0.14576370249E+04  0.17011224963E+04  0.86676952499E+03 0.  0.
        -24    2    4    4    0    0 -0.27318933184E+03 -0.10447109497E+03 -0.11627921151E+04  0.12017108471E+04  0.80478795255E+02 0.  0.
         24    2    4    4    0    0  0.32206562808E+03  0.22870373732E+03 -0.29484490981E+03  0.49941164921E+03  0.80292006314E+02 0.  0.
         11    1    3    3    0    0  0.53861553638E+01  0.12010666262E+02  0.27033326292E+02  0.30067715312E+02  0.00000000000E+00 0.  1.
        -11    1    3    3    0    0 -0.54262451601E+02 -0.13624330862E+03  0.47219552256E+03  0.49444439962E+03  0.00000000000E+00 0. -1.
          2    1    6    6  502    0  0.15037399684E+03  0.63763758228E+02 -0.97889467183E+02  0.19042190938E+03  0.00000000000E+00 0. -1.
          3    1    5    5  503    0 -0.12733990953E+03 -0.20801783769E+02 -0.38828374563E+03  0.40916064557E+03  0.00000000000E+00 0. -1.
         -4    1    5    5    0  503 -0.14584942231E+03 -0.83669311196E+02 -0.77450836944E+03  0.79255020154E+03  0.00000000000E+00 0.  1.
         -1    1    6    6    0  502  0.17169163124E+03  0.16493997909E+03 -0.19695544262E+03  0.30898973983E+03  0.00000000000E+00 0.  1.
<mgrwt>
<rscale>  0 0.20087068E+04</rscale>
<asrwt>0</asrwt>
<pdfrwt beam="1">  1        1 0.97478958E-01 0.20087068E+04</pdfrwt>
<pdfrwt beam="2">  1       -1 0.24492636E+00 0.20087068E+04</pdfrwt>
<totfact> 0.22063158E+00</totfact>
</mgrwt>
</event>
<event>
12    1  0.1442183E-007  0.2896878E+04  0.7818608E-02  0.8273807E-01
         -2   -1    0    0    0  501 -0.00000000000E+00  0.00000000000E+00  0.49911498949E+03  0.49911498949E+03  0.00000000000E+00 0. -1.
          2   -1    0    0  501    0  0.00000000000E+00 -0.00000000000E+00 -0.42033904983E+04  0.42033904983E+04  0.00000000000E+00 0.  1.
         23    2    1    2    0    0 -0.13378238184E+03 -0.81245202798E+03 -0.33222135475E+04  0.34238858345E+04  0.88968135089E+02 0.  0.
        254    2    1    2    0    0  0.13378238184E+03  0.81245202798E+03 -0.38206196134E+03  0.12786196533E+04  0.90051143918E+03 0.  0.
        -24    2    4    4    0    0 -0.10985617922E+03  0.46087829229E+03 -0.61847576706E+03  0.78337231560E+03  0.81747966271E+02 0.  0.
         24    2    4    4    0    0  0.24363856106E+03  0.35157373569E+03  0.23641380572E+03  0.49524733772E+03  0.80091185023E+02 0.  0.
         13    1    3    3    0    0 -0.18345255675E+02 -0.15517668506E+03 -0.50004056497E+03  0.52388636039E+03  0.00000000000E+00 0. -1.
        -13    1    3    3    0    0 -0.11543712617E+03 -0.65727534292E+03 -0.28221729825E+04  0.28999994741E+04  0.00000000000E+00 0.  1.
          2    1    6    6  502    0  0.11448367940E+03  0.12781441364E+03  0.57421921741E+02  0.18094284811E+03  0.00000000000E+00 0. -1.
          1    1    5    5  503    0 -0.92624033556E+02  0.23182991519E+03 -0.29169470878E+03  0.38394026137E+03  0.00000000000E+00 0. -1.
         -4    1    5    5    0  503 -0.17232145663E+02  0.22904837709E+03 -0.32678105828E+03  0.39943205422E+03  0.00000000000E+00 0.  1.
         -1    1    6    6    0  502  0.12915488166E+03  0.22375932205E+03  0.17899188398E+03  0.31430448961E+03  0.00000000000E+00 0.  1.
<mgrwt>
<rscale>  0 0.28968778E+04</rscale>
<asrwt>0</asrwt>
<pdfrwt beam="1">  1        2 0.64667548E+00 0.28968778E+04</pdfrwt>
<pdfrwt beam="2">  1       -2 0.76786919E-01 0.28968778E+04</pdfrwt>
<totfact> 0.30219348E-01</totfact>
</mgrwt>
</event>
<event>
12    1  0.1442183E-007  0.1133361E+04  0.7818608E-02  0.9173272E-01
         -1   -1    0    0    0  501 -0.00000000000E+00  0.00000000000E+00  0.52654894083E+03  0.52654894083E+03  0.00000000000E+00 0.  1.
          1   -1    0    0  501    0  0.00000000000E+00 -0.00000000000E+00 -0.60987125298E+03  0.60987125298E+03  0.00000000000E+00 0. -1.
         23    2    1    2    0    0  0.65002742758E+02 -0.17873051028E+03  0.45973272057E+02  0.21612746544E+03  0.91801893782E+02 0.  0.
        254    2    1    2    0    0 -0.65002742758E+02  0.17873051028E+03 -0.12929558421E+03  0.92029272837E+03  0.89109562109E+03 0.  0.
        -24    2    4    4    0    0  0.42142784434E+02  0.17171959006E+03  0.36104909150E+03  0.41190538515E+03  0.89699319706E+02 0.  0.
         24    2    4    4    0    0 -0.10714552719E+03  0.70109202166E+01 -0.49034467571E+03  0.50838734322E+03  0.80563470337E+02 0.  0.
         13    1    3    3    0    0  0.17654456532E+02 -0.23835140047E+02 -0.25473972113E+02  0.39098810618E+02  0.00000000000E+00 0. -1.
        -13    1    3    3    0    0  0.47348286226E+02 -0.15489537023E+03  0.71447244170E+02  0.17702865482E+03  0.00000000000E+00 0.  1.
          2    1    6    6  502    0 -0.85851801900E+02  0.25994139936E+02 -0.23641311328E+03  0.25285843338E+03  0.00000000000E+00 0. -1.
          1    1    5    5  503    0  0.66564008480E+02  0.92743045000E+02  0.23347237466E+03  0.25988726277E+03  0.00000000000E+00 0. -1.
         -2    1    5    5    0  503 -0.24421224046E+02  0.78976545060E+02  0.12757671685E+03  0.15201812239E+03  0.00000000000E+00 0.  1.
         -1    1    6    6    0  502 -0.21293725292E+02 -0.18983219719E+02 -0.25393156243E+03  0.25552890984E+03  0.00000000000E+00 0.  1.
<mgrwt>
<rscale>  0 0.11333615E+04</rscale>
<asrwt>0</asrwt>
<pdfrwt beam="1">  1        1 0.93826347E-01 0.11333615E+04</pdfrwt>
<pdfrwt beam="2">  1       -1 0.81007529E-01 0.11333615E+04</pdfrwt>
<totfact> 0.50533794E+01</totfact>
</mgrwt>
</event>
<event>
12    1  0.1442183E-007  0.1184309E+04  0.7818608E-02  0.9126703E-01
          2   -1    0    0  501    0  0.00000000000E+00  0.00000000000E+00  0.16561624761E+04  0.16561624761E+04  0.00000000000E+00 0. -1.
         -2   -1    0    0    0  501 -0.00000000000E+00 -0.00000000000E+00 -0.21172242048E+03  0.21172242048E+03  0.00000000000E+00 0.  1.
         23    2    1    2    0    0  0.61928275618E+02 -0.18266747195E+03  0.91924012714E+02  0.23265034470E+03  0.92052388061E+02 0.  0.
        254    2    1    2    0    0 -0.61928275618E+02  0.18266747195E+03  0.13525160429E+04  0.16352345518E+04  0.89860440501E+03 0.  0.
        -24    2    4    4    0    0 -0.46178524142E+03  0.20286877843E+03  0.75915943134E+03  0.91493671021E+03  0.79904887478E+02 0.  0.
         24    2    4    4    0    0  0.39985696580E+03 -0.20201306476E+02  0.59335661151E+03  0.72029784162E+03  0.80394193393E+02 0.  0.
         11    1    3    3    0    0  0.48386887895E+02 -0.89851812750E+02  0.94117676679E+02  0.13882642486E+03  0.00000000000E+00 0. -1.
        -11    1    3    3    0    0  0.13541387723E+02 -0.92815659199E+02 -0.21936639649E+01  0.93823919848E+02  0.00000000000E+00 0.  1.
          4    1    6    6  502    0  0.40008306701E+03 -0.17832084701E+02  0.59512896876E+03  0.71733042123E+03  0.00000000000E+00 0. -1.
          3    1    5    5  503    0 -0.42645303197E+03  0.16285658908E+03  0.69446970986E+03  0.83106716636E+03  0.00000000000E+00 0. -1.
         -4    1    5    5    0  503 -0.35332209455E+02  0.40012189347E+02  0.64689721477E+02  0.83869543853E+02  0.00000000000E+00 0.  1.
         -3    1    6    6    0  502 -0.22610120501E+00 -0.23692217751E+01 -0.17723572516E+01  0.29674203952E+01  0.00000000000E+00 0.  1.
<mgrwt>
<rscale>  0 0.11843086E+04</rscale>
<asrwt>0</asrwt>
<pdfrwt beam="1">  1        2 0.25479422E+00 0.11843086E+04</pdfrwt>
<pdfrwt beam="2">  1       -2 0.32572681E-01 0.11843086E+04</pdfrwt>
<totfact> 0.89990683E+01</totfact>
</mgrwt>
</event>
<event>
12    1  0.1442183E-007  0.1824548E+04  0.7818608E-02  0.8693353E-01
          1   -1    0    0  501    0  0.00000000000E+00  0.00000000000E+00  0.63214444910E+03  0.63214444910E+03  0.00000000000E+00 0. -1.
         -1   -1    0    0    0  501 -0.00000000000E+00 -0.00000000000E+00 -0.13165411190E+04  0.13165411190E+04  0.00000000000E+00 0.  1.
         23    2    1    2    0    0 -0.50089417718E+03  0.83965538801E+02  0.22357247091E+03  0.56550455394E+03  0.10892916203E+03 0.  0.
        254    2    1    2    0    0  0.50089417718E+03 -0.83965538801E+02 -0.90796914082E+03  0.13831810142E+04  0.91150236907E+03 0.  0.
        -24    2    4    4    0    0  0.16403419408E+03 -0.21303289999E+03 -0.96896968480E+03  0.10091832769E+04  0.85196262229E+02 0.  0.
         24    2    4    4    0    0  0.33685998310E+03  0.12906736119E+03  0.61000543973E+02  0.37399773722E+03  0.77590006725E+02 0.  0.
         13    1    3    3    0    0 -0.49311735327E+03  0.76009442685E+02  0.19651044746E+03  0.53624482788E+03  0.00000000000E+00 0. -1.
        -13    1    3    3    0    0 -0.77768239101E+01  0.79560961158E+01  0.27062023454E+02  0.29259726057E+02  0.00000000000E+00 0.  1.
          2    1    6    6  502    0  0.27002115094E+03  0.13093399333E+03  0.64861708404E+02  0.30702145492E+03  0.00000000000E+00 0. -1.
          3    1    5    5  503    0  0.46818713041E+01 -0.15550773520E+02 -0.15234822054E+02  0.22267606045E+02  0.00000000000E+00 0. -1.
         -4    1    5    5    0  503  0.15935232277E+03 -0.19748212647E+03 -0.95373486274E+03  0.98691567090E+03  0.00000000000E+00 0.  1.
         -1    1    6    6    0  502  0.66838832165E+02 -0.18666321408E+01 -0.38611644312E+01  0.66976282306E+02  0.00000000000E+00 0.  1.
<mgrwt>
<rscale>  0 0.18245483E+04</rscale>
<asrwt>0</asrwt>
<pdfrwt beam="1">  1        1 0.97252994E-01 0.18245483E+04</pdfrwt>
<pdfrwt beam="2">  1       -1 0.20254478E+00 0.18245483E+04</pdfrwt>
<totfact> 0.43189941E+00</totfact>
</mgrwt>
</event>
<event>
12    1  0.1442183E-007  0.1253416E+04  0.7818608E-02  0.9067345E-01
          2   -1    0    0  501    0  0.00000000000E+00  0.00000000000E+00  0.51231984070E+03  0.51231984070E+03  0.00000000000E+00 0. -1.
         -2   -1    0    0    0  501 -0.00000000000E+00 -0.00000000000E+00 -0.76663558470E+03  0.76663558470E+03  0.00000000000E+00 0.  1.
         23    2    1    2    0    0  0.24792528626E+03  0.85442496199E+02  0.15080136707E+03  0.31838862008E+03  0.99312100791E+02 0.  0.
        254    2    1    2    0    0 -0.24792528626E+03 -0.85442496199E+02 -0.40511711108E+03  0.96056680532E+03  0.83054280208E+03 0.  0.
        -24    2    4    4    0    0 -0.10110293895E+03  0.16678173358E+03 -0.57512010254E+03  0.61247625418E+03  0.79536649811E+02 0.  0.
         24    2    4    4    0    0 -0.14682234730E+03 -0.25222422978E+03  0.17000299147E+03  0.34809055114E+03  0.84214909219E+02 0.  0.
         11    1    3    3    0    0  0.19336637681E+03  0.10736710541E+03  0.12623602838E+03  0.25466406473E+03  0.00000000000E+00 0. -1.
        -11    1    3    3    0    0  0.54558909443E+02 -0.21924609214E+02  0.24565338695E+02  0.63724555346E+02  0.00000000000E+00 0.  1.
          2    1    6    6  502    0 -0.12524361445E+03 -0.13584079039E+03  0.92702012187E+02  0.20671803588E+03  0.00000000000E+00 0. -1.
          1    1    5    5  503    0 -0.15587756031E+02  0.68313047980E+02 -0.29907492952E+03  0.30717334541E+03  0.00000000000E+00 0. -1.
         -2    1    5    5    0  503 -0.85515182923E+02  0.98468685597E+02 -0.27604517302E+03  0.30530290877E+03  0.00000000000E+00 0.  1.
         -1    1    6    6    0  502 -0.21578732851E+02 -0.11638343938E+03  0.77300979281E+02  0.14137251526E+03  0.00000000000E+00 0.  1.
<mgrwt>
<rscale>  0 0.12534155E+04</rscale>
<asrwt>0</asrwt>
<pdfrwt beam="1">  1        2 0.78818437E-01 0.12534155E+04</pdfrwt>
<pdfrwt beam="2">  1       -2 0.11794394E+00 0.12534155E+04</pdfrwt>
<totfact> 0.32611042E+01</totfact>
</mgrwt>
</event>
<event>
12    1  0.1442183E-007  0.2243755E+04  0.7818608E-02  0.8500434E-01
          1   -1    0    0  501    0  0.00000000000E+00  0.00000000000E+00  0.13865188528E+04  0.13865188528E+04  0.00000000000E+00 0. -1.
         -1   -1    0    0    0  501 -0.00000000000E+00 -0.00000000000E+00 -0.90774717394E+03  0.90774717394E+03  0.00000000000E+00 0.  1.
         23    2    1    2    0    0 -0.26260123794E+03  0.84325248162E+03 -0.12220104909E+03  0.89563172718E+03  0.84787595817E+02 0.  0.
        254    2    1    2    0    0  0.26260123794E+03 -0.84325248162E+03  0.60097272795E+03  0.13986342996E+04  0.90275994939E+03 0.  0.
        -24    2    4    4    0    0 -0.21068915604E+03 -0.32884209102E+03 -0.94650586406E+02  0.40916511147E+03  0.77008529605E+02 0.  0.
         24    2    4    4    0    0  0.47329039399E+03 -0.51441039060E+03  0.69562331436E+03  0.98946918809E+03  0.80843253939E+02 0.  0.
         11    1    3    3    0    0 -0.13151616504E+03  0.55801030352E+03 -0.82803849314E+02  0.57924820065E+03  0.00000000000E+00 0.  1.
        -11    1    3    3    0    0 -0.13108507291E+03  0.28524217811E+03 -0.39397199775E+02  0.31638352653E+03  0.00000000000E+00 0. -1.
          4    1    6    6  502    0  0.30340532649E+02 -0.94648143026E+01  0.36465766645E+02  0.48372334740E+02  0.00000000000E+00 0. -1.
          1    1    5    5  503    0 -0.10799683973E+03 -0.16158885862E+03 -0.77147270047E+01  0.19450910939E+03  0.00000000000E+00 0. -1.
         -2    1    5    5    0  503 -0.10269231631E+03 -0.16725323240E+03 -0.86935859401E+02  0.21465600208E+03  0.00000000000E+00 0.  1.
         -1    1    6    6    0  502  0.44294986134E+03 -0.50494557630E+03  0.65915754771E+03  0.94109685335E+03  0.00000000000E+00 0.  1.
<mgrwt>
<rscale>  0 0.22437545E+04</rscale>
<asrwt>0</asrwt>
<pdfrwt beam="1">  1        1 0.21331059E+00 0.22437545E+04</pdfrwt>
<pdfrwt beam="2">  1       -1 0.13965341E+00 0.22437545E+04</pdfrwt>
<totfact> 0.30092058E+00</totfact>
</mgrwt>
</event>
<event>
12    1  0.1442183E-007  0.1754304E+04  0.7818608E-02  0.8730985E-01
          2   -1    0    0  501    0  0.00000000000E+00  0.00000000000E+00  0.83681925935E+03  0.83681925935E+03  0.00000000000E+00 0. -1.
         -2   -1    0    0    0  501 -0.00000000000E+00 -0.00000000000E+00 -0.91942867188E+03  0.91942867188E+03  0.00000000000E+00 0.  1.
         23    2    1    2    0    0 -0.34269507409E+03 -0.32783214662E+03 -0.46584917483E+03  0.66875011331E+03  0.72783447351E+02 0.  0.
        254    2    1    2    0    0  0.34269507409E+03  0.32783214662E+03  0.38323976229E+03  0.10874978179E+04  0.90048040423E+03 0.  0.
        -24    2    4    4    0    0  0.20194295285E+03 -0.23525364158E+03 -0.92768724686E+02  0.33262312954E+03  0.76856216005E+02 0.  0.
         24    2    4    4    0    0  0.14075212124E+03  0.56308578820E+03  0.47600848698E+03  0.75487468838E+03  0.79843290116E+02 0.  0.
         13    1    3    3    0    0 -0.29835681886E+02 -0.29553514042E+02 -0.75143398960E+02  0.86081987158E+02  0.00000000000E+00 0.  1.
        -13    1    3    3    0    0 -0.31285939220E+03 -0.29827863257E+03 -0.39070577587E+03  0.58266812615E+03  0.00000000000E+00 0. -1.
          4    1    6    6  502    0  0.26585401127E+02  0.21611500981E+03  0.21442721436E+03  0.30560024751E+03  0.00000000000E+00 0. -1.
          3    1    5    5  503    0  0.36614120916E+02 -0.73527799305E+02  0.32560717893E+01  0.82204215979E+02  0.00000000000E+00 0. -1.
         -4    1    5    5    0  503  0.16532883194E+03 -0.16172584228E+03 -0.96024796475E+02  0.25041891356E+03  0.00000000000E+00 0.  1.
         -1    1    6    6    0  502  0.11416672011E+03  0.34697077838E+03  0.26158127262E+03  0.44927444087E+03  0.00000000000E+00 0.  1.
<mgrwt>
<rscale>  0 0.17543040E+04</rscale>
<asrwt>0</asrwt>
<pdfrwt beam="1">  1        2 0.12874143E+00 0.17543040E+04</pdfrwt>
<pdfrwt beam="2">  1       -2 0.14145056E+00 0.17543040E+04</pdfrwt>
<totfact> 0.10738240E+01</totfact>
</mgrwt>
</event>
<event>
12    1  0.1442183E-007  0.2326150E+04  0.7818608E-02  0.8467681E-01
         -1   -1    0    0    0  501 -0.00000000000E+00  0.00000000000E+00  0.11543796489E+04  0.11543796489E+04  0.00000000000E+00 0.  1.
          1   -1    0    0  501    0  0.00000000000E+00 -0.00000000000E+00 -0.11718361576E+04  0.11718361576E+04  0.00000000000E+00 0. -1.
         23    2    1    2    0    0 -0.51607798475E+03  0.43733221553E+03  0.71213429566E+03  0.98605178437E+03  0.86988006696E+02 0.  0.
        254    2    1    2    0    0  0.51607798475E+03 -0.43733221553E+03 -0.72959080438E+03  0.13401640221E+04  0.89785350203E+03 0.  0.
        -24    2    4    4    0    0  0.49017627312E+02  0.23397905325E+03 -0.17562123043E+02  0.25297883567E+03  0.80876065603E+02 0.  0.
         24    2    4    4    0    0  0.46706035743E+03 -0.67131126878E+03 -0.71202868134E+03  0.10871851864E+04  0.78629443450E+02 0.  0.
         11    1    3    3    0    0 -0.31824752724E+03  0.30412036438E+03  0.50736596559E+03  0.67170745691E+03  0.00000000000E+00 0.  1.
        -11    1    3    3    0    0 -0.19783045751E+03  0.13321185115E+03  0.20476833007E+03  0.31434432746E+03  0.00000000000E+00 0. -1.
          2    1    6    6  502    0  0.23972686732E+03 -0.41170158599E+03 -0.42080472501E+03  0.63564438439E+03  0.00000000000E+00 0. -1.
          3    1    5    5  503    0  0.62874345350E+02  0.12193025204E+03 -0.26502216627E+02  0.13972307309E+03  0.00000000000E+00 0. -1.
         -4    1    5    5    0  503 -0.13856718038E+02  0.11204880120E+03  0.89400935830E+01  0.11325576259E+03  0.00000000000E+00 0.  1.
         -1    1    6    6    0  502  0.22733349012E+03 -0.25960968279E+03 -0.29122395633E+03  0.45154080199E+03  0.00000000000E+00 0.  1.
<mgrwt>
<rscale>  0 0.23261503E+04</rscale>
<asrwt>0</asrwt>
<pdfrwt beam="1">  1        1 0.18028249E+00 0.23261503E+04</pdfrwt>
<pdfrwt beam="2">  1       -1 0.17759687E+00 0.23261503E+04</pdfrwt>
<totfact> 0.21891978E+00</totfact>
</mgrwt>
</event>
<event>
12    1  0.1442183E-007  0.1522622E+04  0.7818608E-02  0.8869547E-01
          2   -1    0    0  501    0  0.00000000000E+00  0.00000000000E+00  0.37844018088E+04  0.37844018088E+04  0.00000000000E+00 0. -1.
         -2   -1    0    0    0  501 -0.00000000000E+00 -0.00000000000E+00 -0.15315349542E+03  0.15315349542E+03  0.00000000000E+00 0.  1.
         23    2    1    2    0    0 -0.38510194422E+03 -0.14370079221E+03  0.48850726011E+03  0.64342646658E+03  0.80030304211E+02 0.  0.
        254    2    1    2    0    0  0.38510194422E+03  0.14370079221E+03  0.31427410533E+04  0.32941288376E+04  0.89750211474E+03 0.  0.
        -24    2    4    4    0    0  0.10204640413E+03  0.92745479899E+02  0.22104296949E+02  0.15913144765E+03  0.76282534370E+02 0.  0.
         24    2    4    4    0    0  0.28305554009E+03  0.50955312309E+02  0.31206367563E+04  0.31349973900E+04  0.84368167860E+02 0.  0.
         11    1    3    3    0    0 -0.13629576656E+03 -0.11381179156E+02  0.15073134909E+03  0.20353379773E+03  0.00000000000E+00 0. -1.
        -11    1    3    3    0    0 -0.24880617767E+03 -0.13231961305E+03  0.33777591103E+03  0.43989266886E+03  0.00000000000E+00 0.  1.
          4    1    6    6  502    0  0.54907188739E+02  0.45299410243E+02  0.80580618777E+03  0.80894403279E+03  0.00000000000E+00 0. -1.
          3    1    5    5  503    0  0.29141592657E+02  0.63557606932E+02  0.37144013832E+02  0.79173730398E+02  0.00000000000E+00 0. -1.
         -4    1    5    5    0  503  0.72904811471E+02  0.29187872967E+02 -0.15039716884E+02  0.79957717251E+02  0.00000000000E+00 0.  1.
         -3    1    6    6    0  502  0.22814835136E+03  0.56559020652E+01  0.23148305686E+04  0.23260533572E+04  0.00000000000E+00 0.  1.
<mgrwt>
<rscale>  0 0.15226219E+04</rscale>
<asrwt>0</asrwt>
<pdfrwt beam="1">  1        2 0.58221559E+00 0.15226219E+04</pdfrwt>
<pdfrwt beam="2">  1       -2 0.23562079E-01 0.15226219E+04</pdfrwt>
<totfact> 0.79186407E+00</totfact>
</mgrwt>
</event>
<event>
12    1  0.1442183E-007  0.2624462E+04  0.7818608E-02  0.8359939E-01
         -2   -1    0    0    0  501 -0.00000000000E+00  0.00000000000E+00  0.10283314581E+04  0.10283314581E+04  0.00000000000E+00 0.  1.
          2   -1    0    0  501    0  0.00000000000E+00 -0.00000000000E+00 -0.16745085249E+04  0.16745085249E+04  0.00000000000E+00 0. -1.
         23    2    1    2    0    0  0.55550308440E+03  0.89229492423E+03 -0.78646535486E+03  0.13159433379E+04  0.91679907939E+02 0.  0.
        254    2    1    2    0    0 -0.55550308440E+03 -0.89229492423E+03  0.14028828806E+03  0.13868966452E+04  0.89388343319E+03 0.  0.
        -24    2    4    4    0    0 -0.35707996817E+03 -0.10405925502E+04  0.19276602551E+03  0.11196784584E+04  0.78626652348E+02 0.  0.
         24    2    4    4    0    0 -0.19842311623E+03  0.14829762598E+03 -0.52477737452E+02  0.26721818678E+03  0.85368187820E+02 0.  0.
         13    1    3    3    0    0  0.52492108167E+03  0.85049265001E+03 -0.72048903957E+03  0.12320650737E+04  0.00000000000E+00 0. -1.
        -13    1    3    3    0    0  0.30582002726E+02  0.41802274224E+02 -0.65976315297E+02  0.83878264176E+02  0.00000000000E+00 0.  1.
          4    1    6    6  502    0 -0.17807688476E+03  0.15825967059E+03 -0.40715480109E+02  0.24169247100E+03  0.00000000000E+00 0. -1.
          1    1    5    5  503    0 -0.19466600181E+03 -0.63243604409E+03  0.83119255808E+02  0.66691754574E+03  0.00000000000E+00 0. -1.
         -2    1    5    5    0  503 -0.16241396636E+03 -0.40815650612E+03  0.10964676970E+03  0.45276091269E+03  0.00000000000E+00 0.  1.
         -3    1    6    6    0  502 -0.20346231470E+02 -0.99620446107E+01 -0.11762257343E+02  0.25525715772E+02  0.00000000000E+00 0.  1.
<mgrwt>
<rscale>  0 0.26244617E+04</rscale>
<asrwt>0</asrwt>
<pdfrwt beam="1">  1        2 0.25761669E+00 0.26244617E+04</pdfrwt>
<pdfrwt beam="2">  1       -2 0.15820484E+00 0.26244617E+04</pdfrwt>
<totfact> 0.23237989E+00</totfact>
</mgrwt>
</event>
<event>
12    1  0.1442183E-007  0.1518790E+04  0.7818608E-02  0.8872053E-01
          2   -1    0    0  501    0  0.00000000000E+00  0.00000000000E+00  0.11492112083E+04  0.11492112083E+04  0.00000000000E+00 0. -1.
         -2   -1    0    0    0  501 -0.00000000000E+00 -0.00000000000E+00 -0.50180591341E+03  0.50180591341E+03  0.00000000000E+00 0.  1.
         23    2    1    2    0    0  0.11452273342E+01 -0.22642154712E+03 -0.16691779962E+03  0.29628047821E+03  0.93019037816E+02 0.  0.
        254    2    1    2    0    0 -0.11452273342E+01  0.22642154712E+03  0.81432309450E+03  0.13547366435E+04  0.10587356811E+04 0.  0.
        -24    2    4    4    0    0 -0.12754226430E+03  0.62400283825E+03  0.59499305841E+03  0.87529315113E+03  0.80466076978E+02 0.  0.
         24    2    4    4    0    0  0.12639703697E+03 -0.39758129113E+03  0.21933003610E+03  0.47944349236E+03  0.87825415555E+02 0.  0.
         13    1    3    3    0    0  0.46548724576E+02 -0.96161700210E+02 -0.71902704234E+02  0.12877831814E+03  0.00000000000E+00 0. -1.
        -13    1    3    3    0    0 -0.45403497242E+02 -0.13025984691E+03 -0.95015095381E+02  0.16750216007E+03  0.00000000000E+00 0.  1.
          4    1    6    6  502    0  0.25220359468E+02 -0.78107986957E+02  0.62310684771E+01  0.82314946228E+02  0.00000000000E+00 0. -1.
          1    1    5    5  503    0 -0.28020161806E+02  0.13116316767E+03  0.17287664147E+03  0.21880411145E+03  0.00000000000E+00 0. -1.
         -2    1    5    5    0  503 -0.99522102497E+02  0.49283967057E+03  0.42211641694E+03  0.65648903969E+03  0.00000000000E+00 0.  1.
         -1    1    6    6    0  502  0.10117667750E+03 -0.31947330417E+03  0.21309896762E+03  0.39712854613E+03  0.00000000000E+00 0.  1.
<mgrwt>
<rscale>  0 0.15187903E+04</rscale>
<asrwt>0</asrwt>
<pdfrwt beam="1">  1        2 0.17680172E+00 0.15187903E+04</pdfrwt>
<pdfrwt beam="2">  1       -2 0.77200910E-01 0.15187903E+04</pdfrwt>
<totfact> 0.29365054E+01</totfact>
</mgrwt>
</event>
<event>
12    1  0.1442183E-007  0.1729733E+04  0.7818608E-02  0.8744586E-01
          1   -1    0    0  501    0  0.00000000000E+00  0.00000000000E+00  0.15632691774E+04  0.15632691774E+04  0.00000000000E+00 0. -1.
         -1   -1    0    0    0  501 -0.00000000000E+00 -0.00000000000E+00 -0.47848050621E+03  0.47848050621E+03  0.00000000000E+00 0.  1.
         23    2    1    2    0    0  0.47849815717E+03 -0.41024463161E+03  0.49941685656E+03  0.81010174446E+03  0.97910650979E+02 0.  0.
        254    2    1    2    0    0 -0.47849815717E+03  0.41024463161E+03  0.58537181465E+03  0.12316479392E+04  0.88149608083E+03 0.  0.
        -24    2    4    4    0    0 -0.14492723836E+03  0.56048233250E+03  0.60930345527E+02  0.58751607327E+03  0.79487608344E+02 0.  0.
         24    2    4    4    0    0 -0.33357091882E+03 -0.15023770089E+03  0.52444146912E+03  0.64413186590E+03  0.77627839649E+02 0.  0.
         11    1    3    3    0    0  0.40040929386E+03 -0.30331635571E+03  0.42639717408E+03  0.65889526050E+03  0.00000000000E+00 0. -1.
        -11    1    3    3    0    0  0.78088863308E+02 -0.10692827590E+03  0.73019682484E+02  0.15120648395E+03  0.00000000000E+00 0.  1.
          4    1    6    6  502    0 -0.14607769959E+03 -0.44477942057E+02  0.27582310065E+03  0.31527030386E+03  0.00000000000E+00 0. -1.
          1    1    5    5  503    0  0.20069323697E+01  0.10032811668E+03  0.23237779442E+02  0.10300365608E+03  0.00000000000E+00 0. -1.
         -2    1    5    5    0  503 -0.14693417072E+03  0.46015421583E+03  0.37692566084E+02  0.48451241719E+03  0.00000000000E+00 0.  1.
         -3    1    6    6    0  502 -0.18749321923E+03 -0.10575975884E+03  0.24861836847E+03  0.32886156204E+03  0.00000000000E+00 0.  1.
<mgrwt>
<rscale>  0 0.17297327E+04</rscale>
<asrwt>0</asrwt>
<pdfrwt beam="1">  1        1 0.24050295E+00 0.17297327E+04</pdfrwt>
<pdfrwt beam="2">  1       -1 0.73612386E-01 0.17297327E+04</pdfrwt>
<totfact> 0.10436988E+01</totfact>
</mgrwt>
</event>
<event>
12    1  0.1442183E-007  0.1996316E+04  0.7818608E-02  0.8608345E-01
         -2   -1    0    0    0  501 -0.00000000000E+00  0.00000000000E+00  0.50277673517E+03  0.50277673517E+03  0.00000000000E+00 0.  1.
          2   -1    0    0  501    0  0.00000000000E+00 -0.00000000000E+00 -0.19816332106E+04  0.19816332106E+04  0.00000000000E+00 0. -1.
         23    2    1    2    0    0  0.17575276390E+03  0.50766300018E+03 -0.13144078599E+04  0.14242427771E+04  0.11040249134E+03 0.  0.
        254    2    1    2    0    0 -0.17575276390E+03 -0.50766300018E+03 -0.16444861545E+03  0.10601671686E+04  0.89905523886E+03 0.  0.
        -24    2    4    4    0    0 -0.90055664174E+02 -0.50809673124E+03  0.28628591439E+03  0.59533763134E+03  0.78708065433E+02 0.  0.
         24    2    4    4    0    0 -0.85697099726E+02  0.43373106406E+00 -0.45073452984E+03  0.46482953728E+03  0.74570110023E+02 0.  0.
         11    1    3    3    0    0  0.18926539714E+03  0.45151437666E+03 -0.12016678265E+04  0.12975716505E+04  0.00000000000E+00 0. -1.
        -11    1    3    3    0    0 -0.13512633241E+02  0.56148623514E+02 -0.11274003342E+03  0.12667112660E+03  0.00000000000E+00 0.  1.
          2    1    6    6  502    0 -0.77406073689E+02  0.15589725814E+02 -0.22533480354E+03  0.23876874478E+03  0.00000000000E+00 0. -1.
          1    1    5    5  503    0  0.93720779807E+01 -0.93380759786E+01  0.98271871614E+01  0.16480567835E+02  0.00000000000E+00 0. -1.
         -2    1    5    5    0  503 -0.99427742154E+02 -0.49875865526E+03  0.27645872723E+03  0.57885706351E+03  0.00000000000E+00 0.  1.
         -1    1    6    6    0  502 -0.82910260374E+01 -0.15155994750E+02 -0.22539972630E+03  0.22606079250E+03  0.00000000000E+00 0.  1.
<mgrwt>
<rscale>  0 0.19963157E+04</rscale>
<asrwt>0</asrwt>
<pdfrwt beam="1">  1        2 0.30486665E+00 0.19963157E+04</pdfrwt>
<pdfrwt beam="2">  1       -2 0.77350266E-01 0.19963157E+04</pdfrwt>
<totfact> 0.94759294E+00</totfact>
</mgrwt>
</event>
<event>
12    1  0.1442183E-007  0.4115363E+04  0.7818608E-02  0.7981670E-01
          1   -1    0    0  501    0  0.00000000000E+00  0.00000000000E+00  0.38697786510E+04  0.38697786510E+04  0.00000000000E+00 0. -1.
         -1   -1    0    0    0  501 -0.00000000000E+00 -0.00000000000E+00 -0.10941330989E+04  0.10941330989E+04  0.00000000000E+00 0.  1.
         23    2    1    2    0    0  0.18123622469E+04 -0.31104410927E+03  0.50339610885E+03  0.19086686989E+04  0.90571563032E+02 0.  0.
        254    2    1    2    0    0 -0.18123622469E+04  0.31104410927E+03  0.22722494433E+04  0.30552430509E+04  0.88881225010E+03 0.  0.
        -24    2    4    4    0    0 -0.81693116774E+03  0.51597228140E+03  0.14556428653E+04  0.17489637902E+04  0.79838965177E+02 0.  0.
         24    2    4    4    0    0 -0.99543107913E+03 -0.20492817213E+03  0.81660657801E+03  0.13062792607E+04  0.81489966379E+02 0.  0.
         13    1    3    3    0    0  0.15554641728E+04 -0.25068359094E+03  0.40242163589E+03  0.16261163023E+04  0.00000000000E+00 0.  1.
        -13    1    3    3    0    0  0.25689807406E+03 -0.60360518332E+02  0.10097447296E+03  0.28255239659E+03  0.00000000000E+00 0. -1.
          4    1    6    6  502    0 -0.78380718560E+03 -0.12690206849E+03  0.63433871582E+03  0.10162890561E+04  0.00000000000E+00 0. -1.
          1    1    5    5  503    0 -0.35193125632E+03  0.23476028275E+03  0.70661456524E+03  0.82357279176E+03  0.00000000000E+00 0. -1.
         -2    1    5    5    0  503 -0.46499991142E+03  0.28121199865E+03  0.74902830002E+03  0.92539099846E+03  0.00000000000E+00 0.  1.
         -3    1    6    6    0  502 -0.21162389353E+03 -0.78026103637E+02  0.18226786219E+03  0.28999020458E+03  0.00000000000E+00 0.  1.
<mgrwt>
<rscale>  0 0.41153629E+04</rscale>
<asrwt>0</asrwt>
<pdfrwt beam="1">  1        1 0.59535056E+00 0.41153629E+04</pdfrwt>
<pdfrwt beam="2">  1       -1 0.16832817E+00 0.41153629E+04</pdfrwt>
<totfact> 0.24351271E-02</totfact>
</mgrwt>
</event>
<event>
12    1  0.1442183E-007  0.1182743E+04  0.7818608E-02  0.9128097E-01
          1   -1    0    0  501    0  0.00000000000E+00  0.00000000000E+00  0.48776935087E+03  0.48776935087E+03  0.00000000000E+00 0. -1.
         -1   -1    0    0    0  501 -0.00000000000E+00 -0.00000000000E+00 -0.71697847815E+03  0.71697847815E+03  0.00000000000E+00 0.  1.
         23    2    1    2    0    0 -0.16906145773E+03 -0.93828595228E+02 -0.20086787725E+03  0.29330844362E+03  0.91084341238E+02 0.  0.
        254    2    1    2    0    0  0.16906145773E+03  0.93828595228E+02 -0.28341250030E+02  0.91143938540E+03  0.89024319432E+03 0.  0.
        -24    2    4    4    0    0  0.24657177118E+02  0.40720991089E+03  0.22815546251E+03  0.47397342212E+03  0.78536627697E+02 0.  0.
         24    2    4    4    0    0  0.14440428061E+03 -0.31338131566E+03 -0.25649671254E+03  0.43746596328E+03  0.80780320709E+02 0.  0.
         11    1    3    3    0    0 -0.15692409389E+03 -0.57540529159E+02 -0.19097459580E+03  0.25378609099E+03  0.00000000000E+00 0.  1.
        -11    1    3    3    0    0 -0.12137363838E+02 -0.36288066069E+02 -0.98932814518E+01  0.39522352635E+02  0.00000000000E+00 0. -1.
          4    1    6    6  502    0  0.14971514049E+03 -0.25685773831E+03 -0.22186305586E+03  0.37096325502E+03  0.00000000000E+00 0. -1.
          3    1    5    5  503    0  0.23990929921E+02  0.23251287775E+03  0.17290251173E+03  0.29074573359E+03  0.00000000000E+00 0. -1.
         -4    1    5    5    0  503  0.66624719691E+00  0.17469703314E+03  0.55252950781E+02  0.18322768853E+03  0.00000000000E+00 0.  1.
         -3    1    6    6    0  502 -0.53108598829E+01 -0.56523577357E+02 -0.34633656687E+02  0.66502708256E+02  0.00000000000E+00 0.  1.
<mgrwt>
<rscale>  0 0.11827428E+04</rscale>
<asrwt>0</asrwt>
<pdfrwt beam="1">  1        1 0.75041439E-01 0.11827428E+04</pdfrwt>
<pdfrwt beam="2">  1       -1 0.11030438E+00 0.11827428E+04</pdfrwt>
<totfact> 0.34475406E+01</totfact>
</mgrwt>
</event>
<event>
12    1  0.1442183E-007  0.1936414E+04  0.7818608E-02  0.8636940E-01
          2   -1    0    0  501    0  0.00000000000E+00  0.00000000000E+00  0.14955723925E+04  0.14955723925E+04  0.00000000000E+00 0. -1.
         -2   -1    0    0    0  501 -0.00000000000E+00 -0.00000000000E+00 -0.62680001631E+03  0.62680001631E+03  0.00000000000E+00 0.  1.
         23    2    1    2    0    0  0.45844621582E+03 -0.24750332308E+03  0.83837162929E+03  0.99143965625E+03  0.93031045605E+02 0.  0.
        254    2    1    2    0    0 -0.45844621582E+03  0.24750332308E+03  0.30400746890E+02  0.11309327526E+04  0.10033214129E+04 0.  0.
        -24    2    4    4    0    0 -0.19364911480E+03 -0.12241835946E+03  0.44679094486E+03  0.50891894177E+03  0.83006665315E+02 0.  0.
         24    2    4    4    0    0 -0.26479710102E+03  0.36992168254E+03 -0.41639019797E+03  0.62201381079E+03  0.80998937842E+02 0.  0.
         13    1    3    3    0    0  0.24458371415E+03 -0.14070682813E+03  0.36715730824E+03  0.46305949262E+03  0.00000000000E+00 0. -1.
        -13    1    3    3    0    0  0.21386250168E+03 -0.10679649495E+03  0.47121432105E+03  0.52838016363E+03  0.00000000000E+00 0.  1.
          2    1    6    6  502    0 -0.82660851967E+02  0.12332447251E+03 -0.87192890834E+02  0.17217532396E+03  0.00000000000E+00 0. -1.
          3    1    5    5  503    0  0.61696986822E+01 -0.76296417945E+01  0.59347746134E+01  0.11467264951E+02  0.00000000000E+00 0. -1.
         -4    1    5    5    0  503 -0.19981881348E+03 -0.11478871766E+03  0.44085617024E+03  0.49745167682E+03  0.00000000000E+00 0.  1.
         -1    1    6    6    0  502 -0.18213624905E+03  0.24659721002E+03 -0.32919730713E+03  0.44983848683E+03  0.00000000000E+00 0.  1.
<mgrwt>
<rscale>  0 0.19364140E+04</rscale>
<asrwt>0</asrwt>
<pdfrwt beam="1">  1        2 0.23008806E+00 0.19364140E+04</pdfrwt>
<pdfrwt beam="2">  1       -2 0.96430772E-01 0.19364140E+04</pdfrwt>
<totfact> 0.10730284E+01</totfact>
</mgrwt>
</event>
<event>
12    1  0.1442183E-007  0.1547344E+04  0.7818608E-02  0.8853566E-01
          2   -1    0    0  501    0  0.00000000000E+00  0.00000000000E+00  0.24078898787E+04  0.24078898787E+04  0.00000000000E+00 0. -1.
         -2   -1    0    0    0  501 -0.00000000000E+00 -0.00000000000E+00 -0.24858618165E+03  0.24858618165E+03  0.00000000000E+00 0.  1.
         23    2    1    2    0    0  0.46578264507E+03 -0.78237115968E+02  0.42565081563E+03  0.64205912628E+03  0.89368820243E+02 0.  0.
        254    2    1    2    0    0 -0.46578264507E+03  0.78237115968E+02  0.17336528814E+04  0.20144169340E+04  0.91063096380E+03 0.  0.
        -24    2    4    4    0    0 -0.24729492698E+03  0.29022816093E+03  0.18181300342E+03  0.43092189975E+03  0.85150156593E+02 0.  0.
         24    2    4    4    0    0 -0.21848771809E+03 -0.21199104496E+03  0.15518398780E+04  0.15834950343E+04  0.81070528872E+02 0.  0.
         13    1    3    3    0    0  0.68003891036E+02 -0.18669462120E+02  0.11049169644E+03  0.13107819420E+03  0.00000000000E+00 0. -1.
        -13    1    3    3    0    0  0.39777875403E+03 -0.59567653848E+02  0.31515911919E+03  0.51098093208E+03  0.00000000000E+00 0.  1.
          2    1    6    6  502    0 -0.98669072378E+02 -0.46992638636E+02  0.62564754074E+03  0.63512104292E+03  0.00000000000E+00 0. -1.
          1    1    5    5  503    0 -0.24632424848E+03  0.26961965508E+03  0.18605037057E+03  0.40985989580E+03  0.00000000000E+00 0. -1.
         -2    1    5    5    0  503 -0.97067850056E+00  0.20608505853E+02 -0.42373671534E+01  0.21062003956E+02  0.00000000000E+00 0.  1.
         -1    1    6    6    0  502 -0.11981864571E+03 -0.16499840633E+03  0.92619233723E+03  0.94837399136E+03  0.00000000000E+00 0.  1.
<mgrwt>
<rscale>  0 0.15473437E+04</rscale>
<asrwt>0</asrwt>
<pdfrwt beam="1">  1        2 0.37044458E+00 0.15473437E+04</pdfrwt>
<pdfrwt beam="2">  1       -2 0.38244030E-01 0.15473437E+04</pdfrwt>
<totfact> 0.24501103E+01</totfact>
</mgrwt>
</event>
<event>
12    1  0.1442183E-007  0.1287442E+04  0.7818608E-02  0.9039583E-01
         -2   -1    0    0    0  501 -0.00000000000E+00  0.00000000000E+00  0.42814140037E+03  0.42814140037E+03  0.00000000000E+00 0. -1.
          2   -1    0    0  501    0  0.00000000000E+00 -0.00000000000E+00 -0.96785085848E+03  0.96785085848E+03  0.00000000000E+00 0.  1.
         23    2    1    2    0    0  0.18874023217E+03  0.13086024915E+03  0.10636017448E+03  0.26226364664E+03  0.68720110500E+02 0.  0.
        254    2    1    2    0    0 -0.18874023217E+03 -0.13086024915E+03 -0.64606963258E+03  0.11337286122E+04  0.90287724300E+03 0.  0.
        -24    2    4    4    0    0  0.17359003540E+03 -0.27329990210E+03 -0.65683140957E+03  0.73642402335E+03  0.77887769903E+02 0.  0.
         24    2    4    4    0    0 -0.36233026757E+03  0.14243965294E+03  0.10761776985E+02  0.39730458885E+03  0.78503776686E+02 0.  0.
         13    1    3    3    0    0  0.17035160534E+03  0.12787293999E+03  0.75068320111E+02  0.22584598935E+03  0.00000000000E+00 0. -1.
        -13    1    3    3    0    0  0.18388626836E+02  0.29873091628E+01  0.31291854364E+02  0.36417657290E+02  0.00000000000E+00 0.  1.
          4    1    6    6  502    0 -0.10347981634E+03  0.43127125001E+01  0.82181335199E+01  0.10389518563E+03  0.00000000000E+00 0. -1.
          3    1    5    5  503    0  0.68714255345E+02 -0.10402842889E+03 -0.17322087769E+03  0.21342219981E+03  0.00000000000E+00 0. -1.
         -4    1    5    5    0  503  0.10487578005E+03 -0.16927147321E+03 -0.48361053188E+03  0.52300182354E+03  0.00000000000E+00 0.  1.
         -3    1    6    6    0  502 -0.25885045123E+03  0.13812694044E+03  0.25436434646E+01  0.29340940322E+03  0.00000000000E+00 0.  1.
<mgrwt>
<rscale>  0 0.12874425E+04</rscale>
<asrwt>0</asrwt>
<pdfrwt beam="1">  1        2 0.14890013E+00 0.12874425E+04</pdfrwt>
<pdfrwt beam="2">  1       -2 0.65867908E-01 0.12874425E+04</pdfrwt>
<totfact> 0.55016865E+01</totfact>
</mgrwt>
</event>
<event>
12    1  0.1442183E-007  0.1464776E+04  0.7818608E-02  0.8908221E-01
         -2   -1    0    0    0  501 -0.00000000000E+00  0.00000000000E+00  0.25504172064E+03  0.25504172064E+03  0.00000000000E+00 0.  1.
          2   -1    0    0  501    0  0.00000000000E+00 -0.00000000000E+00 -0.21031532662E+04  0.21031532662E+04  0.00000000000E+00 0. -1.
         23    2    1    2    0    0  0.25987978850E+03 -0.34546530781E+03 -0.78638515573E+03  0.90217026197E+03  0.92875104696E+02 0.  0.
        254    2    1    2    0    0 -0.25987978850E+03  0.34546530781E+03 -0.10617263898E+04  0.14560247248E+04  0.89769777162E+03 0.  0.
        -24    2    4    4    0    0 -0.22799720604E+03  0.18306194400E+03  0.68549805319E+02  0.31095571181E+03  0.80622438536E+02 0.  0.
         24    2    4    4    0    0 -0.31882582460E+02  0.16240336381E+03 -0.11302761951E+04  0.11450690130E+04  0.79167011335E+02 0.  0.
         13    1    3    3    0    0  0.19187722517E+03 -0.30355783073E+03 -0.68152922540E+03  0.77035466586E+03  0.00000000000E+00 0. -1.
        -13    1    3    3    0    0  0.68002563328E+02 -0.41907477078E+02 -0.10485593033E+03  0.13181559612E+03  0.00000000000E+00 0.  1.
          2    1    6    6  502    0 -0.34157668963E+02  0.11792499842E+03 -0.99739882047E+03  0.10049265937E+04  0.00000000000E+00 0. -1.
          3    1    5    5  503    0 -0.11912478267E+03  0.14171658718E+03  0.58067603186E+02  0.19402616181E+03  0.00000000000E+00 0. -1.
         -4    1    5    5    0  503 -0.10887242337E+03  0.41345356820E+02  0.10482202133E+02  0.11692955000E+03  0.00000000000E+00 0.  1.
         -1    1    6    6    0  502  0.22750865033E+01  0.44478365386E+02 -0.13287737467E+03  0.14014241936E+03  0.00000000000E+00 0.  1.
<mgrwt>
<rscale>  0 0.14647755E+04</rscale>
<asrwt>0</asrwt>
<pdfrwt beam="1">  1        2 0.32356204E+00 0.14647755E+04</pdfrwt>
<pdfrwt beam="2">  1       -2 0.39237187E-01 0.14647755E+04</pdfrwt>
<totfact> 0.34844155E+01</totfact>
</mgrwt>
</event>
<event>
12    1  0.1442183E-007  0.1815306E+04  0.7818608E-02  0.8698202E-01
         -1   -1    0    0    0  501 -0.00000000000E+00  0.00000000000E+00  0.43518868543E+03  0.43518868543E+03  0.00000000000E+00 0.  1.
          1   -1    0    0  501    0  0.00000000000E+00 -0.00000000000E+00 -0.18930493759E+04  0.18930493759E+04  0.00000000000E+00 0. -1.
         23    2    1    2    0    0  0.59870996185E+03  0.26800671996E+02 -0.82598518191E+03  0.10244552088E+04  0.89916960274E+02 0.  0.
        254    2    1    2    0    0 -0.59870996185E+03 -0.26800671996E+02 -0.63187550858E+03  0.13037828525E+04  0.97026345583E+03 0.  0.
        -24    2    4    4    0    0 -0.14266557864E+02 -0.28581368633E+03 -0.58716703869E+03  0.65797403328E+03  0.79194060200E+02 0.  0.
         24    2    4    4    0    0 -0.58444340398E+03  0.25901301433E+03 -0.44708469882E+02  0.64580881923E+03  0.80052168409E+02 0.  0.
         13    1    3    3    0    0  0.10124142271E+03 -0.19038652819E+02 -0.18539333158E+03  0.21209192198E+03  0.00000000000E+00 0. -1.
        -13    1    3    3    0    0  0.49746853913E+03  0.45839324815E+02 -0.64059185033E+03  0.81236328686E+03  0.00000000000E+00 0.  1.
          2    1    6    6  502    0 -0.50330060328E+03  0.20115186076E+03 -0.16608228397E+02  0.54226322169E+03  0.00000000000E+00 0. -1.
          1    1    5    5  503    0 -0.10156356643E+02 -0.26757855951E+03 -0.57829964966E+03  0.63728480438E+03  0.00000000000E+00 0. -1.
         -2    1    5    5    0  503 -0.41102012214E+01 -0.18235126822E+02 -0.88673890320E+01  0.20689228901E+02  0.00000000000E+00 0.  1.
         -1    1    6    6    0  502 -0.81142800702E+02  0.57861153570E+02 -0.28100241485E+02  0.10354559754E+03  0.00000000000E+00 0.  1.
<mgrwt>
<rscale>  0 0.18153057E+04</rscale>
<asrwt>0</asrwt>
<pdfrwt beam="1">  1        1 0.29123837E+00 0.18153057E+04</pdfrwt>
<pdfrwt beam="2">  1       -1 0.66952105E-01 0.18153057E+04</pdfrwt>
<totfact> 0.75013282E+00</totfact>
</mgrwt>
</event>
<event>
12    1  0.1442183E-007  0.1280097E+04  0.7818608E-02  0.9045499E-01
          1   -1    0    0  501    0  0.00000000000E+00  0.00000000000E+00  0.15838778324E+04  0.15838778324E+04  0.00000000000E+00 0. -1.
         -1   -1    0    0    0  501 -0.00000000000E+00 -0.00000000000E+00 -0.25864515141E+03  0.25864515141E+03  0.00000000000E+00 0.  1.
         23    2    1    2    0    0  0.28862655840E+03 -0.17666118653E+03  0.15557218922E+03  0.38390235878E+03  0.93079804353E+02 0.  0.
        254    2    1    2    0    0 -0.28862655840E+03  0.17666118653E+03  0.11696604918E+04  0.14586206250E+04  0.80309027931E+03 0.  0.
        -24    2    4    4    0    0 -0.36856493516E+03 -0.38953133621E+02  0.11538076470E+04  0.12147634548E+04  0.83789657608E+02 0.  0.
         24    2    4    4    0    0  0.79938376756E+02  0.21561432015E+03  0.15852844791E+02  0.24385717028E+03  0.79594771667E+02 0.  0.
         13    1    3    3    0    0  0.27522174685E+03 -0.16211445871E+03  0.11630439458E+03  0.33993355213E+03  0.00000000000E+00 0.  1.
        -13    1    3    3    0    0  0.13404811550E+02 -0.14546727820E+02  0.39267794635E+02  0.43968806653E+02  0.00000000000E+00 0. -1.
          2    1    6    6  502    0  0.56657088131E+02  0.15936880713E+03  0.46901647143E+02  0.17552266755E+03  0.00000000000E+00 0. -1.
          1    1    5    5  503    0 -0.26359714718E+03 -0.19522172299E+02  0.92946182107E+03  0.96631456992E+03  0.00000000000E+00 0. -1.
         -2    1    5    5    0  503 -0.10496778798E+03 -0.19430961322E+02  0.22434582592E+03  0.24844888484E+03  0.00000000000E+00 0.  1.
         -1    1    6    6    0  502  0.23281288626E+02  0.56245513027E+02 -0.31048802352E+02  0.68334502729E+02  0.00000000000E+00 0.  1.
<mgrwt>
<rscale>  0 0.12800974E+04</rscale>
<asrwt>0</asrwt>
<pdfrwt beam="1">  1        1 0.24367351E+00 0.12800974E+04</pdfrwt>
<pdfrwt beam="2">  1       -1 0.39791563E-01 0.12800974E+04</pdfrwt>
<totfact> 0.34636846E+01</totfact>
</mgrwt>
</event>
<event>
12    1  0.1442183E-007  0.1438141E+04  0.7818608E-02  0.8926664E-01
          2   -1    0    0  501    0  0.00000000000E+00  0.00000000000E+00  0.20166596668E+04  0.20166596668E+04  0.00000000000E+00 0. -1.
         -2   -1    0    0    0  501 -0.00000000000E+00 -0.00000000000E+00 -0.25639551129E+03  0.25639551129E+03  0.00000000000E+00 0.  1.
         23    2    1    2    0    0  0.19006788501E+03 -0.35876110577E+03  0.35841688979E+03  0.54937808629E+03  0.92294544188E+02 0.  0.
        254    2    1    2    0    0 -0.19006788501E+03  0.35876110577E+03  0.14018472657E+04  0.17236770918E+04  0.91708866990E+03 0.  0.
        -24    2    4    4    0    0  0.10105944663E+03 -0.26100721085E+03  0.26487804457E+03  0.39408675823E+03  0.82499810002E+02 0.  0.
         24    2    4    4    0    0 -0.29112733164E+03  0.61976831662E+03  0.11369692211E+04  0.13295903336E+04  0.79016174143E+02 0.  0.
         11    1    3    3    0    0  0.14947245612E+03 -0.24163155027E+03  0.19650343353E+03  0.34545827623E+03  0.00000000000E+00 0.  1.
        -11    1    3    3    0    0  0.40595428885E+02 -0.11712955550E+03  0.16191345627E+03  0.20391981007E+03  0.00000000000E+00 0. -1.
          2    1    6    6  502    0 -0.19464721418E+03  0.45766046658E+03  0.87997953507E+03  0.10107940556E+04  0.00000000000E+00 0. -1.
          1    1    5    5  503    0  0.46181511271E+02 -0.14947954926E+03  0.19985403453E+03  0.25380800371E+03  0.00000000000E+00 0. -1.
         -2    1    5    5    0  503  0.54877935356E+02 -0.11152766159E+03  0.65024010046E+02  0.14027875452E+03  0.00000000000E+00 0.  1.
         -1    1    6    6    0  502 -0.96480117460E+02  0.16210785004E+03  0.25698968608E+03  0.31879627799E+03  0.00000000000E+00 0.  1.
<mgrwt>
<rscale>  0 0.14381411E+04</rscale>
<asrwt>0</asrwt>
<pdfrwt beam="1">  1        2 0.31025532E+00 0.14381411E+04</pdfrwt>
<pdfrwt beam="2">  1       -2 0.39445465E-01 0.14381411E+04</pdfrwt>
<totfact> 0.38605679E+01</totfact>
</mgrwt>
</event>
<event>
12    1  0.1442183E-007  0.1227942E+04  0.7818608E-02  0.9088745E-01
          1   -1    0    0  501    0  0.00000000000E+00  0.00000000000E+00  0.23630617755E+04  0.23630617755E+04  0.00000000000E+00 0. -1.
         -1   -1    0    0    0  501 -0.00000000000E+00 -0.00000000000E+00 -0.15952197908E+03  0.15952197908E+03  0.00000000000E+00 0.  1.
         23    2    1    2    0    0  0.21883916244E+03  0.15048547699E+03  0.40359534333E+03  0.49291640162E+03  0.97677633215E+02 0.  0.
        254    2    1    2    0    0 -0.21883916244E+03 -0.15048547699E+03  0.17999444531E+04  0.20296673529E+04  0.89956271131E+03 0.  0.
        -24    2    4    4    0    0 -0.41422472629E+03 -0.24123591327E+03  0.45663159741E+03  0.66684927436E+03  0.79991557302E+02 0.  0.
         24    2    4    4    0    0  0.19538556385E+03  0.90750436277E+02  0.13433128557E+04  0.13628180786E+04  0.79828108081E+02 0.  0.
         11    1    3    3    0    0 -0.73793390182E+01 -0.44739221566E+01  0.15253201508E+02  0.17525147077E+02  0.00000000000E+00 0. -1.
        -11    1    3    3    0    0  0.22621850146E+03  0.15495939915E+03  0.38834214182E+03  0.47539125455E+03  0.00000000000E+00 0.  1.
          4    1    6    6  502    0  0.13377527635E+02  0.13407684108E+01  0.28114901457E+03  0.28147029026E+03  0.00000000000E+00 0. -1.
          3    1    5    5  503    0 -0.82736340727E+02 -0.65548135283E+02  0.62330155845E+02  0.12258429118E+03  0.00000000000E+00 0. -1.
         -4    1    5    5    0  503 -0.33148838556E+03 -0.17568777798E+03  0.39430144156E+03  0.54426498318E+03  0.00000000000E+00 0.  1.
         -3    1    6    6    0  502  0.18200803621E+03  0.89409667866E+02  0.10621638411E+04  0.10813477883E+04  0.00000000000E+00 0.  1.
<mgrwt>
<rscale>  0 0.12279418E+04</rscale>
<asrwt>0</asrwt>
<pdfrwt beam="1">  1        1 0.36354794E+00 0.12279418E+04</pdfrwt>
<pdfrwt beam="2">  1       -1 0.24541845E-01 0.12279418E+04</pdfrwt>
<totfact> 0.24165533E+01</totfact>
</mgrwt>
</event>
<event>
12    1  0.1442183E-007  0.1377649E+04  0.7818608E-02  0.8970158E-01
         -1   -1    0    0    0  501 -0.00000000000E+00  0.00000000000E+00  0.22956339690E+03  0.22956339690E+03  0.00000000000E+00 0.  1.
          1   -1    0    0  501    0  0.00000000000E+00 -0.00000000000E+00 -0.20668774881E+04  0.20668774881E+04  0.00000000000E+00 0. -1.
         23    2    1    2    0    0  0.20602482510E+03  0.24691606048E+03 -0.19247389184E+03  0.38641387828E+03  0.94104818185E+02 0.  0.
        254    2    1    2    0    0 -0.20602482510E+03 -0.24691606048E+03 -0.16448401994E+04  0.19100270068E+04  0.91612778341E+03 0.  0.
        -24    2    4    4    0    0  0.16582117795E+03  0.21199454753E+01 -0.13632477420E+04  0.13758614436E+04  0.83959208994E+02 0.  0.
         24    2    4    4    0    0 -0.37184600304E+03 -0.24903600596E+03 -0.28159245743E+03  0.53416556316E+03  0.75829773474E+02 0.  0.
         13    1    3    3    0    0  0.33912464090E+01  0.23459312233E+02 -0.44509774192E+02  0.50427768950E+02  0.00000000000E+00 0. -1.
        -13    1    3    3    0    0  0.20263357869E+03  0.22345674825E+03 -0.14796411765E+03  0.33598610933E+03  0.00000000000E+00 0.  1.
          4    1    6    6  502    0 -0.34620894821E+03 -0.25130085251E+03 -0.27046222710E+03  0.50612505429E+03  0.00000000000E+00 0. -1.
          1    1    5    5  503    0  0.47952090800E+02  0.19267199461E+02 -0.20140927360E+03  0.20793345926E+03  0.00000000000E+00 0. -1.
         -2    1    5    5    0  503  0.11786908715E+03 -0.17147253985E+02 -0.11618384684E+04  0.11679279844E+04  0.00000000000E+00 0.  1.
         -1    1    6    6    0  502 -0.25637054838E+02  0.22648465556E+01 -0.11130230328E+02  0.28040508872E+02  0.00000000000E+00 0.  1.
<mgrwt>
<rscale>  0 0.13776493E+04</rscale>
<asrwt>0</asrwt>
<pdfrwt beam="1">  1        1 0.31798115E+00 0.13776493E+04</pdfrwt>
<pdfrwt beam="2">  1       -1 0.35317446E-01 0.13776493E+04</pdfrwt>
<totfact> 0.20041632E+01</totfact>
</mgrwt>
</event>
<event>
12    1  0.1442183E-007  0.2011520E+04  0.7818608E-02  0.8601253E-01
          1   -1    0    0  501    0  0.00000000000E+00  0.00000000000E+00  0.34065270753E+04  0.34065270753E+04  0.00000000000E+00 0. -1.
         -1   -1    0    0    0  501 -0.00000000000E+00 -0.00000000000E+00 -0.29694569594E+03  0.29694569594E+03  0.00000000000E+00 0.  1.
         23    2    1    2    0    0  0.55773571613E+03  0.56388666831E+03  0.12340619297E+04  0.14697575195E+04  0.90780042526E+02 0.  0.
        254    2    1    2    0    0 -0.55773571613E+03 -0.56388666831E+03  0.18755194496E+04  0.22337152517E+04  0.91808132316E+03 0.  0.
        -24    2    4    4    0    0  0.20004110273E+03 -0.35951288771E+03  0.75034031193E+03  0.85950802298E+03  0.80482909072E+02 0.  0.
         24    2    4    4    0    0 -0.75777681886E+03 -0.20437378060E+03  0.11251791377E+04  0.13742072287E+04  0.80144033563E+02 0.  0.
         13    1    3    3    0    0  0.25424612776E+03  0.30968475923E+03  0.57236279219E+03  0.69867367881E+03  0.00000000000E+00 0.  1.
        -13    1    3    3    0    0  0.30348958837E+03  0.25420190908E+03  0.66169913748E+03  0.77108384068E+03  0.00000000000E+00 0. -1.
          4    1    6    6  502    0 -0.45843121066E+03 -0.16281090387E+03  0.71019530143E+03  0.86083908572E+03  0.00000000000E+00 0. -1.
          3    1    5    5  503    0  0.20373025091E+03 -0.34725459013E+03  0.74211905254E+03  0.84429405639E+03  0.00000000000E+00 0. -1.
         -4    1    5    5    0  503 -0.36891481736E+01 -0.12258297573E+02  0.82212593877E+01  0.15213966595E+02  0.00000000000E+00 0.  1.
         -3    1    6    6    0  502 -0.29934560820E+03 -0.41562876732E+02  0.41498383629E+03  0.51336814300E+03  0.00000000000E+00 0.  1.
<mgrwt>
<rscale>  0 0.20115204E+04</rscale>
<asrwt>0</asrwt>
<pdfrwt beam="1">  1        1 0.52408106E+00 0.20115204E+04</pdfrwt>
<pdfrwt beam="2">  1       -1 0.45683956E-01 0.20115204E+04</pdfrwt>
<totfact> 0.13097276E+00</totfact>
</mgrwt>
</event>
<event>
12    1  0.1442183E-007  0.1838530E+04  0.7818608E-02  0.8686074E-01
         -2   -1    0    0    0  501 -0.00000000000E+00  0.00000000000E+00  0.34438311472E+03  0.34438311472E+03  0.00000000000E+00 0.  1.
          2   -1    0    0  501    0  0.00000000000E+00 -0.00000000000E+00 -0.24538017370E+04  0.24538017370E+04  0.00000000000E+00 0. -1.
         23    2    1    2    0    0 -0.54536283256E+03 -0.33899658561E+03 -0.40367798625E+03  0.76410882626E+03  0.92558508973E+02 0.  0.
        254    2    1    2    0    0  0.54536283256E+03  0.33899658561E+03 -0.17057406360E+04  0.20340760254E+04  0.90309183129E+03 0.  0.
        -24    2    4    4    0    0  0.51668234781E+03  0.36643033739E+03 -0.17953192024E+04  0.19055177345E+04  0.81209343500E+02 0.  0.
         24    2    4    4    0    0  0.28680484753E+02 -0.27433751775E+02  0.89578566380E+02  0.12855829090E+03  0.83233008255E+02 0.  0.
         11    1    3    3    0    0 -0.12028881190E+03 -0.64045685537E+02 -0.13130407034E+03  0.18924060609E+03  0.00000000000E+00 0.  1.
        -11    1    3    3    0    0 -0.42507402066E+03 -0.27495090008E+03 -0.27237391592E+03  0.57486822017E+03  0.00000000000E+00 0. -1.
          4    1    6    6  502    0 -0.28193159099E+02 -0.20127262148E+02  0.38185639999E+02  0.51556803660E+02  0.00000000000E+00 0. -1.
          1    1    5    5  503    0  0.45293870920E+03  0.29532370346E+03 -0.15803459225E+04  0.16702882382E+04  0.00000000000E+00 0. -1.
         -2    1    5    5    0  503  0.63743638609E+02  0.71106633928E+02 -0.21497327993E+03  0.23522949631E+03  0.00000000000E+00 0.  1.
         -3    1    6    6    0  502  0.56873643851E+02 -0.73064896264E+01  0.51392926382E+02  0.77001487243E+02  0.00000000000E+00 0.  1.
<mgrwt>
<rscale>  0 0.18385297E+04</rscale>
<asrwt>0</asrwt>
<pdfrwt beam="1">  1        2 0.37750797E+00 0.18385297E+04</pdfrwt>
<pdfrwt beam="2">  1       -2 0.52982016E-01 0.18385297E+04</pdfrwt>
<totfact> 0.11715830E+01</totfact>
</mgrwt>
</event>
<event>
12    1  0.1442183E-007  0.2215203E+04  0.7818608E-02  0.8512127E-01
         -2   -1    0    0    0  501 -0.00000000000E+00  0.00000000000E+00  0.13652710623E+04  0.13652710623E+04  0.00000000000E+00 0.  1.
          2   -1    0    0  501    0  0.00000000000E+00 -0.00000000000E+00 -0.89856265439E+03  0.89856265439E+03  0.00000000000E+00 0. -1.
         23    2    1    2    0    0  0.45199405045E+03  0.59176299166E+03 -0.35394759194E+03  0.83176277251E+03  0.10985605101E+03 0.  0.
        254    2    1    2    0    0 -0.45199405045E+03 -0.59176299166E+03  0.82065599983E+03  0.14320709442E+04  0.90712119319E+03 0.  0.
        -24    2    4    4    0    0 -0.48953583525E+02 -0.30323095142E+03  0.87148291728E+03  0.92741159740E+03  0.79147537162E+02 0.  0.
         24    2    4    4    0    0 -0.40304046692E+03 -0.28853204024E+03 -0.50826917453E+02  0.50465934677E+03  0.80033271320E+02 0.  0.
         11    1    3    3    0    0  0.11750469372E+03  0.17912247203E+03 -0.15553623288E+03  0.26473332388E+03  0.00000000000E+00 0. -1.
        -11    1    3    3    0    0  0.33448935673E+03  0.41264051964E+03 -0.19841135906E+03  0.56702944863E+03  0.00000000000E+00 0.  1.
          2    1    6    6  502    0 -0.10724411148E+03 -0.10996953657E+03  0.95825370595E+01  0.15390394224E+03  0.00000000000E+00 0. -1.
          1    1    5    5  503    0  0.17326956728E+02 -0.26423099089E+02  0.67443667583E+02  0.74478533095E+02  0.00000000000E+00 0. -1.
         -2    1    5    5    0  503 -0.66280540253E+02 -0.27680785234E+03  0.80403924970E+03  0.85293306431E+03  0.00000000000E+00 0.  1.
         -3    1    6    6    0  502 -0.29579635544E+03 -0.17856250367E+03 -0.60409454512E+02  0.35075540453E+03  0.00000000000E+00 0.  1.
<mgrwt>
<rscale>  0 0.22152035E+04</rscale>
<asrwt>0</asrwt>
<pdfrwt beam="1">  1        2 0.13824041E+00 0.22152035E+04</pdfrwt>
<pdfrwt beam="2">  1       -2 0.21004170E+00 0.22152035E+04</pdfrwt>
<totfact> 0.30691078E+00</totfact>
</mgrwt>
</event>
<event>
12    1  0.1442183E-007  0.2033579E+04  0.7818608E-02  0.8591081E-01
         -2   -1    0    0    0  501 -0.00000000000E+00  0.00000000000E+00  0.25530241820E+03  0.25530241820E+03  0.00000000000E+00 0. -1.
          2   -1    0    0  501    0  0.00000000000E+00 -0.00000000000E+00 -0.40495523263E+04  0.40495523263E+04  0.00000000000E+00 0.  1.
         23    2    1    2    0    0  0.72981438333E+03  0.19857590627E+03 -0.88970107025E+03  0.11716866173E+04  0.96021403756E+02 0.  0.
        254    2    1    2    0    0 -0.72981438333E+03 -0.19857590627E+03 -0.29045488379E+04  0.31331681273E+04  0.89904234462E+03 0.  0.
        -24    2    4    4    0    0 -0.30935807340E+03 -0.49557112186E+03 -0.20463809807E+04  0.21295630434E+04  0.77913305520E+02 0.  0.
         24    2    4    4    0    0 -0.42045630994E+03  0.29699521559E+03 -0.85816785721E+03  0.10036050839E+04  0.76035693321E+02 0.  0.
         11    1    3    3    0    0  0.62764799207E+03  0.19823638106E+03 -0.79773234106E+03  0.10342226804E+04  0.00000000000E+00 0. -1.
        -11    1    3    3    0    0  0.10216639126E+03  0.33952521314E+00 -0.91968729194E+02  0.13746393684E+03  0.00000000000E+00 0.  1.
          2    1    6    6  502    0 -0.21685919950E+03  0.10710315262E+03 -0.40792138849E+03  0.47423502285E+03  0.00000000000E+00 0. -1.
          3    1    5    5  503    0 -0.31414870870E+03 -0.48688412901E+03 -0.20141094546E+04  0.20958011502E+04  0.00000000000E+00 0. -1.
         -4    1    5    5    0  503  0.47906353074E+01 -0.86869928489E+01 -0.32271526087E+02  0.33761893125E+02  0.00000000000E+00 0.  1.
         -1    1    6    6    0  502 -0.20359711044E+03  0.18989206296E+03 -0.45024646872E+03  0.52937006106E+03  0.00000000000E+00 0.  1.
<mgrwt>
<rscale>  0 0.20335786E+04</rscale>
<asrwt>0</asrwt>
<pdfrwt beam="1">  1        2 0.62300797E+00 0.20335786E+04</pdfrwt>
<pdfrwt beam="2">  1       -2 0.39277300E-01 0.20335786E+04</pdfrwt>
<totfact> 0.17886101E+00</totfact>
</mgrwt>
</event>
<event>
12    1  0.1442183E-007  0.2015037E+04  0.7818608E-02  0.8599622E-01
          2   -1    0    0  501    0  0.00000000000E+00  0.00000000000E+00  0.24818403199E+04  0.24818403199E+04  0.00000000000E+00 0. -1.
         -2   -1    0    0    0  501 -0.00000000000E+00 -0.00000000000E+00 -0.40900856185E+03  0.40900856185E+03  0.00000000000E+00 0.  1.
         23    2    1    2    0    0 -0.79062169839E+03 -0.14100668129E+03  0.75924018636E+03  0.11089178074E+04  0.91035645888E+02 0.  0.
        254    2    1    2    0    0  0.79062169839E+03  0.14100668129E+03  0.13135915717E+04  0.17819310743E+04  0.89710087639E+03 0.  0.
        -24    2    4    4    0    0  0.31689255108E+03  0.45459770001E+03  0.95045418587E+03  0.11031268493E+04  0.80285293779E+02 0.  0.
         24    2    4    4    0    0  0.47372914731E+03 -0.31359101872E+03  0.36313738579E+03  0.67880422505E+03  0.78407799083E+02 0.  0.
         13    1    3    3    0    0 -0.40023242418E+02  0.55436385594E+01  0.62081404576E+02  0.74072212443E+02  0.00000000000E+00 0. -1.
        -13    1    3    3    0    0 -0.75059845597E+03 -0.14655031985E+03  0.69715878178E+03  0.10348455949E+04  0.00000000000E+00 0.  1.
          2    1    6    6  502    0  0.37088454563E+03 -0.27151028030E+03  0.31769137065E+03  0.55874948365E+03  0.00000000000E+00 0. -1.
          1    1    5    5  503    0  0.24575082337E+03  0.40056545141E+03  0.81746358338E+03  0.94291720644E+03  0.00000000000E+00 0. -1.
         -2    1    5    5    0  503  0.71141727709E+02  0.54032248597E+02  0.13299060249E+03  0.16020964285E+03  0.00000000000E+00 0.  1.
         -1    1    6    6    0  502  0.10284460168E+03 -0.42080738421E+02  0.45446015140E+02  0.12005474140E+03  0.00000000000E+00 0.  1.
<mgrwt>
<rscale>  0 0.20150374E+04</rscale>
<asrwt>0</asrwt>
<pdfrwt beam="1">  1        2 0.38182158E+00 0.20150374E+04</pdfrwt>
<pdfrwt beam="2">  1       -2 0.62924396E-01 0.20150374E+04</pdfrwt>
<totfact> 0.77496276E+00</totfact>
</mgrwt>
</event>
<event>
12    1  0.1442183E-007  0.2168488E+04  0.7818608E-02  0.8531660E-01
         -2   -1    0    0    0  501 -0.00000000000E+00  0.00000000000E+00  0.15535422353E+04  0.15535422353E+04  0.00000000000E+00 0.  1.
          2   -1    0    0  501    0  0.00000000000E+00 -0.00000000000E+00 -0.75671289198E+03  0.75671289198E+03  0.00000000000E+00 0. -1.
         23    2    1    2    0    0  0.71282399787E+03  0.28103009525E+03  0.83235737492E+03  0.11345912214E+04  0.85921322155E+02 0.  0.
        254    2    1    2    0    0 -0.71282399787E+03 -0.28103009525E+03 -0.35528031644E+02  0.11756639059E+04  0.89096992777E+03 0.  0.
        -24    2    4    4    0    0  0.16200580566E+03 -0.21929338703E+03  0.54952613954E+02  0.29038269514E+03  0.83467653561E+02 0.  0.
         24    2    4    4    0    0 -0.87482980353E+03 -0.61736708212E+02 -0.90480645598E+02  0.88528121075E+03  0.79984177107E+02 0.  0.
         13    1    3    3    0    0  0.96859763767E+02  0.71181471001E+02  0.12346320708E+03  0.17231302665E+03  0.00000000000E+00 0. -1.
        -13    1    3    3    0    0  0.61596423411E+03  0.20984862425E+03  0.70889416785E+03  0.96227819470E+03  0.00000000000E+00 0.  1.
          4    1    6    6  502    0 -0.79543990989E+03 -0.78874804891E+02 -0.78553606909E+02  0.80319148043E+03  0.00000000000E+00 0. -1.
          3    1    5    5  503    0  0.15156860419E+03 -0.21857444749E+03  0.67133263995E+02  0.27432591203E+03  0.00000000000E+00 0. -1.
         -4    1    5    5    0  503  0.10437201465E+02 -0.71893954141E+00 -0.12180650041E+02  0.16056783112E+02  0.00000000000E+00 0.  1.
         -3    1    6    6    0  502 -0.79389893648E+02  0.17138096679E+02 -0.11927038689E+02  0.82089730314E+02  0.00000000000E+00 0.  1.
<mgrwt>
<rscale>  0 0.21684884E+04</rscale>
<asrwt>0</asrwt>
<pdfrwt beam="1">  1        2 0.11641737E+00 0.21684884E+04</pdfrwt>
<pdfrwt beam="2">  1       -2 0.23900650E+00 0.21684884E+04</pdfrwt>
<totfact> 0.25514225E+00</totfact>
</mgrwt>
</event>
<event>
12    1  0.1442183E-007  0.1640509E+04  0.7818608E-02  0.8796041E-01
          1   -1    0    0  501    0  0.00000000000E+00  0.00000000000E+00  0.11590583227E+04  0.11590583227E+04  0.00000000000E+00 0. -1.
         -1   -1    0    0    0  501 -0.00000000000E+00 -0.00000000000E+00 -0.58048658578E+03  0.58048658578E+03  0.00000000000E+00 0.  1.
         23    2    1    2    0    0  0.56078514373E+03 -0.88844004131E+02  0.11984024181E+03  0.58745891953E+03  0.91504448445E+02 0.  0.
        254    2    1    2    0    0 -0.56078514373E+03  0.88844004131E+02  0.45873149511E+03  0.11520859889E+04  0.89134410124E+03 0.  0.
        -24    2    4    4    0    0  0.14821841864E+03  0.26794930914E+03  0.78953743055E+02  0.32419742445E+03  0.71447495297E+02 0.  0.
         24    2    4    4    0    0 -0.70900356237E+03 -0.17910530501E+03  0.37977775206E+03  0.82788856450E+03  0.80022325228E+02 0.  0.
         13    1    3    3    0    0  0.44125297423E+03 -0.48555326681E+02  0.12510995812E+03  0.46120961464E+03  0.00000000000E+00 0.  1.
        -13    1    3    3    0    0  0.11953216950E+03 -0.40288677450E+02 -0.52697163129E+01  0.12624930489E+03  0.00000000000E+00 0. -1.
          2    1    6    6  502    0 -0.25332264378E+03 -0.60372557312E+02  0.92913890582E+02  0.27649629038E+03  0.00000000000E+00 0. -1.
          1    1    5    5  503    0 -0.76211889116E+01  0.16819789850E+02  0.86793409671E+01  0.20403892047E+02  0.00000000000E+00 0. -1.
         -2    1    5    5    0  503  0.15583960755E+03  0.25112951929E+03  0.70274402088E+02  0.30379353240E+03  0.00000000000E+00 0.  1.
         -1    1    6    6    0  502 -0.45568091859E+03 -0.11873274769E+03  0.28686386148E+03  0.55139227412E+03  0.00000000000E+00 0.  1.
<mgrwt>
<rscale>  0 0.16405094E+04</rscale>
<asrwt>0</asrwt>
<pdfrwt beam="1">  1        1 0.17831666E+00 0.16405094E+04</pdfrwt>
<pdfrwt beam="2">  1       -1 0.89305629E-01 0.16405094E+04</pdfrwt>
<totfact> 0.13461369E+01</totfact>
</mgrwt>
</event>
<event>
12    1  0.1442183E-007  0.1539100E+04  0.7818608E-02  0.8858860E-01
         -2   -1    0    0    0  501 -0.00000000000E+00  0.00000000000E+00  0.39840358013E+03  0.39840358013E+03  0.00000000000E+00 0.  1.
          2   -1    0    0  501    0  0.00000000000E+00 -0.00000000000E+00 -0.14864503993E+04  0.14864503993E+04  0.00000000000E+00 0. -1.
         23    2    1    2    0    0 -0.32433458577E+03  0.23619013476E+03 -0.79536790675E+03  0.89559584386E+03  0.92212283172E+02 0.  0.
        254    2    1    2    0    0  0.32433458577E+03 -0.23619013476E+03 -0.29267891245E+03  0.98925813559E+03  0.85556531589E+03 0.  0.
        -24    2    4    4    0    0  0.18265377307E+03  0.24508559120E+03 -0.35793456373E+03  0.47720108816E+03  0.78577215510E+02 0.  0.
         24    2    4    4    0    0  0.14168081270E+03 -0.48127572596E+03  0.65255651275E+02  0.51205704744E+03  0.79021153641E+02 0.  0.
         11    1    3    3    0    0 -0.29019008757E+03  0.19586420294E+03 -0.74223399172E+03  0.82066093570E+03  0.00000000000E+00 0.  1.
        -11    1    3    3    0    0 -0.34144498200E+02  0.40325931827E+02 -0.53133915029E+02  0.74934908162E+02  0.00000000000E+00 0. -1.
          2    1    6    6  502    0  0.58808492806E+00 -0.30597302055E+02 -0.13214265641E+02  0.33334029960E+02  0.00000000000E+00 0. -1.
          1    1    5    5  503    0  0.90907667635E+02  0.73632448852E+02 -0.98198837733E+02  0.15273818544E+03  0.00000000000E+00 0. -1.
         -2    1    5    5    0  503  0.91746105438E+02  0.17145314234E+03 -0.25973572599E+03  0.32446290272E+03  0.00000000000E+00 0.  1.
         -1    1    6    6    0  502  0.14109272777E+03 -0.45067842390E+03  0.78469916915E+02  0.47872301748E+03  0.00000000000E+00 0.  1.
<mgrwt>
<rscale>  0 0.15390999E+04</rscale>
<asrwt>0</asrwt>
<pdfrwt beam="1">  1        2 0.22868468E+00 0.15390999E+04</pdfrwt>
<pdfrwt beam="2">  1       -2 0.61292859E-01 0.15390999E+04</pdfrwt>
<totfact> 0.30806355E+01</totfact>
</mgrwt>
</event>
<event>
12    1  0.1442183E-007  0.2922437E+04  0.7818608E-02  0.8266233E-01
          2   -1    0    0  501    0  0.00000000000E+00  0.00000000000E+00  0.96653198034E+03  0.96653198034E+03  0.00000000000E+00 0. -1.
         -2   -1    0    0    0  501 -0.00000000000E+00 -0.00000000000E+00 -0.22090937913E+04  0.22090937913E+04  0.00000000000E+00 0.  1.
         23    2    1    2    0    0 -0.10683475711E+04  0.56420057865E+03 -0.11458579193E+04  0.16676223757E+04  0.91023026243E+02 0.  0.
        254    2    1    2    0    0  0.10683475711E+04 -0.56420057865E+03 -0.96703891642E+02  0.15080033959E+04  0.89723674342E+03 0.  0.
        -24    2    4    4    0    0  0.60736998904E+03 -0.83952023883E+02  0.34209135179E+03  0.70681336947E+03  0.81316667355E+02 0.  0.
         24    2    4    4    0    0  0.46097758203E+03 -0.48024855477E+03 -0.43879524343E+03  0.80119002640E+03  0.78899855904E+02 0.  0.
         13    1    3    3    0    0 -0.70637652612E+03  0.39738952076E+03 -0.71639840679E+03  0.10817175718E+04  0.00000000000E+00 0.  1.
        -13    1    3    3    0    0 -0.36197104494E+03  0.16681105790E+03 -0.42945951250E+03  0.58590480395E+03  0.00000000000E+00 0. -1.
          2    1    6    6  502    0  0.24736692340E+03 -0.20266330675E+03 -0.22138480488E+03  0.38893963867E+03  0.00000000000E+00 0. -1.
          1    1    5    5  503    0  0.39672452085E+02 -0.26180563154E+02  0.32824611522E+02  0.57764872224E+02  0.00000000000E+00 0. -1.
         -2    1    5    5    0  503  0.56769753695E+03 -0.57771460729E+02  0.30926674027E+03  0.64904849724E+03  0.00000000000E+00 0.  1.
         -1    1    6    6    0  502  0.21361065862E+03 -0.27758524802E+03 -0.21741043855E+03  0.41225038774E+03  0.00000000000E+00 0.  1.
<mgrwt>
<rscale>  0 0.29224372E+04</rscale>
<asrwt>0</asrwt>
<pdfrwt beam="1">  1        2 0.14869723E+00 0.29224372E+04</pdfrwt>
<pdfrwt beam="2">  1       -2 0.33986058E+00 0.29224372E+04</pdfrwt>
<totfact> 0.41094051E-01</totfact>
</mgrwt>
</event>
<event>
12    1  0.1442183E-007  0.1415901E+04  0.7818608E-02  0.8942388E-01
          1   -1    0    0  501    0  0.00000000000E+00  0.00000000000E+00  0.94670598122E+03  0.94670598122E+03  0.00000000000E+00 0. -1.
         -1   -1    0    0    0  501 -0.00000000000E+00 -0.00000000000E+00 -0.52940826928E+03  0.52940826928E+03  0.00000000000E+00 0.  1.
         23    2    1    2    0    0 -0.38757016465E+03  0.87389274959E+02  0.23235428781E+03  0.46937822069E+03  0.92086269792E+02 0.  0.
        254    2    1    2    0    0  0.38757016465E+03 -0.87389274959E+02  0.18494342413E+03  0.10067360298E+04  0.90634753030E+03 0.  0.
        -24    2    4    4    0    0 -0.19090259512E+02  0.27065948183E+03  0.33597943898E+03  0.43895838872E+03  0.78621183494E+02 0.  0.
         24    2    4    4    0    0  0.40666042416E+03 -0.35804875679E+03 -0.15103601485E+03  0.56777764109E+03  0.77381904349E+02 0.  0.
         11    1    3    3    0    0 -0.34173058546E+03  0.10670392301E+03  0.20716022954E+03  0.41361924632E+03  0.00000000000E+00 0. -1.
        -11    1    3    3    0    0 -0.45839579191E+02 -0.19314648054E+02  0.25194058271E+02  0.55758974363E+02  0.00000000000E+00 0.  1.
          4    1    6    6  502    0  0.29396869155E+03 -0.21686669211E+03 -0.82028414112E+02  0.37440274368E+03  0.00000000000E+00 0. -1.
          3    1    5    5  503    0  0.83046691267E+01  0.14690650225E+02  0.15831315412E+01  0.16949602910E+02  0.00000000000E+00 0. -1.
         -4    1    5    5    0  503 -0.27394928639E+02  0.25596883161E+03  0.33439630744E+03  0.42200878581E+03  0.00000000000E+00 0.  1.
         -3    1    6    6    0  502  0.11269173262E+03 -0.14118206468E+03 -0.69007600740E+02  0.19337489741E+03  0.00000000000E+00 0.  1.
<mgrwt>
<rscale>  0 0.14159011E+04</rscale>
<asrwt>0</asrwt>
<pdfrwt beam="1">  1        1 0.14564707E+00 0.14159011E+04</pdfrwt>
<pdfrwt beam="2">  1       -1 0.81447426E-01 0.14159011E+04</pdfrwt>
<totfact> 0.24386187E+01</totfact>
</mgrwt>
</event>
<event>
12    1  0.1442183E-007  0.2468565E+04  0.7818608E-02  0.8414271E-01
          2   -1    0    0  501    0  0.00000000000E+00  0.00000000000E+00  0.15132631729E+04  0.15132631729E+04  0.00000000000E+00 0. -1.
         -2   -1    0    0    0  501 -0.00000000000E+00 -0.00000000000E+00 -0.10067340357E+04  0.10067340357E+04  0.00000000000E+00 0.  1.
         23    2    1    2    0    0  0.69774431856E+02  0.76947455268E+03  0.96855925668E+03  0.12422867527E+04  0.90607857149E+02 0.  0.
        254    2    1    2    0    0 -0.69774431856E+02 -0.76947455268E+03 -0.46203011946E+03  0.12777104558E+04  0.90670426218E+03 0.  0.
        -24    2    4    4    0    0 -0.35150620397E+03 -0.68178746778E+03 -0.56347156114E+03  0.95522304165E+03  0.80994422307E+02 0.  0.
         24    2    4    4    0    0  0.28173177212E+03 -0.87687084898E+02  0.10144144168E+03  0.32248741416E+03  0.81522695784E+02 0.  0.
         11    1    3    3    0    0 -0.94129843832E+01  0.80235265150E+02  0.68784487616E+02  0.10610187456E+03  0.00000000000E+00 0.  1.
        -11    1    3    3    0    0  0.79187416239E+02  0.68923928753E+03  0.89977476907E+03  0.11361848782E+04  0.00000000000E+00 0. -1.
          4    1    6    6  502    0  0.24484481962E+02  0.14695499717E+02  0.33478346645E+01  0.28751618491E+02  0.00000000000E+00 0. -1.
          1    1    5    5  503    0 -0.24204698302E+03 -0.45021919763E+03 -0.32834782687E+03  0.60753301417E+03  0.00000000000E+00 0. -1.
         -2    1    5    5    0  503 -0.10945922095E+03 -0.23156827015E+03 -0.23512373427E+03  0.34769002748E+03  0.00000000000E+00 0.  1.
         -3    1    6    6    0  502  0.25724729015E+03 -0.10238258461E+03  0.98093607013E+02  0.29373579567E+03  0.00000000000E+00 0.  1.
<mgrwt>
<rscale>  0 0.24685652E+04</rscale>
<asrwt>0</asrwt>
<pdfrwt beam="1">  1        2 0.23280972E+00 0.24685652E+04</pdfrwt>
<pdfrwt beam="2">  1       -2 0.15488216E+00 0.24685652E+04</pdfrwt>
<totfact> 0.30695005E+00</totfact>
</mgrwt>
</event>
<event>
12    1  0.1442183E-007  0.1661838E+04  0.7818608E-02  0.8783434E-01
         -2   -1    0    0    0  501 -0.00000000000E+00  0.00000000000E+00  0.74668091478E+03  0.74668091478E+03  0.00000000000E+00 0.  1.
          2   -1    0    0  501    0  0.00000000000E+00 -0.00000000000E+00 -0.92466108510E+03  0.92466108510E+03  0.00000000000E+00 0. -1.
         23    2    1    2    0    0 -0.35302869799E+01 -0.43352235586E+03 -0.45705437152E+03  0.63662777827E+03  0.91881083933E+02 0.  0.
        254    2    1    2    0    0  0.35302869799E+01  0.43352235586E+03  0.27907420120E+03  0.10347142216E+04  0.89710479580E+03 0.  0.
        -24    2    4    4    0    0 -0.24148370607E+03  0.48321003905E+03  0.46098574831E+03  0.71474749526E+03  0.80930832838E+02 0.  0.
         24    2    4    4    0    0  0.24501399305E+03 -0.49687683196E+02 -0.18191154711E+03  0.31996672634E+03  0.82378227333E+02 0.  0.
         11    1    3    3    0    0 -0.41567969209E+02 -0.27378380734E+03 -0.31588631365E+03  0.42008288751E+03  0.00000000000E+00 0. -1.
        -11    1    3    3    0    0  0.38037682229E+02 -0.15973854852E+03 -0.14116805787E+03  0.21654489076E+03  0.00000000000E+00 0.  1.
          4    1    6    6  502    0  0.51197612179E+02  0.23113849964E+02 -0.40100030404E+02  0.69017809233E+02  0.00000000000E+00 0. -1.
          3    1    5    5  503    0  0.45232367345E+01  0.16145158297E+02  0.59018257844E+01  0.17775189298E+02  0.00000000000E+00 0. -1.
         -4    1    5    5    0  503 -0.24600694281E+03  0.46706488076E+03  0.45508392252E+03  0.69697230597E+03  0.00000000000E+00 0.  1.
         -3    1    6    6    0  502  0.19381638087E+03 -0.72801533160E+02 -0.14181151670E+03  0.25094891710E+03  0.00000000000E+00 0.  1.
<mgrwt>
<rscale>  0 0.16618385E+04</rscale>
<asrwt>0</asrwt>
<pdfrwt beam="1">  1        2 0.14225555E+00 0.16618385E+04</pdfrwt>
<pdfrwt beam="2">  1       -2 0.11487399E+00 0.16618385E+04</pdfrwt>
<totfact> 0.15925690E+01</totfact>
</mgrwt>
</event>
<event>
12    1  0.1442183E-007  0.3507947E+04  0.7818608E-02  0.8111909E-01
          1   -1    0    0  501    0  0.00000000000E+00  0.00000000000E+00  0.18752663202E+04  0.18752663202E+04  0.00000000000E+00 0. -1.
         -1   -1    0    0    0  501 -0.00000000000E+00 -0.00000000000E+00 -0.16405261691E+04  0.16405261691E+04  0.00000000000E+00 0.  1.
         23    2    1    2    0    0  0.13681284999E+04  0.33314414349E+03 -0.69386959374E+03  0.15724747968E+04  0.91985654565E+02 0.  0.
        254    2    1    2    0    0 -0.13681284999E+04 -0.33314414349E+03  0.92860974481E+03  0.19433176925E+04  0.96509428719E+03 0.  0.
        -24    2    4    4    0    0  0.84254746164E+02 -0.10255312294E+02  0.30817044841E+03  0.32938042701E+03  0.79488406307E+02 0.  0.
         24    2    4    4    0    0 -0.14523832461E+04 -0.32288883120E+03  0.62043929639E+03  0.16139372655E+04  0.78576622337E+02 0.  0.
         11    1    3    3    0    0  0.75150402373E+03  0.17223851239E+03 -0.42941910300E+03  0.88251071884E+03  0.00000000000E+00 0. -1.
        -11    1    3    3    0    0  0.61662447621E+03  0.16090563110E+03 -0.26445049074E+03  0.68996407793E+03  0.00000000000E+00 0.  1.
          2    1    6    6  502    0 -0.11844175375E+04 -0.26203739284E+03  0.53833993955E+03  0.13271467097E+04  0.00000000000E+00 0. -1.
          1    1    5    5  503    0  0.96588126997E+02 -0.14734354078E+02  0.29512299209E+03  0.31087609739E+03  0.00000000000E+00 0. -1.
         -2    1    5    5    0  503 -0.12333380832E+02  0.44790417834E+01  0.13047456321E+02  0.18504329615E+02  0.00000000000E+00 0.  1.
         -1    1    6    6    0  502 -0.26796570857E+03 -0.60851438356E+02  0.82099356838E+02  0.28679055583E+03  0.00000000000E+00 0.  1.
<mgrwt>
<rscale>  0 0.35079472E+04</rscale>
<asrwt>0</asrwt>
<pdfrwt beam="1">  1        1 0.28850251E+00 0.35079472E+04</pdfrwt>
<pdfrwt beam="2">  1       -1 0.25238864E+00 0.35079472E+04</pdfrwt>
<totfact> 0.19859618E-01</totfact>
</mgrwt>
</event>
<event>
12    1  0.1442183E-007  0.1567983E+04  0.7818608E-02  0.8840462E-01
         -2   -1    0    0    0  501 -0.00000000000E+00  0.00000000000E+00  0.30646436555E+03  0.30646436555E+03  0.00000000000E+00 0.  1.
          2   -1    0    0  501    0  0.00000000000E+00 -0.00000000000E+00 -0.20055934117E+04  0.20055934117E+04  0.00000000000E+00 0. -1.
         23    2    1    2    0    0  0.58442039398E+02 -0.46271524415E+03 -0.24236892813E+03  0.53315906202E+03  0.89414869912E+02 0.  0.
        254    2    1    2    0    0 -0.58442039398E+02  0.46271524415E+03 -0.14567601180E+04  0.17788987152E+04  0.90819035914E+03 0.  0.
        -24    2    4    4    0    0  0.11939377305E+03  0.69625765682E+03 -0.93044266055E+03  0.11710154034E+04  0.80770865525E+02 0.  0.
         24    2    4    4    0    0 -0.17783581245E+03 -0.23354241267E+03 -0.52631745745E+03  0.60788331180E+03  0.79651867787E+02 0.  0.
         11    1    3    3    0    0 -0.50331140342E+01 -0.52822623445E+01 -0.18612479310E+02  0.19991471142E+02  0.00000000000E+00 0. -1.
        -11    1    3    3    0    0  0.63475153432E+02 -0.45743298180E+03 -0.22375644882E+03  0.51316759088E+03  0.00000000000E+00 0.  1.
          2    1    6    6  502    0 -0.17592457304E+03 -0.20681148724E+03 -0.50603178155E+03  0.57427224432E+03  0.00000000000E+00 0. -1.
          3    1    5    5  503    0  0.99289767891E+02  0.60272761423E+03 -0.84552615368E+03  0.10430980354E+04  0.00000000000E+00 0. -1.
         -4    1    5    5    0  503  0.20104005163E+02  0.93530042589E+02 -0.84916506866E+02  0.12791736797E+03  0.00000000000E+00 0.  1.
         -1    1    6    6    0  502 -0.19112394140E+01 -0.26730925436E+02 -0.20285675896E+02  0.33611067483E+02  0.00000000000E+00 0.  1.
<mgrwt>
<rscale>  0 0.15679833E+04</rscale>
<asrwt>0</asrwt>
<pdfrwt beam="1">  1        2 0.30855283E+00 0.15679833E+04</pdfrwt>
<pdfrwt beam="2">  1       -2 0.47148364E-01 0.15679833E+04</pdfrwt>
<totfact> 0.27196006E+01</totfact>
</mgrwt>
</event>
<event>
12    1  0.1442183E-007  0.2169729E+04  0.7818608E-02  0.8531134E-01
         -1   -1    0    0    0  501 -0.00000000000E+00  0.00000000000E+00  0.15583961798E+04  0.15583961798E+04  0.00000000000E+00 0.  1.
          1   -1    0    0  501    0  0.00000000000E+00 -0.00000000000E+00 -0.75521964401E+03  0.75521964401E+03  0.00000000000E+00 0. -1.
         23    2    1    2    0    0 -0.56565539419E+03  0.46385230906E+02  0.10707865495E+04  0.12152266110E+04  0.89856924818E+02 0.  0.
        254    2    1    2    0    0  0.56565539419E+03 -0.46385230906E+02 -0.26761001365E+03  0.10983892128E+04  0.90151324386E+03 0.  0.
        -24    2    4    4    0    0 -0.13151368171E+03  0.21489216121E+03 -0.22630218520E+03  0.34844760443E+03  0.82027828091E+02 0.  0.
         24    2    4    4    0    0  0.69716907590E+03 -0.26127739211E+03 -0.41307828450E+02  0.74994160841E+03  0.79971765753E+02 0.  0.
         13    1    3    3    0    0 -0.26912451947E+02 -0.28772064990E+01  0.10300166092E+03  0.10649835933E+03  0.00000000000E+00 0. -1.
        -13    1    3    3    0    0 -0.53874294224E+03  0.49262437405E+02  0.96778488854E+03  0.11087282517E+04  0.00000000000E+00 0.  1.
          2    1    6    6  502    0  0.59717373197E+03 -0.19329714929E+03 -0.28092628758E+02  0.62830681189E+03  0.00000000000E+00 0. -1.
          3    1    5    5  503    0 -0.10867590800E+03  0.21616908197E+03 -0.20352396006E+03  0.31616692948E+03  0.00000000000E+00 0. -1.
         -4    1    5    5    0  503 -0.22837773707E+02 -0.12769207624E+01 -0.22778225142E+02  0.32280674949E+02  0.00000000000E+00 0.  1.
         -1    1    6    6    0  502  0.99995343928E+02 -0.67980242823E+02 -0.13215199692E+02  0.12163479652E+03  0.00000000000E+00 0.  1.
<mgrwt>
<rscale>  0 0.21697294E+04</rscale>
<asrwt>0</asrwt>
<pdfrwt beam="1">  1        1 0.11618764E+00 0.21697294E+04</pdfrwt>
<pdfrwt beam="2">  1       -1 0.23975326E+00 0.21697294E+04</pdfrwt>
<totfact> 0.18021650E+00</totfact>
</mgrwt>
</event>
<event>
12    1  0.1619273E-007  0.1853611E+04  0.7818608E-02  0.8678298E-01
          2   -1    0    0  501    0  0.00000000000E+00  0.00000000000E+00  0.13513414678E+04  0.13513414678E+04  0.00000000000E+00 0.  1.
         -2   -1    0    0    0  501 -0.00000000000E+00 -0.00000000000E+00 -0.63564106365E+03  0.63564106365E+03  0.00000000000E+00 0. -1.
         23    2    1    2    0    0  0.68984267767E+03  0.13588020091E+03  0.27634877693E+03  0.76086435392E+03  0.90551474934E+02 0.  0.
        254    2    1    2    0    0 -0.68984267767E+03 -0.13588020091E+03  0.43935162720E+03  0.12261181775E+04  0.90332141787E+03 0.  0.
        -24    2    4    4    0    0 -0.57141710541E+03 -0.11619891193E+03 -0.15990189942E+03  0.60980698590E+03  0.79222769004E+02 0.  0.
         24    2    4    4    0    0 -0.11842557226E+03 -0.19681288975E+02  0.59925352662E+03  0.61631119161E+03  0.79515573545E+02 0.  0.
         13    1    3    3    0    0  0.71321529835E+02  0.20368634574E+02  0.13644589011E+01  0.74185602650E+02  0.00000000000E+00 0.  1.
        -13    1    3    3    0    0  0.61852114784E+03  0.11551156633E+03  0.27498431803E+03  0.68667875127E+03  0.00000000000E+00 0. -1.
          2    1    6    6  502    0 -0.55875301364E+02 -0.12559409039E+01  0.11693664574E+03  0.12960634941E+03  0.00000000000E+00 0. -1.
          3    1    5    5  503    0 -0.74949280561E+02 -0.43616378748E+02 -0.22511158347E+02  0.89590933704E+02  0.00000000000E+00 0. -1.
         -4    1    5    5    0  503 -0.49646782485E+03 -0.72582533184E+02 -0.13739074108E+03  0.52021605220E+03  0.00000000000E+00 0.  1.
         -3    1    6    6    0  502 -0.62550270898E+02 -0.18425348071E+02  0.48231688088E+03  0.48670484220E+03  0.00000000000E+00 0.  1.
<mgrwt>
<rscale>  0 0.18536107E+04</rscale>
<asrwt>0</asrwt>
<pdfrwt beam="1">  1        2 0.20789869E+00 0.18536107E+04</pdfrwt>
<pdfrwt beam="2">  1       -2 0.97790934E-01 0.18536107E+04</pdfrwt>
<totfact> 0.12635581E+01</totfact>
</mgrwt>
</event>
<event>
12    1  0.1442183E-007  0.2621951E+04  0.7818608E-02  0.8360783E-01
          2   -1    0    0  501    0  0.00000000000E+00  0.00000000000E+00  0.10540977208E+04  0.10540977208E+04  0.00000000000E+00 0. -1.
         -2   -1    0    0    0  501 -0.00000000000E+00 -0.00000000000E+00 -0.16304533822E+04  0.16304533822E+04  0.00000000000E+00 0.  1.
         23    2    1    2    0    0  0.67475985324E+03  0.43657180076E+03 -0.11020320722E+04  0.13663608631E+04  0.81064932285E+02 0.  0.
        254    2    1    2    0    0 -0.67475985324E+03 -0.43657180076E+03  0.52567641081E+03  0.13181902399E+04  0.90299170698E+03 0.  0.
        -24    2    4    4    0    0 -0.26901663177E+03 -0.67312947256E+03  0.35409843013E+03  0.81059233709E+03  0.78746452137E+02 0.  0.
         24    2    4    4    0    0 -0.40574322147E+03  0.23655767180E+03  0.17157798068E+03  0.50759790279E+03  0.87347201502E+02 0.  0.
         13    1    3    3    0    0  0.43978195305E+02  0.39094424246E+02 -0.51809504639E+02  0.78400768111E+02  0.00000000000E+00 0. -1.
        -13    1    3    3    0    0  0.63078165794E+03  0.39747737651E+03 -0.10502225676E+04  0.12879600950E+04  0.00000000000E+00 0.  1.
          4    1    6    6  502    0 -0.29552236801E+03  0.20990676466E+03  0.11136034031E+03  0.37920369887E+03  0.00000000000E+00 0. -1.
          1    1    5    5  503    0 -0.25170783845E+03 -0.66185613755E+03  0.33940185012E+03  0.78524136329E+03  0.00000000000E+00 0. -1.
         -4    1    5    5    0  503 -0.17308793328E+02 -0.11273335008E+02  0.14696580013E+02  0.25350973803E+02  0.00000000000E+00 0.  1.
         -3    1    6    6    0  502 -0.11022085346E+03  0.26650907140E+02  0.60217640372E+02  0.12839420392E+03  0.00000000000E+00 0.  1.
<mgrwt>
<rscale>  0 0.26219513E+04</rscale>
<asrwt>0</asrwt>
<pdfrwt beam="1">  1        2 0.16216888E+00 0.26219513E+04</pdfrwt>
<pdfrwt beam="2">  1       -2 0.25083898E+00 0.26219513E+04</pdfrwt>
<totfact> 0.13046344E+00</totfact>
</mgrwt>
</event>
<event>
12    1  0.1442183E-007  0.2175835E+04  0.7818608E-02  0.8528554E-01
         -2   -1    0    0    0  501 -0.00000000000E+00  0.00000000000E+00  0.11169087473E+04  0.11169087473E+04  0.00000000000E+00 0.  1.
          2   -1    0    0  501    0  0.00000000000E+00 -0.00000000000E+00 -0.10596787136E+04  0.10596787136E+04  0.00000000000E+00 0. -1.
         23    2    1    2    0    0  0.56187709933E+03 -0.54570174778E+03 -0.41454392784E+03  0.89076102605E+03  0.90068113873E+02 0.  0.
        254    2    1    2    0    0 -0.56187709933E+03  0.54570174778E+03  0.47177396158E+03  0.12858264349E+04  0.90403687841E+03 0.  0.
        -24    2    4    4    0    0  0.71841452845E+02  0.23009133477E+03  0.51312433141E+03  0.57224017025E+03  0.77839683161E+02 0.  0.
         24    2    4    4    0    0 -0.63371855217E+03  0.31561041301E+03 -0.41350369830E+02  0.71358626463E+03  0.79286618108E+02 0.  0.
         11    1    3    3    0    0  0.26569311497E+03 -0.23742141838E+03 -0.23650123513E+03  0.42766177695E+03  0.00000000000E+00 0. -1.
        -11    1    3    3    0    0  0.29618398436E+03 -0.30828032941E+03 -0.17804269272E+03  0.46309924910E+03  0.00000000000E+00 0.  1.
          2    1    6    6  502    0 -0.22266447752E+03  0.71866585765E+02 -0.73762109141E+00  0.23397610943E+03  0.00000000000E+00 0. -1.
          1    1    5    5  503    0 -0.36722255939E+01  0.17146896433E+02  0.88030043180E+01  0.19621268642E+02  0.00000000000E+00 0. -1.
         -2    1    5    5    0  503  0.75513678439E+02  0.21294443834E+03  0.50432132709E+03  0.55261890161E+03  0.00000000000E+00 0.  1.
         -1    1    6    6    0  502 -0.41105407466E+03  0.24374382725E+03 -0.40612748738E+02  0.47961015520E+03  0.00000000000E+00 0.  1.
<mgrwt>
<rscale>  0 0.21758349E+04</rscale>
<asrwt>0</asrwt>
<pdfrwt beam="1">  1        2 0.16302749E+00 0.21758349E+04</pdfrwt>
<pdfrwt beam="2">  1       -2 0.17183212E+00 0.21758349E+04</pdfrwt>
<totfact> 0.43723109E+00</totfact>
</mgrwt>
</event>
<event>
12    1  0.1442183E-007  0.1668768E+04  0.7818608E-02  0.8779380E-01
          1   -1    0    0  501    0  0.00000000000E+00  0.00000000000E+00  0.14580006289E+04  0.14580006289E+04  0.00000000000E+00 0. -1.
         -1   -1    0    0    0  501 -0.00000000000E+00 -0.00000000000E+00 -0.47750114755E+03  0.47750114755E+03  0.00000000000E+00 0.  1.
         23    2    1    2    0    0  0.48208869499E+03 -0.31779712225E+03  0.27407091241E+03  0.64567357836E+03  0.91514938706E+02 0.  0.
        254    2    1    2    0    0 -0.48208869499E+03  0.31779712225E+03  0.70642856897E+03  0.12898281981E+04  0.91170770364E+03 0.  0.
        -24    2    4    4    0    0 -0.13510951634E+03  0.37605432095E+03  0.81625865421E+03  0.91255534294E+03  0.82508361088E+02 0.  0.
         24    2    4    4    0    0 -0.34697917865E+03 -0.58257198697E+02 -0.10983008524E+03  0.37727285519E+03  0.80521475526E+02 0.  0.
         11    1    3    3    0    0  0.21780700374E+03 -0.12907478288E+03  0.72113061849E+02  0.26324985117E+03  0.00000000000E+00 0. -1.
        -11    1    3    3    0    0  0.26428169126E+03 -0.18872233938E+03  0.20195785056E+03  0.38242372719E+03  0.00000000000E+00 0.  1.
          4    1    6    6  502    0 -0.43174998462E+02  0.12329852841E+02  0.44002104698E+01  0.45116156922E+02  0.00000000000E+00 0. -1.
          3    1    5    5  503    0 -0.61294059166E+02  0.18332657918E+03  0.30359855878E+03  0.35991343572E+03  0.00000000000E+00 0. -1.
         -4    1    5    5    0  503 -0.73815457179E+02  0.19272774177E+03  0.51266009543E+03  0.55264190722E+03  0.00000000000E+00 0.  1.
         -3    1    6    6    0  502 -0.30380418019E+03 -0.70587051537E+02 -0.11423029571E+03  0.33215669826E+03  0.00000000000E+00 0.  1.
<mgrwt>
<rscale>  0 0.16687684E+04</rscale>
<asrwt>0</asrwt>
<pdfrwt beam="1">  1        1 0.22430779E+00 0.16687684E+04</pdfrwt>
<pdfrwt beam="2">  1       -1 0.73461716E-01 0.16687684E+04</pdfrwt>
<totfact> 0.12463300E+01</totfact>
</mgrwt>
</event>
<event>
12    1  0.1442183E-007  0.2784326E+04  0.7818608E-02  0.8308151E-01
         -1   -1    0    0    0  501 -0.00000000000E+00  0.00000000000E+00  0.17469472797E+04  0.17469472797E+04  0.00000000000E+00 0.  1.
          1   -1    0    0  501    0  0.00000000000E+00 -0.00000000000E+00 -0.11094308636E+04  0.11094308636E+04  0.00000000000E+00 0. -1.
         23    2    1    2    0    0  0.15057946064E+02 -0.31799639837E+03  0.15258790790E+04  0.15613225219E+04  0.89847663937E+02 0.  0.
        254    2    1    2    0    0 -0.15057946064E+02  0.31799639837E+03 -0.88836266296E+03  0.12950556214E+04  0.88692299013E+03 0.  0.
        -24    2    4    4    0    0  0.40521682619E+03  0.92640038791E+01 -0.35379163297E+03  0.54401248926E+03  0.80588900658E+02 0.  0.
         24    2    4    4    0    0 -0.42027477226E+03  0.30873239449E+03 -0.53457102998E+03  0.75104313212E+03  0.79705863050E+02 0.  0.
         11    1    3    3    0    0  0.28763763056E+01 -0.15758707417E+02  0.23217331396E+03  0.23272528465E+03  0.00000000000E+00 0. -1.
        -11    1    3    3    0    0  0.12181569758E+02 -0.30223769096E+03  0.12937057650E+04  0.13285972373E+04  0.00000000000E+00 0.  1.
          4    1    6    6  502    0 -0.12393463684E+03  0.13796469350E+03 -0.18243996319E+03  0.26015070830E+03  0.00000000000E+00 0. -1.
          1    1    5    5  503    0  0.34818592588E+02  0.24346085537E+02 -0.33482013963E+02  0.54093544252E+02  0.00000000000E+00 0. -1.
         -2    1    5    5    0  503  0.37039823361E+03 -0.15082081658E+02 -0.32030961901E+03  0.48991894501E+03  0.00000000000E+00 0.  1.
         -3    1    6    6    0  502 -0.29634013542E+03  0.17076770099E+03 -0.35213106680E+03  0.49089242382E+03  0.00000000000E+00 0.  1.
<mgrwt>
<rscale>  0 0.27843256E+04</rscale>
<asrwt>0</asrwt>
<pdfrwt beam="1">  1        1 0.17068167E+00 0.27843256E+04</pdfrwt>
<pdfrwt beam="2">  1       -1 0.26876112E+00 0.27843256E+04</pdfrwt>
<totfact> 0.56908645E-01</totfact>
</mgrwt>
</event>
<event>
12    1  0.1442183E-007  0.1851510E+04  0.7818608E-02  0.8679376E-01
         -2   -1    0    0    0  501 -0.00000000000E+00  0.00000000000E+00  0.26626933833E+03  0.26626933833E+03  0.00000000000E+00 0.  1.
          2   -1    0    0  501    0  0.00000000000E+00 -0.00000000000E+00 -0.32186309493E+04  0.32186309493E+04  0.00000000000E+00 0. -1.
         23    2    1    2    0    0  0.43025137417E+03 -0.31424910305E+03 -0.28993672119E+03  0.61365387128E+03  0.92946370027E+02 0.  0.
        254    2    1    2    0    0 -0.43025137417E+03  0.31424910305E+03 -0.26624248898E+04  0.28712464164E+04  0.93363855212E+03 0.  0.
        -24    2    4    4    0    0 -0.50452100143E+03  0.58967776994E+03 -0.19545321828E+04  0.21045074766E+04  0.80587543902E+02 0.  0.
         24    2    4    4    0    0  0.74269627260E+02 -0.27542866689E+03 -0.70789270703E+03  0.76673893980E+03  0.73481896164E+02 0.  0.
         13    1    3    3    0    0  0.37500234995E+03 -0.23291513143E+03 -0.25165412828E+03  0.50813976542E+03  0.00000000000E+00 0. -1.
        -13    1    3    3    0    0  0.55249024218E+02 -0.81333971617E+02 -0.38282592914E+02  0.10551410586E+03  0.00000000000E+00 0.  1.
          2    1    6    6  502    0  0.14539857474E+02 -0.19970436729E+02 -0.24817864738E+02  0.35016456255E+02  0.00000000000E+00 0. -1.
          3    1    5    5  503    0 -0.10172910861E+03  0.16786622793E+03 -0.45419660876E+03  0.49479535308E+03  0.00000000000E+00 0. -1.
         -4    1    5    5    0  503 -0.40279189282E+03  0.42181154201E+03 -0.15003355740E+04  0.16097121235E+04  0.00000000000E+00 0.  1.
         -1    1    6    6    0  502  0.59729769786E+02 -0.25545823016E+03 -0.68307484229E+03  0.73172248355E+03  0.00000000000E+00 0.  1.
<mgrwt>
<rscale>  0 0.18515104E+04</rscale>
<asrwt>0</asrwt>
<pdfrwt beam="1">  1        2 0.49517401E+00 0.18515104E+04</pdfrwt>
<pdfrwt beam="2">  1       -2 0.40964512E-01 0.18515104E+04</pdfrwt>
<totfact> 0.67237870E+00</totfact>
</mgrwt>
</event>
<event>
12    1  0.1442183E-007  0.1206799E+04  0.7818608E-02  0.9106926E-01
         -1   -1    0    0    0  501 -0.00000000000E+00  0.00000000000E+00  0.26275785843E+03  0.26275785843E+03  0.00000000000E+00 0.  1.
          1   -1    0    0  501    0  0.00000000000E+00 -0.00000000000E+00 -0.13856531073E+04  0.13856531073E+04  0.00000000000E+00 0. -1.
         23    2    1    2    0    0 -0.18418543806E+03  0.12161126805E+03 -0.39917337458E+03  0.46522371979E+03  0.91543161242E+02 0.  0.
        254    2    1    2    0    0  0.18418543806E+03 -0.12161126805E+03 -0.72372187433E+03  0.11831872460E+04  0.90964011100E+03 0.  0.
        -24    2    4    4    0    0  0.76471385675E+02 -0.44084846137E+03 -0.70227121479E+03  0.83638814927E+03  0.78517758495E+02 0.  0.
         24    2    4    4    0    0  0.10771405238E+03  0.31923719332E+03 -0.21450659543E+02  0.34679909671E+03  0.79339649625E+02 0.  0.
         11    1    3    3    0    0 -0.44865315281E+02  0.20250248117E+02 -0.29535708626E+02  0.57404940103E+02  0.00000000000E+00 0.  1.
        -11    1    3    3    0    0 -0.13932012278E+03  0.10136101993E+03 -0.36963766595E+03  0.40781877968E+03  0.00000000000E+00 0. -1.
          4    1    6    6  502    0  0.33222023585E+01  0.75926334195E+01 -0.16081349699E+02  0.18091294008E+02  0.00000000000E+00 0. -1.
          3    1    5    5  503    0  0.56316951465E+02 -0.32905316869E+03 -0.58201717870E+03  0.67096317571E+03  0.00000000000E+00 0. -1.
         -4    1    5    5    0  503  0.20154434210E+02 -0.11179529268E+03 -0.12025403608E+03  0.16542497356E+03  0.00000000000E+00 0.  1.
         -3    1    6    6    0  502  0.10439185003E+03  0.31164455990E+03 -0.53693098441E+01  0.32870780270E+03  0.00000000000E+00 0.  1.
<mgrwt>
<rscale>  0 0.12067995E+04</rscale>
<asrwt>0</asrwt>
<pdfrwt beam="1">  1        1 0.21317740E+00 0.12067995E+04</pdfrwt>
<pdfrwt beam="2">  1       -1 0.40424286E-01 0.12067995E+04</pdfrwt>
<totfact> 0.46455877E+01</totfact>
</mgrwt>
</event>
<event>
12    1  0.1442183E-007  0.1146042E+04  0.7818608E-02  0.9161443E-01
         -2   -1    0    0    0  501 -0.00000000000E+00  0.00000000000E+00  0.21149205726E+03  0.21149205726E+03  0.00000000000E+00 0.  1.
          2   -1    0    0  501    0  0.00000000000E+00 -0.00000000000E+00 -0.15525542511E+04  0.15525542511E+04  0.00000000000E+00 0. -1.
         23    2    1    2    0    0  0.38258701114E+02  0.10264087696E+03 -0.22625978308E+03  0.26810554562E+03  0.93210601945E+02 0.  0.
        254    2    1    2    0    0 -0.38258701114E+02 -0.10264087696E+03 -0.11148024107E+04  0.14959407627E+04  0.99149153944E+03 0.  0.
        -24    2    4    4    0    0  0.44516831113E+03 -0.10489304424E+03 -0.32641587716E+03  0.56767152619E+03  0.80785275992E+02 0.  0.
         24    2    4    4    0    0 -0.48342701225E+03  0.22521672784E+01 -0.78838653359E+03  0.92826923655E+03  0.80147992782E+02 0.  0.
         13    1    3    3    0    0 -0.19786123878E+02  0.53707654531E+02 -0.49275157139E+02  0.75525121413E+02  0.00000000000E+00 0.  1.
        -13    1    3    3    0    0  0.58044824993E+02  0.48933222433E+02 -0.17698462595E+03  0.19258042421E+03  0.00000000000E+00 0. -1.
          2    1    6    6  502    0 -0.14752140421E+03  0.29528358998E+02 -0.20098819726E+03  0.25105924425E+03  0.00000000000E+00 0. -1.
          1    1    5    5  503    0  0.33012231347E+03 -0.10406556375E+03 -0.27293753821E+03  0.44080072956E+03  0.00000000000E+00 0. -1.
         -2    1    5    5    0  503  0.11504599766E+03 -0.82748048893E+00 -0.53478338943E+02  0.12687079663E+03  0.00000000000E+00 0.  1.
         -1    1    6    6    0  502 -0.33590560803E+03 -0.27276191720E+02 -0.58739833632E+03  0.67720999229E+03  0.00000000000E+00 0.  1.
<mgrwt>
<rscale>  0 0.11460417E+04</rscale>
<asrwt>0</asrwt>
<pdfrwt beam="1">  1        2 0.23885450E+00 0.11460417E+04</pdfrwt>
<pdfrwt beam="2">  1       -2 0.32537239E-01 0.11460417E+04</pdfrwt>
<totfact> 0.10327957E+02</totfact>
</mgrwt>
</event>
<event>
12    1  0.1442183E-007  0.2581581E+04  0.7818608E-02  0.8374485E-01
         -2   -1    0    0    0  501 -0.00000000000E+00  0.00000000000E+00  0.93786466525E+03  0.93786466525E+03  0.00000000000E+00 0. -1.
          2   -1    0    0  501    0  0.00000000000E+00 -0.00000000000E+00 -0.17765255796E+04  0.17765255796E+04  0.00000000000E+00 0.  1.
         23    2    1    2    0    0  0.34591475382E+03 -0.10137727540E+04 -0.74439186197E+03  0.13076111507E+04  0.91298759287E+02 0.  0.
        254    2    1    2    0    0 -0.34591475382E+03  0.10137727540E+04 -0.94269052397E+02  0.14067790942E+04  0.90705487810E+03 0.  0.
        -24    2    4    4    0    0 -0.87358095418E+02 -0.15279905707E+03 -0.79983078398E+02  0.20932866690E+03  0.80263374462E+02 0.  0.
         24    2    4    4    0    0 -0.25855665840E+03  0.11665718111E+04 -0.14285973999E+02  0.11974504273E+04  0.77085022439E+02 0.  0.
         13    1    3    3    0    0  0.28796337501E+03 -0.83333264900E+03 -0.65325497355E+03  0.10973186728E+04  0.00000000000E+00 0. -1.
        -13    1    3    3    0    0  0.57951378811E+02 -0.18044010504E+03 -0.91136888420E+02  0.21029247785E+03  0.00000000000E+00 0.  1.
          4    1    6    6  502    0 -0.37542776805E+02  0.27965039323E+03 -0.25775609294E+02  0.28333405118E+03  0.00000000000E+00 0. -1.
          1    1    5    5  503    0 -0.26009142674E+02 -0.44094203209E+02  0.14009185521E+02  0.53075715146E+02  0.00000000000E+00 0. -1.
         -2    1    5    5    0  503 -0.61348952743E+02 -0.10870485386E+03 -0.93992263918E+02  0.15625295176E+03  0.00000000000E+00 0.  1.
         -3    1    6    6    0  502 -0.22101388160E+03  0.88692141788E+03  0.11489635295E+02  0.91411637611E+03  0.00000000000E+00 0.  1.
<mgrwt>
<rscale>  0 0.25815814E+04</rscale>
<asrwt>0</asrwt>
<pdfrwt beam="1">  1        2 0.27331163E+00 0.25815814E+04</pdfrwt>
<pdfrwt beam="2">  1       -2 0.14428687E+00 0.25815814E+04</pdfrwt>
<totfact> 0.26151821E+00</totfact>
</mgrwt>
</event>
<event>
12    1  0.1442183E-007  0.1167633E+04  0.7818608E-02  0.9141669E-01
          2   -1    0    0  501    0  0.00000000000E+00  0.00000000000E+00  0.11395380809E+04  0.11395380809E+04  0.00000000000E+00 0.  1.
         -2   -1    0    0    0  501 -0.00000000000E+00 -0.00000000000E+00 -0.29910493141E+03  0.29910493141E+03  0.00000000000E+00 0. -1.
         23    2    1    2    0    0 -0.60475213523E+02  0.15016052444E+03  0.36555370306E+03  0.40802642001E+03  0.81551303180E+02 0.  0.
        254    2    1    2    0    0  0.60475213523E+02 -0.15016052444E+03  0.47487944644E+03  0.10306165923E+04  0.90025254077E+03 0.  0.
        -24    2    4    4    0    0 -0.17943930532E+03  0.26278367674E+01  0.65542951668E+03  0.68424909516E+03  0.80022516038E+02 0.  0.
         24    2    4    4    0    0  0.23991451884E+03 -0.15278836121E+03 -0.18055007024E+03  0.34636749716E+03  0.80429195902E+02 0.  0.
         11    1    3    3    0    0 -0.14969605153E+02  0.56026683182E-01  0.67185693860E+01  0.16408272061E+02  0.00000000000E+00 0. -1.
        -11    1    3    3    0    0 -0.45505608370E+02  0.15010449776E+03  0.35883513368E+03  0.39161814795E+03  0.00000000000E+00 0.  1.
          4    1    6    6  502    0  0.17922462683E+03 -0.15085696294E+03 -0.13421170965E+03  0.26998532022E+03  0.00000000000E+00 0. -1.
          1    1    5    5  503    0 -0.17944198441E+03 -0.26767397642E+01  0.65475232849E+03  0.67890146735E+03  0.00000000000E+00 0. -1.
         -2    1    5    5    0  503  0.26790926589E-02  0.53045765316E+01  0.67718818894E+00  0.53476278105E+01  0.00000000000E+00 0.  1.
         -3    1    6    6    0  502  0.60689892015E+02 -0.19313982759E+01 -0.46338360589E+02  0.76382176940E+02  0.00000000000E+00 0.  1.
<mgrwt>
<rscale>  0 0.11676326E+04</rscale>
<asrwt>0</asrwt>
<pdfrwt beam="1">  1        2 0.17531355E+00 0.11676326E+04</pdfrwt>
<pdfrwt beam="2">  1       -2 0.46016144E-01 0.11676326E+04</pdfrwt>
<totfact> 0.91181190E+01</totfact>
</mgrwt>
</event>
<event>
12    1  0.1442183E-007  0.1672013E+04  0.7818608E-02  0.8777489E-01
         -1   -1    0    0    0  501 -0.00000000000E+00  0.00000000000E+00  0.21433103181E+04  0.21433103181E+04  0.00000000000E+00 0.  1.
          1   -1    0    0  501    0  0.00000000000E+00 -0.00000000000E+00 -0.32608746333E+03  0.32608746333E+03  0.00000000000E+00 0. -1.
         23    2    1    2    0    0 -0.38307004170E+03 -0.18921628993E+03  0.51990323944E+02  0.43847041202E+03  0.83712885532E+02 0.  0.
        254    2    1    2    0    0  0.38307004170E+03  0.18921628993E+03  0.17652325308E+04  0.20309273694E+04  0.90888647844E+03 0.  0.
        -24    2    4    4    0    0  0.40734210770E+02  0.38746257402E+03  0.14884829180E+04  0.15406554736E+04  0.79065600047E+02 0.  0.
         24    2    4    4    0    0  0.34233583093E+03 -0.19824628409E+03  0.27674961283E+03  0.49027189576E+03  0.85327447375E+02 0.  0.
         13    1    3    3    0    0 -0.30585078998E+03 -0.17708460173E+03  0.64661262215E+02  0.35928364941E+03  0.00000000000E+00 0. -1.
        -13    1    3    3    0    0 -0.77219251720E+02 -0.12131688194E+02 -0.12670938271E+02  0.79186762601E+02  0.00000000000E+00 0.  1.
          2    1    6    6  502    0  0.10980817765E+03 -0.56005068918E+02  0.13580628788E+03  0.18340597442E+03  0.00000000000E+00 0. -1.
          1    1    5    5  503    0 -0.20387621566E+02  0.56079309108E+02  0.18921876240E+03  0.19840434488E+03  0.00000000000E+00 0. -1.
         -2    1    5    5    0  503  0.61121832336E+02  0.33138326491E+03  0.12992641556E+04  0.13422511288E+04  0.00000000000E+00 0.  1.
         -1    1    6    6    0  502  0.23252765329E+03 -0.14224121517E+03  0.14094332495E+03  0.30686592135E+03  0.00000000000E+00 0.  1.
<mgrwt>
<rscale>  0 0.16720127E+04</rscale>
<asrwt>0</asrwt>
<pdfrwt beam="1">  1        1 0.50167303E-01 0.16720127E+04</pdfrwt>
<pdfrwt beam="2">  1       -1 0.32974004E+00 0.16720127E+04</pdfrwt>
<totfact> 0.15888554E+00</totfact>
</mgrwt>
</event>
<event>
12    1  0.1442183E-007  0.1889853E+04  0.7818608E-02  0.8659924E-01
          2   -1    0    0  501    0  0.00000000000E+00  0.00000000000E+00  0.10802473712E+04  0.10802473712E+04  0.00000000000E+00 0. -1.
         -2   -1    0    0    0  501 -0.00000000000E+00 -0.00000000000E+00 -0.82655669057E+03  0.82655669057E+03  0.00000000000E+00 0.  1.
         23    2    1    2    0    0  0.14838335909E+03 -0.40875914712E+03  0.68343414020E+03  0.81521340388E+03  0.91591529447E+02 0.  0.
        254    2    1    2    0    0 -0.14838335909E+03  0.40875914712E+03 -0.42974345959E+03  0.10915906579E+04  0.90431690335E+03 0.  0.
        -24    2    4    4    0    0 -0.21049311773E+03 -0.17723572116E+03 -0.40620006916E+03  0.49651106928E+03  0.76189843553E+02 0.  0.
         24    2    4    4    0    0  0.62109758640E+02  0.58599486828E+03 -0.23543390426E+02  0.59507958859E+03  0.79484701373E+02 0.  0.
         11    1    3    3    0    0  0.34646944947E+02 -0.19164630586E+03  0.24561853911E+03  0.31346001994E+03  0.00000000000E+00 0.  1.
        -11    1    3    3    0    0  0.11373641415E+03 -0.21711284126E+03  0.43781560108E+03  0.50175338394E+03  0.00000000000E+00 0. -1.
          4    1    6    6  502    0  0.58041041992E+02  0.56841001868E+03 -0.37005419451E+02  0.57256275897E+03  0.00000000000E+00 0. -1.
          1    1    5    5  503    0 -0.19133685035E+03 -0.18093596760E+03 -0.39255797171E+03  0.47270432178E+03  0.00000000000E+00 0. -1.
         -2    1    5    5    0  503 -0.19156267384E+02  0.37002464349E+01 -0.13642097448E+02  0.23806747500E+02  0.00000000000E+00 0.  1.
         -3    1    6    6    0  502  0.40687166477E+01  0.17584849606E+02  0.13462029025E+02  0.22516829623E+02  0.00000000000E+00 0.  1.
<mgrwt>
<rscale>  0 0.18898526E+04</rscale>
<asrwt>0</asrwt>
<pdfrwt beam="1">  1        2 0.16619190E+00 0.18898526E+04</pdfrwt>
<pdfrwt beam="2">  1       -2 0.12716257E+00 0.18898526E+04</pdfrwt>
<totfact> 0.96467139E+00</totfact>
</mgrwt>
</event>
<event>
12    1  0.1442183E-007  0.1905629E+04  0.7818608E-02  0.8652060E-01
          2   -1    0    0  501    0  0.00000000000E+00  0.00000000000E+00  0.76123113368E+03  0.76123113368E+03  0.00000000000E+00 0. -1.
         -2   -1    0    0    0  501 -0.00000000000E+00 -0.00000000000E+00 -0.11926145613E+04  0.11926145613E+04  0.00000000000E+00 0.  1.
         23    2    1    2    0    0  0.19361063637E+03 -0.55905490267E+03  0.28202930704E+03  0.66198884270E+03  0.93065756941E+02 0.  0.
        254    2    1    2    0    0 -0.19361063637E+03  0.55905490267E+03 -0.71341273470E+03  0.12918568523E+04  0.89994940644E+03 0.  0.
        -24    2    4    4    0    0 -0.44442138112E+03  0.51123572591E+03 -0.75901639190E+03  0.10204666930E+04  0.79837691384E+02 0.  0.
         24    2    4    4    0    0  0.25081074475E+03  0.47819176762E+02  0.45603657196E+02  0.27139015930E+03  0.79876289762E+02 0.  0.
         13    1    3    3    0    0  0.76277738740E+02 -0.19696014065E+03  0.15020235267E+03  0.25917626663E+03  0.00000000000E+00 0. -1.
        -13    1    3    3    0    0  0.11733289763E+03 -0.36209476201E+03  0.13182695436E+03  0.40281257607E+03  0.00000000000E+00 0.  1.
          2    1    6    6  502    0  0.88586441083E+01  0.35943719820E+01 -0.15263335713E+02  0.18010122222E+02  0.00000000000E+00 0. -1.
          1    1    5    5  503    0 -0.10116931182E+03  0.79798338080E+02 -0.11514045557E+03  0.17280141470E+03  0.00000000000E+00 0. -1.
         -2    1    5    5    0  503 -0.34325206931E+03  0.43143738783E+03 -0.64387593633E+03  0.84766527833E+03  0.00000000000E+00 0.  1.
         -1    1    6    6    0  502  0.24195210065E+03  0.44224804780E+02  0.60866992909E+02  0.25338003708E+03  0.00000000000E+00 0.  1.
<mgrwt>
<rscale>  0 0.19056289E+04</rscale>
<asrwt>0</asrwt>
<pdfrwt beam="1">  1        2 0.11711248E+00 0.19056289E+04</pdfrwt>
<pdfrwt beam="2">  1       -2 0.18347916E+00 0.19056289E+04</pdfrwt>
<totfact> 0.59051704E+00</totfact>
</mgrwt>
</event>
<event>
12    1  0.1442183E-007  0.1493836E+04  0.7818608E-02  0.8888563E-01
         -1   -1    0    0    0  501 -0.00000000000E+00  0.00000000000E+00  0.13991450562E+04  0.13991450562E+04  0.00000000000E+00 0. -1.
          1   -1    0    0  501    0  0.00000000000E+00 -0.00000000000E+00 -0.39873360682E+03  0.39873360682E+03  0.00000000000E+00 0.  1.
         23    2    1    2    0    0  0.65861570851E+01  0.27649701553E+03 -0.12490282426E+03  0.32526240265E+03  0.11705100600E+03 0.  0.
        254    2    1    2    0    0 -0.65861570851E+01 -0.27649701553E+03  0.11253142737E+04  0.14726162604E+04  0.90872023132E+03 0.  0.
        -24    2    4    4    0    0  0.20555712935E+03  0.21453061615E+03  0.12053814434E+03  0.33157838463E+03  0.84484686287E+02 0.  0.
         24    2    4    4    0    0 -0.21214328644E+03 -0.49102763169E+03  0.10047761293E+04  0.11410378758E+04  0.79243011149E+02 0.  0.
         13    1    3    3    0    0 -0.11722027408E+01  0.23974817091E+03 -0.55107292015E+02  0.24600279093E+03  0.00000000000E+00 0. -1.
        -13    1    3    3    0    0  0.77583598260E+01  0.36748844624E+02 -0.69795532244E+02  0.79259611718E+02  0.00000000000E+00 0.  1.
          2    1    6    6  502    0 -0.49960428619E+01 -0.12472330637E+02  0.64100453180E+02  0.65493416262E+02  0.00000000000E+00 0. -1.
          3    1    5    5  503    0  0.57320704392E+01  0.39145274658E+02 -0.22076393890E+00  0.39563340308E+02  0.00000000000E+00 0. -1.
         -4    1    5    5    0  503  0.19982505891E+03  0.17538534150E+03  0.12075890828E+03  0.29201504432E+03  0.00000000000E+00 0.  1.
         -1    1    6    6    0  502 -0.20714724357E+03 -0.47855530105E+03  0.94067567614E+03  0.10755444595E+04  0.00000000000E+00 0.  1.
<mgrwt>
<rscale>  0 0.14938355E+04</rscale>
<asrwt>0</asrwt>
<pdfrwt beam="1">  1        1 0.61343632E-01 0.14938355E+04</pdfrwt>
<pdfrwt beam="2">  1       -1 0.21525308E+00 0.14938355E+04</pdfrwt>
<totfact> 0.69067066E+00</totfact>
</mgrwt>
</event>
<event>
12    1  0.1442183E-007  0.2232212E+04  0.7818608E-02  0.8505139E-01
         -2   -1    0    0    0  501 -0.00000000000E+00  0.00000000000E+00  0.63320960795E+03  0.63320960795E+03  0.00000000000E+00 0.  1.
          2   -1    0    0  501    0  0.00000000000E+00 -0.00000000000E+00 -0.19672680905E+04  0.19672680905E+04  0.00000000000E+00 0. -1.
         23    2    1    2    0    0  0.61945883253E+03 -0.33440680843E+03  0.14954679930E+03  0.72528220126E+03  0.90071458119E+02 0.  0.
        254    2    1    2    0    0 -0.61945883253E+03  0.33440680843E+03 -0.14836052819E+04  0.18751954972E+04  0.90538188716E+03 0.  0.
        -24    2    4    4    0    0 -0.59225687170E+03 -0.10698920457E+03 -0.47371623463E+03  0.76984797942E+03  0.77742835576E+02 0.  0.
         24    2    4    4    0    0 -0.27201960825E+02  0.44139601300E+03 -0.10098890472E+04  0.11053475178E+04  0.79667185038E+02 0.  0.
         11    1    3    3    0    0  0.17572444533E+03 -0.82775975677E+02  0.19939541141E+01  0.19425477777E+03  0.00000000000E+00 0. -1.
        -11    1    3    3    0    0  0.44373438720E+03 -0.25163083275E+03  0.14755284518E+03  0.53102742349E+03  0.00000000000E+00 0.  1.
          2    1    6    6  502    0 -0.53274954508E+02  0.25179382917E+03 -0.55081007439E+03  0.60797211386E+03  0.00000000000E+00 0. -1.
          1    1    5    5  503    0 -0.59940952233E+02 -0.35186580967E+02 -0.60712238155E+02  0.92287534892E+02  0.00000000000E+00 0. -1.
         -2    1    5    5    0  503 -0.53231591947E+03 -0.71802623605E+02 -0.41300399648E+03  0.67756044453E+03  0.00000000000E+00 0.  1.
         -1    1    6    6    0  502  0.26072993682E+02  0.18960218383E+03 -0.45907897284E+03  0.49737540391E+03  0.00000000000E+00 0.  1.
<mgrwt>
<rscale>  0 0.22322124E+04</rscale>
<asrwt>0</asrwt>
<pdfrwt beam="1">  1        2 0.30265662E+00 0.22322124E+04</pdfrwt>
<pdfrwt beam="2">  1       -2 0.97416864E-01 0.22322124E+04</pdfrwt>
<totfact> 0.55805582E+00</totfact>
</mgrwt>
</event>
<event>
12    1  0.1442183E-007  0.1754778E+04  0.7818608E-02  0.8730725E-01
         -1   -1    0    0    0  501 -0.00000000000E+00  0.00000000000E+00  0.86188448134E+03  0.86188448134E+03  0.00000000000E+00 0.  1.
          1   -1    0    0  501    0  0.00000000000E+00 -0.00000000000E+00 -0.89317223613E+03  0.89317223613E+03  0.00000000000E+00 0. -1.
         23    2    1    2    0    0 -0.42041421117E+03 -0.49092017626E+03 -0.21048781327E+02  0.65334096355E+03  0.93062532964E+02 0.  0.
        254    2    1    2    0    0  0.42041421117E+03  0.49092017626E+03 -0.10238973454E+02  0.11017157539E+04  0.89214462810E+03 0.  0.
        -24    2    4    4    0    0  0.40979590806E+03 -0.16947502764E+02 -0.29783695300E+03  0.51239047377E+03  0.74948268341E+02 0.  0.
         24    2    4    4    0    0  0.10618303109E+02  0.50786767903E+03  0.28759797955E+03  0.58932528015E+03  0.80928117584E+02 0.  0.
         13    1    3    3    0    0  0.37754399703E+01 -0.36875360827E+01 -0.47845754889E+01  0.71234845364E+01  0.00000000000E+00 0. -1.
        -13    1    3    3    0    0 -0.42418965114E+03 -0.48723264018E+03 -0.16264205839E+02  0.64621747901E+03  0.00000000000E+00 0.  1.
          4    1    6    6  502    0  0.15709819743E+02  0.22768688951E+03  0.17381330427E+03  0.28687834152E+03  0.00000000000E+00 0. -1.
          3    1    5    5  503    0  0.39608682732E+03 -0.13230186860E+02 -0.26536272164E+03  0.47694568523E+03  0.00000000000E+00 0. -1.
         -4    1    5    5    0  503  0.13709080737E+02 -0.37173159036E+01 -0.32474231368E+02  0.35444788546E+02  0.00000000000E+00 0.  1.
         -3    1    6    6    0  502 -0.50915166342E+01  0.28018078952E+03  0.11378467528E+03  0.30244693863E+03  0.00000000000E+00 0.  1.
<mgrwt>
<rscale>  0 0.17547778E+04</rscale>
<asrwt>0</asrwt>
<pdfrwt beam="1">  1        1 0.13741111E+00 0.17547778E+04</pdfrwt>
<pdfrwt beam="2">  1       -1 0.13259761E+00 0.17547778E+04</pdfrwt>
<totfact> 0.84227143E+00</totfact>
</mgrwt>
</event>
<event>
12    1  0.1442183E-007  0.1781114E+04  0.7818608E-02  0.8716408E-01
          2   -1    0    0  501    0  0.00000000000E+00  0.00000000000E+00  0.29067997906E+04  0.29067997906E+04  0.00000000000E+00 0. -1.
         -2   -1    0    0    0  501 -0.00000000000E+00 -0.00000000000E+00 -0.27284010258E+03  0.27284010258E+03  0.00000000000E+00 0.  1.
         23    2    1    2    0    0 -0.28915922869E+03 -0.37764775920E+03  0.18323459137E+04  0.18959886259E+04  0.10512103754E+03 0.  0.
        254    2    1    2    0    0  0.28915922869E+03  0.37764775920E+03  0.80161377429E+03  0.12836512672E+04  0.88257863287E+03 0.  0.
        -24    2    4    4    0    0 -0.18954610885E+03  0.32924829953E+03  0.67689400513E+03  0.78028803591E+03  0.79572323560E+02 0.  0.
         24    2    4    4    0    0  0.47870533754E+03  0.48399459670E+02  0.12471976916E+03  0.50336323133E+03  0.79487193659E+02 0.  0.
         13    1    3    3    0    0 -0.11842506039E+03 -0.23935517746E+03  0.10409036896E+04  0.10746142968E+04  0.00000000000E+00 0. -1.
        -13    1    3    3    0    0 -0.17073416829E+03 -0.13829258173E+03  0.79144222416E+03  0.82137432914E+03  0.00000000000E+00 0.  1.
          4    1    6    6  502    0  0.10414693286E+02  0.14071182514E+02  0.93660589383E+01  0.19854144999E+02  0.00000000000E+00 0. -1.
          3    1    5    5  503    0 -0.98197683131E+02  0.23095462609E+03  0.39328395733E+03  0.46653520272E+03  0.00000000000E+00 0. -1.
         -4    1    5    5    0  503 -0.91348425718E+02  0.98293673435E+02  0.28361004780E+03  0.31375283318E+03  0.00000000000E+00 0.  1.
         -3    1    6    6    0  502  0.46829064425E+03  0.34328277156E+02  0.11535371022E+03  0.48350908633E+03  0.00000000000E+00 0.  1.
<mgrwt>
<rscale>  0 0.17811138E+04</rscale>
<asrwt>0</asrwt>
<pdfrwt beam="1">  1        2 0.44719995E+00 0.17811138E+04</pdfrwt>
<pdfrwt beam="2">  1       -2 0.41975402E-01 0.17811138E+04</pdfrwt>
<totfact> 0.10153444E+01</totfact>
</mgrwt>
</event>
<event>
12    1  0.1442183E-007  0.1576248E+04  0.7818608E-02  0.8835274E-01
          1   -1    0    0  501    0  0.00000000000E+00  0.00000000000E+00  0.10792864857E+04  0.10792864857E+04  0.00000000000E+00 0. -1.
         -1   -1    0    0    0  501 -0.00000000000E+00 -0.00000000000E+00 -0.57550915523E+03  0.57550915523E+03  0.00000000000E+00 0.  1.
         23    2    1    2    0    0  0.16752193102E+03  0.48160773514E+02  0.68625057878E+03  0.71328064755E+03  0.86292339272E+02 0.  0.
        254    2    1    2    0    0 -0.16752193102E+03 -0.48160773514E+02 -0.18247324832E+03  0.94151499336E+03  0.90706721851E+03 0.  0.
        -24    2    4    4    0    0  0.34770207178E+03  0.51802543073E+02 -0.19575475192E+03  0.41030542301E+03  0.80314276807E+02 0.  0.
         24    2    4    4    0    0 -0.51522400280E+03 -0.99963316587E+02  0.13281503599E+02  0.53120957036E+03  0.80986243139E+02 0.  0.
         13    1    3    3    0    0  0.15364534573E+03  0.58698819774E+02  0.50310631431E+03  0.52930936814E+03  0.00000000000E+00 0. -1.
        -13    1    3    3    0    0  0.13876585291E+02 -0.10538046260E+02  0.18314426447E+03  0.18397127940E+03  0.00000000000E+00 0.  1.
          2    1    6    6  502    0 -0.15295299180E+03 -0.11854551121E+02  0.36369097220E+02  0.15766375397E+03  0.00000000000E+00 0. -1.
          3    1    5    5  503    0  0.22596703375E+00  0.95468470421E+01 -0.10776004085E+02  0.14398458722E+02  0.00000000000E+00 0. -1.
         -4    1    5    5    0  503  0.34747610474E+03  0.42255696031E+02 -0.18497874784E+03  0.39590696428E+03  0.00000000000E+00 0.  1.
         -1    1    6    6    0  502 -0.36227101100E+03 -0.88108765466E+02 -0.23087593621E+02  0.37354581639E+03  0.00000000000E+00 0.  1.
<mgrwt>
<rscale>  0 0.15762478E+04</rscale>
<asrwt>0</asrwt>
<pdfrwt beam="1">  1        1 0.16604407E+00 0.15762478E+04</pdfrwt>
<pdfrwt beam="2">  1       -1 0.88539870E-01 0.15762478E+04</pdfrwt>
<totfact> 0.15828579E+01</totfact>
</mgrwt>
</event>
<event>
12    1  0.1442183E-007  0.1519057E+04  0.7818608E-02  0.8871878E-01
         -2   -1    0    0    0  501 -0.00000000000E+00  0.00000000000E+00  0.18636070684E+03  0.18636070684E+03  0.00000000000E+00 0.  1.
          2   -1    0    0  501    0  0.00000000000E+00 -0.00000000000E+00 -0.30955223810E+04  0.30955223810E+04  0.00000000000E+00 0. -1.
         23    2    1    2    0    0 -0.20886721271E+03  0.43538171677E+03 -0.78102622118E+03  0.92347923439E+03  0.98128417518E+02 0.  0.
        254    2    1    2    0    0  0.20886721271E+03 -0.43538171677E+03 -0.21281354530E+04  0.23584038534E+04  0.89438553091E+03 0.  0.
        -24    2    4    4    0    0 -0.17024129885E+03  0.12198229942E+03 -0.11246643306E+04  0.11470263786E+04  0.83293910388E+02 0.  0.
         24    2    4    4    0    0  0.37910851156E+03 -0.55736401619E+03 -0.10034711224E+04  0.12113774749E+04  0.78122871295E+02 0.  0.
         13    1    3    3    0    0 -0.40772945092E+02  0.29843797058E+02 -0.11717858087E+03  0.12760840524E+03  0.00000000000E+00 0.  1.
        -13    1    3    3    0    0 -0.16809426762E+03  0.40553791971E+03 -0.66384764031E+03  0.79587082914E+03  0.00000000000E+00 0. -1.
          2    1    6    6  502    0  0.16832002799E+03 -0.26308135937E+03 -0.53299691443E+03  0.61776139752E+03  0.00000000000E+00 0. -1.
          3    1    5    5  503    0 -0.17534540692E+03  0.12349362635E+03 -0.11185246811E+04  0.11389004126E+04  0.00000000000E+00 0. -1.
         -4    1    5    5    0  503  0.51041080681E+01 -0.15113269300E+01 -0.61396494340E+01  0.81259659999E+01  0.00000000000E+00 0.  1.
         -1    1    6    6    0  502  0.21078848357E+03 -0.29428265682E+03 -0.47047420796E+03  0.59361607734E+03  0.00000000000E+00 0.  1.
<mgrwt>
<rscale>  0 0.15190573E+04</rscale>
<asrwt>0</asrwt>
<pdfrwt beam="1">  1        2 0.47623417E+00 0.15190573E+04</pdfrwt>
<pdfrwt beam="2">  1       -2 0.28670881E-01 0.15190573E+04</pdfrwt>
<totfact> 0.16439118E+01</totfact>
</mgrwt>
</event>
<event>
12    1  0.1442183E-007  0.1896794E+04  0.7818608E-02  0.8656454E-01
          2   -1    0    0  501    0  0.00000000000E+00  0.00000000000E+00  0.10674061820E+04  0.10674061820E+04  0.00000000000E+00 0. -1.
         -2   -1    0    0    0  501 -0.00000000000E+00 -0.00000000000E+00 -0.84265675366E+03  0.84265675366E+03  0.00000000000E+00 0.  1.
         23    2    1    2    0    0  0.71248438360E+03 -0.13287786748E+03  0.23206834332E+02  0.73072189812E+03  0.90141059917E+02 0.  0.
        254    2    1    2    0    0 -0.71248438360E+03  0.13287786748E+03  0.20154259403E+03  0.11793410376E+04  0.90825951198E+03 0.  0.
        -24    2    4    4    0    0  0.18045065317E+03 -0.11933437291E+03  0.41333992520E+02  0.23432397284E+03  0.79975587039E+02 0.  0.
         24    2    4    4    0    0 -0.89293503677E+03  0.25221224040E+03  0.16020860150E+03  0.94501706471E+03  0.80289865445E+02 0.  0.
         11    1    3    3    0    0  0.14568033782E+03 -0.12160788043E+02  0.37896577514E+02  0.15101919143E+03  0.00000000000E+00 0. -1.
        -11    1    3    3    0    0  0.56680404578E+03 -0.12071707944E+03 -0.14689743182E+02  0.57970270668E+03  0.00000000000E+00 0.  1.
          2    1    6    6  502    0 -0.20882292442E+03  0.50192145100E+02  0.70689586253E+02  0.22610458376E+03  0.00000000000E+00 0. -1.
          3    1    5    5  503    0  0.14712394312E+02 -0.20849997741E+01  0.26976466191E+02  0.30798238564E+02  0.00000000000E+00 0. -1.
         -4    1    5    5    0  503  0.16573825886E+03 -0.11724937314E+03  0.14357526329E+02  0.20352573428E+03  0.00000000000E+00 0.  1.
         -1    1    6    6    0  502 -0.68411211236E+03  0.20202009530E+03  0.89519015252E+02  0.71891248095E+03  0.00000000000E+00 0.  1.
<mgrwt>
<rscale>  0 0.18967942E+04</rscale>
<asrwt>0</asrwt>
<pdfrwt beam="1">  1        2 0.16421634E+00 0.18967942E+04</pdfrwt>
<pdfrwt beam="2">  1       -2 0.12963950E+00 0.18967942E+04</pdfrwt>
<totfact> 0.93533654E+00</totfact>
</mgrwt>
</event>
<event>
12    1  0.1442183E-007  0.1373312E+04  0.7818608E-02  0.8973366E-01
         -1   -1    0    0    0  501 -0.00000000000E+00  0.00000000000E+00  0.36674230963E+03  0.36674230963E+03  0.00000000000E+00 0.  1.
          1   -1    0    0  501    0  0.00000000000E+00 -0.00000000000E+00 -0.12856342932E+04  0.12856342932E+04  0.00000000000E+00 0. -1.
         23    2    1    2    0    0 -0.17659484290E+03 -0.29646678746E+03 -0.61677187056E+02  0.37122121358E+03  0.12215899231E+03 0.  0.
        254    2    1    2    0    0  0.17659484290E+03  0.29646678746E+03 -0.85721479648E+03  0.12811553892E+04  0.88739147472E+03 0.  0.
        -24    2    4    4    0    0 -0.17592280051E+02 -0.25303273239E+03 -0.31758796356E+02  0.26747655355E+03  0.78740291952E+02 0.  0.
         24    2    4    4    0    0  0.19418712296E+03  0.54949951984E+03 -0.82545600012E+03  0.10136788357E+04  0.80677213102E+02 0.  0.
         11    1    3    3    0    0 -0.10677617311E+03 -0.19010876488E+03 -0.97791566820E+02  0.23896795637E+03  0.00000000000E+00 0. -1.
        -11    1    3    3    0    0 -0.69818669792E+02 -0.10635802258E+03  0.36114379764E+02  0.13225325721E+03  0.00000000000E+00 0.  1.
          4    1    6    6  502    0  0.87891784586E+02  0.20116746504E+03 -0.25046957065E+03  0.33305903473E+03  0.00000000000E+00 0. -1.
          1    1    5    5  503    0 -0.20089936527E+02 -0.76432044459E+02 -0.43969500501E+02  0.90436607324E+02  0.00000000000E+00 0. -1.
         -2    1    5    5    0  503  0.24976564757E+01 -0.17660068793E+03  0.12210704145E+02  0.17703994623E+03  0.00000000000E+00 0.  1.
         -3    1    6    6    0  502  0.10629533837E+03  0.34833205480E+03 -0.57498642947E+03  0.68061980094E+03  0.00000000000E+00 0.  1.
<mgrwt>
<rscale>  0 0.13733120E+04</rscale>
<asrwt>0</asrwt>
<pdfrwt beam="1">  1        1 0.19778989E+00 0.13733120E+04</pdfrwt>
<pdfrwt beam="2">  1       -1 0.56421894E-01 0.13733120E+04</pdfrwt>
<totfact> 0.28767903E+01</totfact>
</mgrwt>
</event>
<event>
12    1  0.1442183E-007  0.1622705E+04  0.7818608E-02  0.8806720E-01
          2   -1    0    0  501    0  0.00000000000E+00  0.00000000000E+00  0.20598438347E+04  0.20598438347E+04  0.00000000000E+00 0. -1.
         -2   -1    0    0    0  501 -0.00000000000E+00 -0.00000000000E+00 -0.31958375190E+03  0.31958375190E+03  0.00000000000E+00 0.  1.
         23    2    1    2    0    0  0.95972408616E+02 -0.50016734189E+03  0.96408116877E+03  0.10941142644E+04  0.90859510147E+02 0.  0.
        254    2    1    2    0    0 -0.95972408616E+02  0.50016734189E+03  0.77617891407E+03  0.12853133222E+04  0.88893113145E+03 0.  0.
        -24    2    4    4    0    0  0.96281821385E+01  0.65192542889E+02 -0.19094329932E+03  0.21680054109E+03  0.78742374379E+02 0.  0.
         24    2    4    4    0    0 -0.10560059075E+03  0.43497479900E+03  0.96712221339E+03  0.10685127811E+04  0.77715038652E+02 0.  0.
         11    1    3    3    0    0  0.15454180891E+02 -0.16954956014E+03  0.40918559541E+03  0.44319153482E+03  0.00000000000E+00 0. -1.
        -11    1    3    3    0    0  0.80518227724E+02 -0.33061778175E+03  0.55489557336E+03  0.65092272963E+03  0.00000000000E+00 0.  1.
          4    1    6    6  502    0  0.47853710186E+01  0.39830745336E+02  0.13354887427E+03  0.13944421777E+03  0.00000000000E+00 0. -1.
          1    1    5    5  503    0 -0.15528504890E+02  0.47392939719E+02 -0.43520054457E+02  0.66190787420E+02  0.00000000000E+00 0. -1.
         -2    1    5    5    0  503  0.25156687029E+02  0.17799603171E+02 -0.14742324486E+03  0.15060975367E+03  0.00000000000E+00 0.  1.
         -3    1    6    6    0  502 -0.11038596177E+03  0.39514405366E+03  0.83357333911E+03  0.92906856334E+03  0.00000000000E+00 0.  1.
<mgrwt>
<rscale>  0 0.16227047E+04</rscale>
<asrwt>0</asrwt>
<pdfrwt beam="1">  1        2 0.31689904E+00 0.16227047E+04</pdfrwt>
<pdfrwt beam="2">  1       -2 0.49166733E-01 0.16227047E+04</pdfrwt>
<totfact> 0.23203083E+01</totfact>
</mgrwt>
</event>
<event>
12    1  0.1442183E-007  0.1922543E+04  0.7818608E-02  0.8643716E-01
          1   -1    0    0  501    0  0.00000000000E+00  0.00000000000E+00  0.11110038946E+04  0.11110038946E+04  0.00000000000E+00 0. -1.
         -1   -1    0    0    0  501 -0.00000000000E+00 -0.00000000000E+00 -0.83171896516E+03  0.83171896516E+03  0.00000000000E+00 0.  1.
         23    2    1    2    0    0  0.56908847184E+03  0.42859778432E+03  0.34568406822E+03  0.79731179009E+03  0.93010032276E+02 0.  0.
        254    2    1    2    0    0 -0.56908847184E+03 -0.42859778432E+03 -0.66399138772E+02  0.11454110697E+04  0.89442714816E+03 0.  0.
        -24    2    4    4    0    0 -0.32833127194E+03 -0.68325363446E+03 -0.14821236432E+03  0.77669213573E+03  0.81528005264E+02 0.  0.
         24    2    4    4    0    0 -0.24075719990E+03  0.25465585014E+03  0.81813225549E+02  0.36871893393E+03  0.80290827923E+02 0.  0.
         13    1    3    3    0    0  0.52719352590E+03  0.39269241060E+03  0.28864489160E+03  0.71795279548E+03  0.00000000000E+00 0. -1.
        -13    1    3    3    0    0  0.41894945940E+02  0.35905373717E+02  0.57039176614E+02  0.79358994612E+02  0.00000000000E+00 0.  1.
          2    1    6    6  502    0 -0.20262212084E+03  0.22231435468E+03  0.97677876167E+02  0.31625996212E+03  0.00000000000E+00 0. -1.
          3    1    5    5  503    0 -0.32587351899E+03 -0.68554154473E+03 -0.14730360346E+03  0.77321349673E+03  0.00000000000E+00 0. -1.
         -4    1    5    5    0  503 -0.24577529478E+01  0.22879102791E+01 -0.90876085703E+00  0.34786390000E+01  0.00000000000E+00 0.  1.
         -1    1    6    6    0  502 -0.38135079063E+02  0.32341495459E+02 -0.15864650618E+02  0.52458971805E+02  0.00000000000E+00 0.  1.
<mgrwt>
<rscale>  0 0.19225431E+04</rscale>
<asrwt>0</asrwt>
<pdfrwt beam="1">  1        1 0.17092368E+00 0.19225431E+04</pdfrwt>
<pdfrwt beam="2">  1       -1 0.12795676E+00 0.19225431E+04</pdfrwt>
<totfact> 0.61318422E+00</totfact>
</mgrwt>
</event>
<event>
12    1  0.1442183E-007  0.2258043E+04  0.7818608E-02  0.8494650E-01
         -1   -1    0    0    0  501 -0.00000000000E+00  0.00000000000E+00  0.99717135798E+03  0.99717135798E+03  0.00000000000E+00 0.  1.
          1   -1    0    0  501    0  0.00000000000E+00 -0.00000000000E+00 -0.12783055772E+04  0.12783055772E+04  0.00000000000E+00 0. -1.
         23    2    1    2    0    0 -0.51119540542E+03  0.77679060528E+03 -0.32335643998E+03  0.98903145826E+03  0.94336902552E+02 0.  0.
        254    2    1    2    0    0  0.51119540542E+03 -0.77679060528E+03  0.42222220756E+02  0.12864454769E+04  0.88793854641E+03 0.  0.
        -24    2    4    4    0    0 -0.20340356352E+03 -0.43511132459E+03 -0.15670608943E+02  0.48730655716E+03  0.80791325180E+02 0.  0.
         24    2    4    4    0    0  0.71459896895E+03 -0.34167928069E+03  0.57892829699E+02  0.79913891977E+03  0.88741287373E+02 0.  0.
         13    1    3    3    0    0 -0.35705629975E+03  0.58568811033E+03 -0.20144736804E+03  0.71491314568E+03  0.00000000000E+00 0. -1.
        -13    1    3    3    0    0 -0.15413910568E+03  0.19110249495E+03 -0.12190907194E+03  0.27411831259E+03  0.00000000000E+00 0.  1.
          4    1    6    6  502    0  0.55364940815E+03 -0.26805874104E+03  0.77207703236E+01  0.61517702012E+03  0.00000000000E+00 0. -1.
          3    1    5    5  503    0 -0.14839015939E+03 -0.37643632395E+03 -0.29469732801E+02  0.40569990208E+03  0.00000000000E+00 0. -1.
         -4    1    5    5    0  503 -0.55013404132E+02 -0.58675000635E+02  0.13799123858E+02  0.81606655078E+02  0.00000000000E+00 0.  1.
         -3    1    6    6    0  502  0.16094956080E+03 -0.73620539647E+02  0.50172059375E+02  0.18396189964E+03  0.00000000000E+00 0.  1.
<mgrwt>
<rscale>  0 0.22580431E+04</rscale>
<asrwt>0</asrwt>
<pdfrwt beam="1">  1        1 0.19666240E+00 0.22580431E+04</pdfrwt>
<pdfrwt beam="2">  1       -1 0.15341098E+00 0.22580431E+04</pdfrwt>
<totfact> 0.27920122E+00</totfact>
</mgrwt>
</event>
<event>
12    1  0.1442183E-007  0.1580180E+04  0.7818608E-02  0.8832818E-01
         -2   -1    0    0    0  501 -0.00000000000E+00  0.00000000000E+00  0.54216905400E+03  0.54216905400E+03  0.00000000000E+00 0.  1.
          2   -1    0    0  501    0  0.00000000000E+00 -0.00000000000E+00 -0.11513791842E+04  0.11513791842E+04  0.00000000000E+00 0. -1.
         23    2    1    2    0    0  0.24660359601E+03  0.45066575115E+03 -0.82138312019E+02  0.52955832302E+03  0.98855259658E+02 0.  0.
        254    2    1    2    0    0 -0.24660359601E+03 -0.45066575115E+03 -0.52707181820E+03  0.11639899152E+04  0.90175100129E+03 0.  0.
        -24    2    4    4    0    0 -0.27772960982E+03 -0.55231657144E+03 -0.34243233246E+01  0.62341798512E+03  0.80317662586E+02 0.  0.
         24    2    4    4    0    0  0.31126013816E+02  0.10165082029E+03 -0.52364749488E+03  0.54057193009E+03  0.81912115722E+02 0.  0.
         11    1    3    3    0    0  0.17442723877E+03  0.31936247434E+03 -0.10322297416E+03  0.37824890487E+03  0.00000000000E+00 0. -1.
        -11    1    3    3    0    0  0.72176357239E+02  0.13130327680E+03  0.21084662141E+02  0.15130941815E+03  0.00000000000E+00 0.  1.
          2    1    6    6  502    0 -0.70321381683E+01  0.18825143716E+02 -0.18682161926E+02  0.27438297640E+02  0.00000000000E+00 0. -1.
          3    1    5    5  503    0 -0.54931145226E+02 -0.18405503579E+03  0.14565548037E+02  0.19262876759E+03  0.00000000000E+00 0. -1.
         -4    1    5    5    0  503 -0.22279846460E+03 -0.36826153565E+03 -0.17989871361E+02  0.43078921753E+03  0.00000000000E+00 0.  1.
         -1    1    6    6    0  502  0.38158151985E+02  0.82825676574E+02 -0.50496533295E+03  0.51313363245E+03  0.00000000000E+00 0.  1.
<mgrwt>
<rscale>  0 0.15801799E+04</rscale>
<asrwt>0</asrwt>
<pdfrwt beam="1">  1        2 0.17713526E+00 0.15801799E+04</pdfrwt>
<pdfrwt beam="2">  1       -2 0.83410625E-01 0.15801799E+04</pdfrwt>
<totfact> 0.24480848E+01</totfact>
</mgrwt>
</event>
<event>
12    1  0.1442183E-007  0.2425875E+04  0.7818608E-02  0.8429879E-01
         -1   -1    0    0    0  501 -0.00000000000E+00  0.00000000000E+00  0.13511703095E+04  0.13511703095E+04  0.00000000000E+00 0.  1.
          1   -1    0    0  501    0  0.00000000000E+00 -0.00000000000E+00 -0.10888466218E+04  0.10888466218E+04  0.00000000000E+00 0. -1.
         23    2    1    2    0    0  0.20375732301E+02  0.10371173944E+04  0.14976130329E+02  0.10416292371E+04  0.93485415527E+02 0.  0.
        254    2    1    2    0    0 -0.20375732301E+02 -0.10371173944E+04  0.24734755731E+03  0.13983876942E+04  0.90458812118E+03 0.  0.
        -24    2    4    4    0    0 -0.32801664974E+03 -0.10965183400E+03 -0.81671164210E+02  0.36427094120E+03  0.80029321701E+02 0.  0.
         24    2    4    4    0    0  0.30764091744E+03 -0.92746556039E+03  0.32901872152E+03  0.10341167530E+04  0.79428206204E+02 0.  0.
         11    1    3    3    0    0 -0.15226905771E+02  0.88820464767E+03  0.17253278951E+02  0.88850269017E+03  0.00000000000E+00 0. -1.
        -11    1    3    3    0    0  0.35602638072E+02  0.14891274672E+03 -0.22771486225E+01  0.15312654695E+03  0.00000000000E+00 0.  1.
          2    1    6    6  502    0  0.10998418266E+02 -0.99800069417E+01  0.11991596054E+02  0.19088324149E+02  0.00000000000E+00 0. -1.
          1    1    5    5  503    0 -0.16697236780E+03 -0.86962565291E+02 -0.16215012422E+02  0.18895815939E+03  0.00000000000E+00 0. -1.
         -2    1    5    5    0  503 -0.16104428194E+03 -0.22689268712E+02 -0.65456151788E+02  0.17531278181E+03  0.00000000000E+00 0.  1.
         -1    1    6    6    0  502  0.29664249918E+03 -0.91748555345E+03  0.31702712546E+03  0.10150284289E+04  0.00000000000E+00 0.  1.
<mgrwt>
<rscale>  0 0.24258749E+04</rscale>
<asrwt>0</asrwt>
<pdfrwt beam="1">  1        1 0.16751486E+00 0.24258749E+04</pdfrwt>
<pdfrwt beam="2">  1       -1 0.20787236E+00 0.24258749E+04</pdfrwt>
<totfact> 0.15362618E+00</totfact>
</mgrwt>
</event>
<event>
12    1  0.1442183E-007  0.2388138E+04  0.7818608E-02  0.8443958E-01
          1   -1    0    0  501    0  0.00000000000E+00  0.00000000000E+00  0.10706243847E+04  0.10706243847E+04  0.00000000000E+00 0. -1.
         -1   -1    0    0    0  501 -0.00000000000E+00 -0.00000000000E+00 -0.13317475109E+04  0.13317475109E+04  0.00000000000E+00 0.  1.
         23    2    1    2    0    0  0.95331535503E+03 -0.28763654611E+03 -0.32334687720E+03  0.10496738762E+04  0.75611470792E+02 0.  0.
        254    2    1    2    0    0 -0.95331535503E+03  0.28763654611E+03  0.62223751087E+02  0.13526980194E+04  0.91344139812E+03 0.  0.
        -24    2    4    4    0    0 -0.58516693547E+02  0.12563200382E+03  0.35884710060E+03  0.39281960254E+03  0.79551208137E+02 0.  0.
         24    2    4    4    0    0 -0.89479866149E+03  0.16200454228E+03 -0.29662334952E+03  0.95987841690E+03  0.80442820942E+02 0.  0.
         11    1    3    3    0    0  0.85748391759E+03 -0.27815673965E+03 -0.30479625876E+03  0.95160422450E+03  0.00000000000E+00 0.  1.
        -11    1    3    3    0    0  0.95831437447E+02 -0.94798064531E+01 -0.18550618440E+02  0.98069651667E+02  0.00000000000E+00 0. -1.
          2    1    6    6  502    0 -0.47916095171E+03  0.56897830355E+02 -0.18581540012E+03  0.51706860635E+03  0.00000000000E+00 0. -1.
          1    1    5    5  503    0 -0.14334868963E+02  0.10925282049E+02  0.57192490138E+01  0.18909258720E+02  0.00000000000E+00 0. -1.
         -2    1    5    5    0  503 -0.44181824584E+02  0.11470672178E+03  0.35312785159E+03  0.37391034382E+03  0.00000000000E+00 0.  1.
         -1    1    6    6    0  502 -0.41563770977E+03  0.10510671193E+03 -0.11080794940E+03  0.44280981056E+03  0.00000000000E+00 0.  1.
<mgrwt>
<rscale>  0 0.23881385E+04</rscale>
<asrwt>0</asrwt>
<pdfrwt beam="1">  1        1 0.16471144E+00 0.23881385E+04</pdfrwt>
<pdfrwt beam="2">  1       -1 0.20488423E+00 0.23881385E+04</pdfrwt>
<totfact> 0.16677065E+00</totfact>
</mgrwt>
</event>
<event>
12    1  0.1442183E-007  0.1069458E+04  0.7818608E-02  0.9235482E-01
         -2   -1    0    0    0  501 -0.00000000000E+00  0.00000000000E+00  0.29457823981E+03  0.29457823981E+03  0.00000000000E+00 0.  1.
          2   -1    0    0  501    0  0.00000000000E+00 -0.00000000000E+00 -0.97065978859E+03  0.97065978859E+03  0.00000000000E+00 0. -1.
         23    2    1    2    0    0  0.35285427926E+02 -0.10633310505E+03 -0.10166704958E+03  0.17645455920E+03  0.90819776700E+02 0.  0.
        254    2    1    2    0    0 -0.35285427926E+02  0.10633310505E+03 -0.57441449920E+03  0.10887834692E+04  0.91812070843E+03 0.  0.
        -24    2    4    4    0    0 -0.70330172400E+02  0.49028161123E+03 -0.18620797549E+03  0.53514940704E+03  0.79931760029E+02 0.  0.
         24    2    4    4    0    0  0.35044744474E+02 -0.38394850618E+03 -0.38820652371E+03  0.55363406215E+03  0.84627301841E+02 0.  0.
         11    1    3    3    0    0  0.98849485783E+01 -0.99634403471E+02 -0.37148036378E+02  0.10679280486E+03  0.00000000000E+00 0.  1.
        -11    1    3    3    0    0  0.25400479348E+02 -0.66987015839E+01 -0.64519013199E+02  0.69661754343E+02  0.00000000000E+00 0. -1.
          2    1    6    6  502    0 -0.23783834582E+02 -0.13389778105E+03 -0.16043295906E+03  0.21031647798E+03  0.00000000000E+00 0. -1.
          1    1    5    5  503    0 -0.35601207704E+02  0.40204629927E+03 -0.12601459007E+03  0.42283371396E+03  0.00000000000E+00 0. -1.
         -2    1    5    5    0  503 -0.34728964696E+02  0.88235311961E+02 -0.60193385416E+02  0.11231569309E+03  0.00000000000E+00 0.  1.
         -1    1    6    6    0  502  0.58828579056E+02 -0.25005072512E+03 -0.22777356465E+03  0.34331758417E+03  0.00000000000E+00 0.  1.
<mgrwt>
<rscale>  0 0.10694583E+04</rscale>
<asrwt>0</asrwt>
<pdfrwt beam="1">  1        2 0.14933228E+00 0.10694583E+04</pdfrwt>
<pdfrwt beam="2">  1       -2 0.45319729E-01 0.10694583E+04</pdfrwt>
<totfact> 0.12079884E+02</totfact>
</mgrwt>
</event>
<event>
12    1  0.1442183E-007  0.1696982E+04  0.7818608E-02  0.8763088E-01
         -1   -1    0    0    0  501 -0.00000000000E+00  0.00000000000E+00  0.40902650660E+03  0.40902650660E+03  0.00000000000E+00 0.  1.
          1   -1    0    0  501    0  0.00000000000E+00 -0.00000000000E+00 -0.17601228026E+04  0.17601228026E+04  0.00000000000E+00 0. -1.
         23    2    1    2    0    0 -0.23792493103E+03  0.15241313536E+03  0.19501353128E+03  0.35507819146E+03  0.90621233891E+02 0.  0.
        254    2    1    2    0    0  0.23792493103E+03 -0.15241313536E+03 -0.15461098273E+04  0.18140711177E+04  0.90584788214E+03 0.  0.
        -24    2    4    4    0    0 -0.29154668130E+03  0.12245887600E+03 -0.73291281910E+03  0.80243436387E+03  0.82122251695E+02 0.  0.
         24    2    4    4    0    0  0.52947161233E+03 -0.27487201136E+03 -0.81319700818E+03  0.10116367539E+04  0.78897001074E+02 0.  0.
         11    1    3    3    0    0 -0.61458669680E+02  0.56308673171E+02  0.10719105085E+03  0.13578569930E+03  0.00000000000E+00 0.  1.
        -11    1    3    3    0    0 -0.17646626135E+03  0.96104462185E+02  0.87822480433E+02  0.21929249216E+03  0.00000000000E+00 0. -1.
          2    1    6    6  502    0  0.10887598268E+03 -0.89151540967E+02 -0.16363183271E+03  0.21581787122E+03  0.00000000000E+00 0. -1.
          1    1    5    5  503    0 -0.60185129530E+02  0.13922060032E+02 -0.78490976813E+02  0.99884468328E+02  0.00000000000E+00 0. -1.
         -2    1    5    5    0  503 -0.23136155177E+03  0.10853681597E+03 -0.65442184229E+03  0.70254989554E+03  0.00000000000E+00 0.  1.
         -1    1    6    6    0  502  0.42059562966E+03 -0.18572047039E+03 -0.64956517547E+03  0.79581888266E+03  0.00000000000E+00 0.  1.
<mgrwt>
<rscale>  0 0.16969819E+04</rscale>
<asrwt>0</asrwt>
<pdfrwt beam="1">  1        1 0.27078812E+00 0.16969819E+04</pdfrwt>
<pdfrwt beam="2">  1       -1 0.62927155E-01 0.16969819E+04</pdfrwt>
<totfact> 0.10573285E+01</totfact>
</mgrwt>
</event>
<event>
12    1  0.1478686E-007  0.1472197E+04  0.7818608E-02  0.8903155E-01
          1   -1    0    0  501    0  0.00000000000E+00  0.00000000000E+00  0.57642088752E+03  0.57642088752E+03  0.00000000000E+00 0. -1.
         -1   -1    0    0    0  501 -0.00000000000E+00 -0.00000000000E+00 -0.94000964210E+03  0.94000964210E+03  0.00000000000E+00 0.  1.
         23    2    1    2    0    0  0.18781441238E+03 -0.38579437878E+02  0.30196339565E+03  0.36920976788E+03  0.91494993638E+02 0.  0.
        254    2    1    2    0    0 -0.18781441238E+03  0.38579437878E+02 -0.66555215023E+03  0.11472207617E+04  0.91454534331E+03 0.  0.
        -24    2    4    4    0    0 -0.17463317282E+03  0.13263830936E+03 -0.87406633794E+03  0.90450942892E+03  0.77818235131E+02 0.  0.
         24    2    4    4    0    0 -0.13181239556E+02 -0.94058871480E+02  0.20851418771E+03  0.24271133282E+03  0.80061277928E+02 0.  0.
         11    1    3    3    0    0  0.18719186818E+03 -0.25955173769E+02  0.23747505093E+03  0.30349442560E+03  0.00000000000E+00 0. -1.
        -11    1    3    3    0    0  0.62254419592E+00 -0.12624264109E+02  0.64488344718E+02  0.65715342273E+02  0.00000000000E+00 0.  1.
          2    1    6    6  502    0  0.99883594862E+01  0.57705323085E+01  0.13884664399E+01  0.11618700762E+02  0.00000000000E+00 0. -1.
          1    1    5    5  503    0  0.29378473477E+01 -0.39275661364E+01 -0.59497808166E+02  0.59699630647E+02  0.00000000000E+00 0. -1.
         -2    1    5    5    0  503 -0.17757102017E+03  0.13656587549E+03 -0.81456852978E+03  0.84480979827E+03  0.00000000000E+00 0.  1.
         -1    1    6    6    0  502 -0.23169599042E+02 -0.99829403789E+02  0.20712572127E+03  0.23109263206E+03  0.00000000000E+00 0.  1.
<mgrwt>
<rscale>  0 0.14721973E+04</rscale>
<asrwt>0</asrwt>
<pdfrwt beam="1">  1        1 0.88680137E-01 0.14721973E+04</pdfrwt>
<pdfrwt beam="2">  1       -1 0.14461687E+00 0.14721973E+04</pdfrwt>
<totfact> 0.13537447E+01</totfact>
</mgrwt>
</event>
<event>
12    1  0.1442183E-007  0.1889836E+04  0.7818608E-02  0.8659932E-01
          2   -1    0    0  501    0  0.00000000000E+00  0.00000000000E+00  0.94508544496E+03  0.94508544496E+03  0.00000000000E+00 0. -1.
         -2   -1    0    0    0  501 -0.00000000000E+00 -0.00000000000E+00 -0.94475059267E+03  0.94475059267E+03  0.00000000000E+00 0.  1.
         23    2    1    2    0    0 -0.95625862651E+02 -0.71940807197E+03 -0.57119632592E+01  0.73142357628E+03  0.90860012009E+02 0.  0.
        254    2    1    2    0    0  0.95625862651E+02  0.71940807197E+03  0.60468155462E+01  0.11584124614E+04  0.90287905448E+03 0.  0.
        -24    2    4    4    0    0 -0.21792043585E+03 -0.96506164804E+02  0.11032703711E+03  0.27446540243E+03  0.79727321579E+02 0.  0.
         24    2    4    4    0    0  0.31354629850E+03  0.81591423678E+03 -0.10428022156E+03  0.88394705893E+03  0.80378574945E+02 0.  0.
         11    1    3    3    0    0 -0.10745560039E+03 -0.70280435993E+03 -0.68544565432E+01  0.71100468210E+03  0.00000000000E+00 0.  1.
        -11    1    3    3    0    0  0.11829737737E+02 -0.16603712037E+02  0.11424932840E+01  0.20418894173E+02  0.00000000000E+00 0. -1.
          2    1    6    6  502    0  0.50874782320E+02  0.14597811446E+03 -0.49295415608E+02  0.16225871741E+03  0.00000000000E+00 0. -1.
          3    1    5    5  503    0 -0.71949028130E+02  0.63477020286E+01  0.39852067029E+02  0.82493291948E+02  0.00000000000E+00 0. -1.
         -2    1    5    5    0  503 -0.14597140772E+03 -0.10285386683E+03  0.70474970080E+02  0.19197211048E+03  0.00000000000E+00 0.  1.
         -1    1    6    6    0  502  0.26267151618E+03  0.66993612232E+03 -0.54984805955E+02  0.72168834152E+03  0.00000000000E+00 0.  1.
<mgrwt>
<rscale>  0 0.18898360E+04</rscale>
<asrwt>0</asrwt>
<pdfrwt beam="1">  1        2 0.14539776E+00 0.18898360E+04</pdfrwt>
<pdfrwt beam="2">  1       -2 0.14534625E+00 0.18898360E+04</pdfrwt>
<totfact> 0.83476405E+00</totfact>
</mgrwt>
</event>
<event>
12    1  0.1442183E-007  0.1688384E+04  0.7818608E-02  0.8768017E-01
         -2   -1    0    0    0  501 -0.00000000000E+00  0.00000000000E+00  0.60177890337E+03  0.60177890337E+03  0.00000000000E+00 0.  1.
          2   -1    0    0  501    0  0.00000000000E+00 -0.00000000000E+00 -0.11842556861E+04  0.11842556861E+04  0.00000000000E+00 0. -1.
         23    2    1    2    0    0 -0.13474388705E+03 -0.45370911654E+03  0.19149673337E+03  0.51880394956E+03  0.92079648485E+02 0.  0.
        254    2    1    2    0    0  0.13474388705E+03  0.45370911654E+03 -0.77397351612E+03  0.12672306399E+04  0.88477715475E+03 0.  0.
        -24    2    4    4    0    0 -0.10083551034E+03  0.24899047507E+03  0.12914492986E+03  0.30838283735E+03  0.79104390780E+02 0.  0.
         24    2    4    4    0    0  0.23557939739E+03  0.20471864147E+03 -0.90311844598E+03  0.95884780257E+03  0.79742124244E+02 0.  0.
         11    1    3    3    0    0 -0.42282447142E+02 -0.18421951905E+03  0.12385302139E+03  0.22597390876E+03  0.00000000000E+00 0. -1.
        -11    1    3    3    0    0 -0.92461439909E+02 -0.26948959749E+03  0.67643711983E+02  0.29283004080E+03  0.00000000000E+00 0.  1.
          4    1    6    6  502    0  0.20026693565E+03  0.20333815935E+03 -0.77255898191E+03  0.82359008803E+03  0.00000000000E+00 0. -1.
          3    1    5    5  503    0 -0.11063020815E+03  0.22097255343E+03  0.99395744052E+02  0.26635958076E+03  0.00000000000E+00 0. -1.
         -4    1    5    5    0  503  0.97946978099E+01  0.28017921636E+02  0.29749185811E+02  0.42023256590E+02  0.00000000000E+00 0.  1.
         -3    1    6    6    0  502  0.35312461742E+02  0.13804821191E+01 -0.13055946407E+03  0.13525771455E+03  0.00000000000E+00 0.  1.
<mgrwt>
<rscale>  0 0.16883839E+04</rscale>
<asrwt>0</asrwt>
<pdfrwt beam="1">  1        2 0.18219318E+00 0.16883839E+04</pdfrwt>
<pdfrwt beam="2">  1       -2 0.92581371E-01 0.16883839E+04</pdfrwt>
<totfact> 0.18250783E+01</totfact>
</mgrwt>
</event>
<event>
12    1  0.1442183E-007  0.1971433E+04  0.7818608E-02  0.8620094E-01
         -2   -1    0    0    0  501 -0.00000000000E+00  0.00000000000E+00  0.16320412551E+04  0.16320412551E+04  0.00000000000E+00 0.  1.
          2   -1    0    0  501    0  0.00000000000E+00 -0.00000000000E+00 -0.59535100630E+03  0.59535100630E+03  0.00000000000E+00 0. -1.
         23    2    1    2    0    0 -0.47918209782E+03  0.35102397074E+03 -0.15218587389E+03  0.61970110475E+03  0.89641553493E+02 0.  0.
        254    2    1    2    0    0  0.47918209782E+03 -0.35102397074E+03  0.11888761227E+04  0.16076911567E+04  0.90466077022E+03 0.  0.
        -24    2    4    4    0    0  0.20826901510E+02 -0.36799261656E+03  0.53844433801E+02  0.38097203810E+03  0.79925872496E+02 0.  0.
         24    2    4    4    0    0  0.45835519631E+03  0.16968645821E+02  0.11350316889E+04  0.12267191186E+04  0.78520316513E+02 0.  0.
         11    1    3    3    0    0 -0.64579117725E+02  0.14692169499E+02 -0.80381606301E+01  0.66715322956E+02  0.00000000000E+00 0.  1.
        -11    1    3    3    0    0 -0.41460298009E+03  0.33633180124E+03 -0.14414771326E+03  0.55298578179E+03  0.00000000000E+00 0. -1.
          4    1    6    6  502    0  0.41977671777E+03  0.20982943462E+02  0.96916132280E+03  0.10563741981E+04  0.00000000000E+00 0. -1.
          3    1    5    5  503    0  0.18444470339E-01 -0.19145297111E+03 -0.10959409947E+02  0.19176639214E+03  0.00000000000E+00 0. -1.
         -4    1    5    5    0  503  0.20808457040E+02 -0.17653964545E+03  0.64803843748E+02  0.18920564597E+03  0.00000000000E+00 0.  1.
         -3    1    6    6    0  502  0.38578478535E+02 -0.40142976409E+01  0.16587036611E+03  0.17034492051E+03  0.00000000000E+00 0.  1.
<mgrwt>
<rscale>  0 0.19714334E+04</rscale>
<asrwt>0</asrwt>
<pdfrwt beam="1">  1        2 0.91592463E-01 0.19714334E+04</pdfrwt>
<pdfrwt beam="2">  1       -2 0.25108327E+00 0.19714334E+04</pdfrwt>
<totfact> 0.29498766E+00</totfact>
</mgrwt>
</event>
<event>
12    1  0.1442183E-007  0.1477597E+04  0.7818608E-02  0.8899489E-01
         -1   -1    0    0    0  501 -0.00000000000E+00  0.00000000000E+00  0.17681525537E+04  0.17681525537E+04  0.00000000000E+00 0.  1.
          1   -1    0    0  501    0  0.00000000000E+00 -0.00000000000E+00 -0.30869704691E+03  0.30869704691E+03  0.00000000000E+00 0. -1.
         23    2    1    2    0    0  0.84796252491E+02 -0.44573898029E+03  0.34959396054E+03  0.57991159869E+03  0.90597362338E+02 0.  0.
        254    2    1    2    0    0 -0.84796252491E+02  0.44573898029E+03  0.11098615462E+04  0.14969380019E+04  0.89619031837E+03 0.  0.
        -24    2    4    4    0    0  0.17028323566E+03  0.58387798586E+03  0.41544120368E+03  0.74024427826E+03  0.73893944703E+02 0.  0.
         24    2    4    4    0    0 -0.25507948816E+03 -0.13813900557E+03  0.69442034256E+03  0.75669372364E+03  0.78853339161E+02 0.  0.
         11    1    3    3    0    0  0.59552280513E+02 -0.38490159851E+03  0.33188323369E+03  0.51170518412E+03  0.00000000000E+00 0. -1.
        -11    1    3    3    0    0  0.25243971978E+02 -0.60837381778E+02  0.17710726850E+02  0.68206414570E+02  0.00000000000E+00 0.  1.
          2    1    6    6  502    0 -0.31511407195E+02 -0.61183286755E+01  0.32532131817E+02  0.45702760636E+02  0.00000000000E+00 0. -1.
          1    1    5    5  503    0  0.60814590773E+02  0.13843440146E+03  0.13436728484E+03  0.20227967074E+03  0.00000000000E+00 0. -1.
         -2    1    5    5    0  503  0.10946864489E+03  0.44544358440E+03  0.28107391884E+03  0.53796460752E+03  0.00000000000E+00 0.  1.
         -1    1    6    6    0  502 -0.22356808096E+03 -0.13202067689E+03  0.66188821075E+03  0.71099096301E+03  0.00000000000E+00 0.  1.
<mgrwt>
<rscale>  0 0.14775973E+04</rscale>
<asrwt>0</asrwt>
<pdfrwt beam="1">  1        1 0.47491854E-01 0.14775973E+04</pdfrwt>
<pdfrwt beam="2">  1       -1 0.27202346E+00 0.14775973E+04</pdfrwt>
<totfact> 0.41092412E+00</totfact>
</mgrwt>
</event>
<event>
12    1  0.1442183E-007  0.2799825E+04  0.7818608E-02  0.8303323E-01
         -2   -1    0    0    0  501 -0.00000000000E+00  0.00000000000E+00  0.27320970088E+04  0.27320970088E+04  0.00000000000E+00 0. -1.
          2   -1    0    0  501    0  0.00000000000E+00 -0.00000000000E+00 -0.71730800187E+03  0.71730800187E+03  0.00000000000E+00 0.  1.
         23    2    1    2    0    0 -0.93555185277E+02  0.11262970941E+04  0.15744331144E+04  0.19402020939E+04  0.90811985429E+02 0.  0.
        254    2    1    2    0    0  0.93555185277E+02 -0.11262970941E+04  0.44035589256E+03  0.15092029167E+04  0.89804365975E+03 0.  0.
        -24    2    4    4    0    0 -0.29042896165E+03 -0.97270794136E+03  0.36305059442E+03  0.10808626266E+04  0.77126925298E+02 0.  0.
         24    2    4    4    0    0  0.38398414692E+03 -0.15358915278E+03  0.77305298142E+02  0.42834029010E+03  0.80410459917E+02 0.  0.
         13    1    3    3    0    0 -0.66625731114E+02  0.88083395776E+03  0.12910330203E+04  0.15643125355E+04  0.00000000000E+00 0. -1.
        -13    1    3    3    0    0 -0.26929454164E+02  0.24546313638E+03  0.28340009407E+03  0.37588955844E+03  0.00000000000E+00 0.  1.
          4    1    6    6  502    0  0.12577720399E+02  0.56545942575E+01 -0.71048768787E+01  0.15512986885E+02  0.00000000000E+00 0. -1.
          1    1    5    5  503    0 -0.17719268595E+02 -0.50401369802E+02  0.38300140688E+02  0.65735616938E+02  0.00000000000E+00 0. -1.
         -2    1    5    5    0  503 -0.27270969305E+03 -0.92230657156E+03  0.32475045373E+03  0.10151270097E+04  0.00000000000E+00 0.  1.
         -3    1    6    6    0  502  0.37140642653E+03 -0.15924374704E+03  0.84410175021E+02  0.41282730322E+03  0.00000000000E+00 0.  1.
<mgrwt>
<rscale>  0 0.27998250E+04</rscale>
<asrwt>0</asrwt>
<pdfrwt beam="1">  1        2 0.11035508E+00 0.27998250E+04</pdfrwt>
<pdfrwt beam="2">  1       -2 0.42032261E+00 0.27998250E+04</pdfrwt>
<totfact> 0.18843236E-01</totfact>
</mgrwt>
</event>
<event>
12    1  0.1442183E-007  0.3578608E+04  0.7818608E-02  0.8095409E-01
         -1   -1    0    0    0  501 -0.00000000000E+00  0.00000000000E+00  0.22826069810E+04  0.22826069810E+04  0.00000000000E+00 0.  1.
          1   -1    0    0  501    0  0.00000000000E+00 -0.00000000000E+00 -0.14026108859E+04  0.14026108859E+04  0.00000000000E+00 0. -1.
         23    2    1    2    0    0  0.14977766352E+04 -0.41084852079E+03 -0.23379316447E+03  0.15731471935E+04  0.89451063092E+02 0.  0.
        254    2    1    2    0    0 -0.14977766352E+04  0.41084852079E+03  0.11137892595E+04  0.21120706734E+04  0.89899091145E+03 0.  0.
        -24    2    4    4    0    0 -0.99446610551E+02  0.89599601694E+02 -0.13651145210E+03  0.20745921211E+03  0.80537141484E+02 0.  0.
         24    2    4    4    0    0 -0.13983300246E+04  0.32124891910E+03  0.12503007116E+04  0.19046114613E+04  0.75929066795E+02 0.  0.
         13    1    3    3    0    0  0.11076159048E+04 -0.27394569959E+03 -0.14416461684E+03  0.11500620312E+04  0.00000000000E+00 0. -1.
        -13    1    3    3    0    0  0.39016073036E+03 -0.13690282120E+03 -0.89628547632E+02  0.42308516225E+03  0.00000000000E+00 0.  1.
          4    1    6    6  502    0 -0.71716598684E+03  0.17453564081E+03  0.69179754740E+03  0.10116192906E+04  0.00000000000E+00 0. -1.
          3    1    5    5  503    0 -0.29550005929E+02  0.17487588469E+02  0.41920270771E+01  0.34591786479E+02  0.00000000000E+00 0. -1.
         -4    1    5    5    0  503 -0.69896604622E+02  0.72112013225E+02 -0.14070347918E+03  0.17286742563E+03  0.00000000000E+00 0.  1.
         -3    1    6    6    0  502 -0.68116403779E+03  0.14671327828E+03  0.55850316422E+03  0.89299217066E+03  0.00000000000E+00 0.  1.
<mgrwt>
<rscale>  0 0.35786083E+04</rscale>
<asrwt>0</asrwt>
<pdfrwt beam="1">  1        1 0.21578629E+00 0.35786083E+04</pdfrwt>
<pdfrwt beam="2">  1       -1 0.35117031E+00 0.35786083E+04</pdfrwt>
<totfact> 0.94593253E-02</totfact>
</mgrwt>
</event>
<event>
12    1  0.1442183E-007  0.1436484E+04  0.7818608E-02  0.8927825E-01
          2   -1    0    0  501    0  0.00000000000E+00  0.00000000000E+00  0.47700334543E+04  0.47700334543E+04  0.00000000000E+00 0. -1.
         -2   -1    0    0    0  501 -0.00000000000E+00 -0.00000000000E+00 -0.10814845232E+03  0.10814845232E+03  0.00000000000E+00 0.  1.
         23    2    1    2    0    0 -0.56063577388E+02  0.26659803012E+03  0.28897715282E+03  0.40665634299E+03  0.87429697874E+02 0.  0.
        254    2    1    2    0    0  0.56063577388E+02 -0.26659803012E+03  0.43729078491E+04  0.44715255636E+04  0.89330855506E+03 0.  0.
        -24    2    4    4    0    0 -0.34302261171E+03  0.10081498818E+03  0.22099792999E+04  0.22402793821E+04  0.83755776158E+02 0.  0.
         24    2    4    4    0    0  0.39908618910E+03 -0.36741301831E+03  0.21629285492E+04  0.22312461814E+04  0.77055180629E+02 0.  0.
         11    1    3    3    0    0  0.22783096413E+02  0.40320278979E+02  0.41593043305E+02  0.62247695784E+02  0.00000000000E+00 0. -1.
        -11    1    3    3    0    0 -0.78846673801E+02  0.22627775115E+03  0.24738410951E+03  0.34440864721E+03  0.00000000000E+00 0.  1.
          4    1    6    6  502    0  0.10730454778E+03 -0.56360686530E+02  0.45327593438E+03  0.46920130610E+03  0.00000000000E+00 0. -1.
          3    1    5    5  503    0 -0.35192930550E+02  0.29852767177E+01  0.10801927306E+03  0.11364689873E+03  0.00000000000E+00 0. -1.
         -4    1    5    5    0  503 -0.30782968116E+03  0.97829711466E+02  0.21019600268E+04  0.21266324834E+04  0.00000000000E+00 0.  1.
         -3    1    6    6    0  502  0.29178164132E+03 -0.31105233178E+03  0.17096526148E+04  0.17620448753E+04  0.00000000000E+00 0.  1.
<mgrwt>
<rscale>  0 0.14364842E+04</rscale>
<asrwt>0</asrwt>
<pdfrwt beam="1">  1        2 0.73385114E+00 0.14364842E+04</pdfrwt>
<pdfrwt beam="2">  1       -2 0.16638227E-01 0.14364842E+04</pdfrwt>
<totfact> 0.19281240E+00</totfact>
</mgrwt>
</event>
<event>
12    1  0.1442183E-007  0.1742113E+04  0.7818608E-02  0.8737704E-01
          1   -1    0    0  501    0  0.00000000000E+00  0.00000000000E+00  0.12613093690E+04  0.12613093690E+04  0.00000000000E+00 0.  1.
         -1   -1    0    0    0  501 -0.00000000000E+00 -0.00000000000E+00 -0.60154912033E+03  0.60154912033E+03  0.00000000000E+00 0. -1.
         23    2    1    2    0    0  0.38886251489E+03 -0.38954338238E+03  0.57467212302E+03  0.80223333657E+03  0.10184387605E+03 0.  0.
        254    2    1    2    0    0 -0.38886251489E+03  0.38954338238E+03  0.85088125682E+02  0.10606251528E+04  0.90262263618E+03 0.  0.
        -24    2    4    4    0    0 -0.29872145160E+03  0.60697983072E+03  0.28816925458E+03  0.73959762053E+03  0.79398365584E+02 0.  0.
         24    2    4    4    0    0 -0.90141063291E+02 -0.21743644835E+03 -0.20308112889E+03  0.32102753225E+03  0.80079405535E+02 0.  0.
         13    1    3    3    0    0  0.35687215920E+03 -0.37121360750E+03  0.56430179956E+03  0.76393311317E+03  0.00000000000E+00 0.  1.
        -13    1    3    3    0    0  0.31990355688E+02 -0.18329774875E+02  0.10370323460E+02  0.38300223403E+02  0.00000000000E+00 0. -1.
          2    1    6    6  502    0 -0.38773079625E+02 -0.33284821527E+02 -0.75565903643E+02  0.91221909874E+02  0.00000000000E+00 0. -1.
          1    1    5    5  503    0 -0.54168707474E+02  0.54419081221E+02  0.28403814957E+02  0.81868565240E+02  0.00000000000E+00 0. -1.
         -2    1    5    5    0  503 -0.24455274413E+03  0.55256074950E+03  0.25976543962E+03  0.65772905529E+03  0.00000000000E+00 0.  1.
         -1    1    6    6    0  502 -0.51367983666E+02 -0.18415162682E+03 -0.12751522525E+03  0.22980562238E+03  0.00000000000E+00 0.  1.
<mgrwt>
<rscale>  0 0.17421131E+04</rscale>
<asrwt>0</asrwt>
<pdfrwt beam="1">  1        1 0.19404759E+00 0.17421131E+04</pdfrwt>
<pdfrwt beam="2">  1       -1 0.92546019E-01 0.17421131E+04</pdfrwt>
<totfact> 0.10383514E+01</totfact>
</mgrwt>
</event>
<event>
12    1  0.1442183E-007  0.1330093E+04  0.7818608E-02  0.9006036E-01
         -2   -1    0    0    0  501 -0.00000000000E+00  0.00000000000E+00  0.26863795817E+03  0.26863795817E+03  0.00000000000E+00 0.  1.
          2   -1    0    0  501    0  0.00000000000E+00 -0.00000000000E+00 -0.16464049383E+04  0.16464049383E+04  0.00000000000E+00 0. -1.
         23    2    1    2    0    0 -0.31360090373E+02 -0.29898278418E+03 -0.65517495777E+03  0.72681478248E+03  0.92905017284E+02 0.  0.
        254    2    1    2    0    0  0.31360090373E+02  0.29898278418E+03 -0.72259202235E+03  0.11882281140E+04  0.89407642828E+03 0.  0.
        -24    2    4    4    0    0 -0.65738265309E+02  0.51473687037E+03 -0.12421300537E+03  0.53951765383E+03  0.79842738215E+02 0.  0.
         24    2    4    4    0    0  0.97098355682E+02 -0.21575408619E+03 -0.59837901698E+03  0.64871046016E+03  0.82400829956E+02 0.  0.
         13    1    3    3    0    0 -0.19362053737E+02 -0.62439821830E+02 -0.71315414374E+02  0.96744554381E+02  0.00000000000E+00 0.  1.
        -13    1    3    3    0    0 -0.11998036636E+02 -0.23654296235E+03 -0.58385954340E+03  0.63007022810E+03  0.00000000000E+00 0. -1.
          4    1    6    6  502    0  0.34583643902E+02 -0.15335786637E+03 -0.44180521532E+03  0.46894190673E+03  0.00000000000E+00 0. -1.
          1    1    5    5  503    0  0.18235469745E+02  0.65563249204E+02 -0.14666044580E+02  0.69614401288E+02  0.00000000000E+00 0. -1.
         -2    1    5    5    0  503 -0.83973735054E+02  0.44917362116E+03 -0.10954696079E+03  0.46990325254E+03  0.00000000000E+00 0.  1.
         -3    1    6    6    0  502  0.62514711779E+02 -0.62396219821E+02 -0.15657380165E+03  0.17976855343E+03  0.00000000000E+00 0.  1.
<mgrwt>
<rscale>  0 0.13300930E+04</rscale>
<asrwt>0</asrwt>
<pdfrwt beam="1">  1        2 0.25329307E+00 0.13300930E+04</pdfrwt>
<pdfrwt beam="2">  1       -2 0.41328916E-01 0.13300930E+04</pdfrwt>
<totfact> 0.56977060E+01</totfact>
</mgrwt>
</event>
<event>
12    1  0.1442183E-007  0.3233939E+04  0.7818608E-02  0.8179911E-01
          1   -1    0    0  501    0  0.00000000000E+00  0.00000000000E+00  0.23104501097E+04  0.23104501097E+04  0.00000000000E+00 0. -1.
         -1   -1    0    0    0  501 -0.00000000000E+00 -0.00000000000E+00 -0.11316369465E+04  0.11316369465E+04  0.00000000000E+00 0.  1.
         23    2    1    2    0    0 -0.83160499204E+03 -0.98852845917E+03  0.13382222820E+04  0.18622016559E+04  0.90558012976E+02 0.  0.
        254    2    1    2    0    0  0.83160499204E+03  0.98852845917E+03 -0.15940911881E+03  0.15798854003E+04  0.89547263141E+03 0.  0.
        -24    2    4    4    0    0  0.67203321774E+03  0.64383255986E+03  0.29752739420E+03  0.98037034343E+03  0.80339586117E+02 0.  0.
         24    2    4    4    0    0  0.15957177431E+03  0.34469589930E+03 -0.45693651301E+03  0.59951505689E+03  0.79680062508E+02 0.  0.
         11    1    3    3    0    0 -0.62135230133E+03 -0.74118267964E+03  0.10567826201E+04  0.14325571378E+04  0.00000000000E+00 0. -1.
        -11    1    3    3    0    0 -0.21025269071E+03 -0.24734577953E+03  0.28143966188E+03  0.42964451804E+03  0.00000000000E+00 0.  1.
          4    1    6    6  502    0  0.10980988637E+02  0.76440108768E+00 -0.27475778405E+02  0.29598730030E+02  0.00000000000E+00 0. -1.
          3    1    5    5  503    0  0.12600090580E+03  0.81155688403E+02  0.40463068746E+02  0.15524089009E+03  0.00000000000E+00 0. -1.
         -4    1    5    5    0  503  0.54603231194E+03  0.56267687146E+03  0.25706432545E+03  0.82512945335E+03  0.00000000000E+00 0.  1.
         -3    1    6    6    0  502  0.14859078567E+03  0.34393149821E+03 -0.42946073461E+03  0.56991632686E+03  0.00000000000E+00 0.  1.
<mgrwt>
<rscale>  0 0.32339392E+04</rscale>
<asrwt>0</asrwt>
<pdfrwt beam="1">  1        1 0.35545386E+00 0.32339392E+04</pdfrwt>
<pdfrwt beam="2">  1       -1 0.17409799E+00 0.32339392E+04</pdfrwt>
<totfact> 0.35066408E-01</totfact>
</mgrwt>
</event>
<event>
12    1  0.1442183E-007  0.1258924E+04  0.7818608E-02  0.9062789E-01
          1   -1    0    0  501    0  0.00000000000E+00  0.00000000000E+00  0.30140765482E+04  0.30140765482E+04  0.00000000000E+00 0. -1.
         -1   -1    0    0    0  501 -0.00000000000E+00 -0.00000000000E+00 -0.13145725855E+03  0.13145725855E+03  0.00000000000E+00 0.  1.
         23    2    1    2    0    0  0.17544680431E+03 -0.20008375132E+03  0.40467762069E+03  0.49266882926E+03  0.90241398206E+02 0.  0.
        254    2    1    2    0    0 -0.17544680431E+03  0.20008375132E+03  0.24779416689E+04  0.26528649775E+04  0.90922086721E+03 0.  0.
        -24    2    4    4    0    0 -0.20089312564E+03  0.21590218740E+03  0.18298053799E+03  0.35624650537E+03  0.80361015721E+02 0.  0.
         24    2    4    4    0    0  0.25446321332E+02 -0.15818436086E+02  0.22949611309E+04  0.22966184721E+04  0.81927258514E+02 0.  0.
         11    1    3    3    0    0  0.45375887507E+02 -0.77748197563E+02  0.21011614412E+03  0.22858816114E+03  0.00000000000E+00 0. -1.
        -11    1    3    3    0    0  0.13007091680E+03 -0.12233555375E+03  0.19456147657E+03  0.26408066812E+03  0.00000000000E+00 0.  1.
          4    1    6    6  502    0  0.29340062508E+02 -0.25048701616E+02  0.45569504527E+03  0.45732510428E+03  0.00000000000E+00 0. -1.
          3    1    5    5  503    0 -0.34058556975E+02  0.27871038595E+02 -0.21419350728E+01  0.44060957564E+02  0.00000000000E+00 0. -1.
         -4    1    5    5    0  503 -0.16683456866E+03  0.18803114881E+03  0.18512247306E+03  0.31218554780E+03  0.00000000000E+00 0.  1.
         -3    1    6    6    0  502 -0.38937411761E+01  0.92302655300E+01  0.18392660857E+04  0.18392933678E+04  0.00000000000E+00 0.  1.
<mgrwt>
<rscale>  0 0.12589237E+04</rscale>
<asrwt>0</asrwt>
<pdfrwt beam="1">  1        1 0.46370403E+00 0.12589237E+04</pdfrwt>
<pdfrwt beam="2">  1       -1 0.20224196E-01 0.12589237E+04</pdfrwt>
<totfact> 0.11681809E+01</totfact>
</mgrwt>
</event>
<event>
12    1  0.1442183E-007  0.2427494E+04  0.7818608E-02  0.8429281E-01
          1   -1    0    0  501    0  0.00000000000E+00  0.00000000000E+00  0.76346525864E+03  0.76346525864E+03  0.00000000000E+00 0. -1.
         -1   -1    0    0    0  501 -0.00000000000E+00 -0.00000000000E+00 -0.19295991949E+04  0.19295991949E+04  0.00000000000E+00 0.  1.
         23    2    1    2    0    0 -0.83020227969E+03  0.53369585248E+03 -0.13034908817E+03  0.99970716063E+03  0.91413533319E+02 0.  0.
        254    2    1    2    0    0  0.83020227969E+03 -0.53369585248E+03 -0.10357848481E+04  0.16933572929E+04  0.90583750295E+03 0.  0.
        -24    2    4    4    0    0  0.93503321031E+03 -0.30963008387E+03 -0.10386055796E+04  0.14336122955E+04  0.79904760481E+02 0.  0.
         24    2    4    4    0    0 -0.10483093062E+03 -0.22406576862E+03  0.28207314909E+01  0.25974499738E+03  0.79148685753E+02 0.  0.
         13    1    3    3    0    0 -0.27572319182E+02  0.25201544154E+02 -0.22126107452E+02  0.43415610600E+02  0.00000000000E+00 0.  1.
        -13    1    3    3    0    0 -0.80262996051E+03  0.50849430833E+03 -0.10822298072E+03  0.95629155003E+03  0.00000000000E+00 0. -1.
          4    1    6    6  502    0 -0.24807833471E+02 -0.14530182121E+03  0.39257076095E+01  0.14745663440E+03  0.00000000000E+00 0. -1.
          1    1    5    5  503    0 -0.18056980008E+00  0.22332859383E+01 -0.14054117913E+01  0.26448731233E+01  0.00000000000E+00 0. -1.
         -2    1    5    5    0  503  0.93521378011E+03 -0.31186336981E+03 -0.10372001678E+04  0.14309674224E+04  0.00000000000E+00 0.  1.
         -3    1    6    6    0  502 -0.80023097146E+02 -0.78763947409E+02 -0.11049761185E+01  0.11228836298E+03  0.00000000000E+00 0.  1.
<mgrwt>
<rscale>  0 0.24274941E+04</rscale>
<asrwt>0</asrwt>
<pdfrwt beam="1">  1        1 0.11745620E+00 0.24274941E+04</pdfrwt>
<pdfrwt beam="2">  1       -1 0.29686141E+00 0.24274941E+04</pdfrwt>
<totfact> 0.73703868E-01</totfact>
</mgrwt>
</event>
<event>
12    1  0.1442183E-007  0.1693469E+04  0.7818608E-02  0.8765098E-01
         -1   -1    0    0    0  501 -0.00000000000E+00  0.00000000000E+00  0.43117051972E+03  0.43117051972E+03  0.00000000000E+00 0.  1.
          1   -1    0    0  501    0  0.00000000000E+00 -0.00000000000E+00 -0.16628204642E+04  0.16628204642E+04  0.00000000000E+00 0. -1.
         23    2    1    2    0    0  0.42585348610E+03  0.41056523361E+03 -0.29345646936E+03  0.66539260317E+03  0.81948851549E+02 0.  0.
        254    2    1    2    0    0 -0.42585348610E+03 -0.41056523361E+03 -0.93819347508E+03  0.14285983807E+04  0.90042841690E+03 0.  0.
        -24    2    4    4    0    0 -0.29584007598E+03 -0.13513267968E+03  0.95841915128E+02  0.34782266057E+03  0.77541852192E+02 0.  0.
         24    2    4    4    0    0 -0.13001341012E+03 -0.27543255393E+03 -0.10340353902E+04  0.10807757201E+04  0.77976858268E+02 0.  0.
         11    1    3    3    0    0  0.84411937171E+02  0.54595671062E+02 -0.77515528824E+02  0.12694376568E+03  0.00000000000E+00 0. -1.
        -11    1    3    3    0    0  0.34144154893E+03  0.35596956255E+03 -0.21594094053E+03  0.53844883749E+03  0.00000000000E+00 0.  1.
          4    1    6    6  502    0 -0.45245499690E+02 -0.50008873510E+02 -0.14888403189E+03  0.16344570238E+03  0.00000000000E+00 0. -1.
          3    1    5    5  503    0 -0.87321986196E+02 -0.80480411066E+02  0.36730490222E+02  0.12430347843E+03  0.00000000000E+00 0. -1.
         -4    1    5    5    0  503 -0.20851808978E+03 -0.54652268618E+02  0.59111424906E+02  0.22351918214E+03  0.00000000000E+00 0.  1.
         -3    1    6    6    0  502 -0.84767910434E+02 -0.22542368042E+03 -0.88515135831E+03  0.91733001775E+03  0.00000000000E+00 0.  1.
<mgrwt>
<rscale>  0 0.16934688E+04</rscale>
<asrwt>0</asrwt>
<pdfrwt beam="1">  1        1 0.25581853E+00 0.16934688E+04</pdfrwt>
<pdfrwt beam="2">  1       -1 0.66333927E-01 0.16934688E+04</pdfrwt>
<totfact> 0.11079971E+01</totfact>
</mgrwt>
</event>
<event>
12    1  0.1442183E-007  0.1966306E+04  0.7818608E-02  0.8622538E-01
          2   -1    0    0  501    0  0.00000000000E+00  0.00000000000E+00  0.18491459021E+04  0.18491459021E+04  0.00000000000E+00 0.  1.
         -2   -1    0    0    0  501 -0.00000000000E+00 -0.00000000000E+00 -0.52272208629E+03  0.52272208629E+03  0.00000000000E+00 0. -1.
         23    2    1    2    0    0 -0.26460863764E+03  0.56249171612E+03  0.10862530036E+04  0.12548323198E+04  0.90795932281E+02 0.  0.
        254    2    1    2    0    0  0.26460863764E+03 -0.56249171612E+03  0.24017081228E+03  0.11170356686E+04  0.89647755356E+03 0.  0.
        -24    2    4    4    0    0 -0.29915462514E+03 -0.28928843290E+03  0.23633543744E+03  0.48503938207E+03  0.78914358752E+02 0.  0.
         24    2    4    4    0    0  0.56376326278E+03 -0.27320328322E+03  0.38353748439E+01  0.63199628653E+03  0.83279923538E+02 0.  0.
         11    1    3    3    0    0 -0.10978060792E+03  0.29810311546E+03  0.62486517314E+03  0.70098055175E+03  0.00000000000E+00 0.  1.
        -11    1    3    3    0    0 -0.15482802971E+03  0.26438860066E+03  0.46138783041E+03  0.55385176807E+03  0.00000000000E+00 0. -1.
          2    1    6    6  502    0  0.17654565198E+03 -0.72104192011E+02 -0.35223029623E+02  0.19392793392E+03  0.00000000000E+00 0. -1.
          1    1    5    5  503    0 -0.14201784161E+02 -0.33456568715E+02  0.26942728654E+01  0.36445737334E+02  0.00000000000E+00 0. -1.
         -2    1    5    5    0  503 -0.28495284098E+03 -0.25583186418E+03  0.23364116458E+03  0.44859364474E+03  0.00000000000E+00 0.  1.
         -1    1    6    6    0  502  0.38721761080E+03 -0.20109909121E+03  0.39058404467E+02  0.43806835261E+03  0.00000000000E+00 0.  1.
<mgrwt>
<rscale>  0 0.19663056E+04</rscale>
<asrwt>0</asrwt>
<pdfrwt beam="1">  1        2 0.28448398E+00 0.19663056E+04</pdfrwt>
<pdfrwt beam="2">  1       -2 0.80418783E-01 0.19663056E+04</pdfrwt>
<totfact> 0.10312232E+01</totfact>
</mgrwt>
</event>
<event>
12    1  0.1442183E-007  0.2625222E+04  0.7818608E-02  0.8359684E-01
         -2   -1    0    0    0  501 -0.00000000000E+00  0.00000000000E+00  0.93567916895E+03  0.93567916895E+03  0.00000000000E+00 0.  1.
          2   -1    0    0  501    0  0.00000000000E+00 -0.00000000000E+00 -0.18413875340E+04  0.18413875340E+04  0.00000000000E+00 0. -1.
         23    2    1    2    0    0 -0.26921661481E+03  0.95682547086E+03 -0.10231685360E+04  0.14294308293E+04  0.91684652081E+02 0.  0.
        254    2    1    2    0    0  0.26921661481E+03 -0.95682547086E+03  0.11746017090E+03  0.13476358737E+04  0.90240400533E+03 0.  0.
        -24    2    4    4    0    0  0.24484546157E+03  0.10389758663E+03  0.47295386307E+01  0.27809529542E+03  0.81059337773E+02 0.  0.
         24    2    4    4    0    0  0.24371153236E+02 -0.10607230575E+04  0.11273063227E+03  0.10695405782E+04  0.74037120612E+02 0.  0.
         11    1    3    3    0    0 -0.24637232493E+03  0.93244401171E+03 -0.98182636123E+03  0.13762754670E+04  0.00000000000E+00 0. -1.
        -11    1    3    3    0    0 -0.22844289883E+02  0.24381459147E+02 -0.41342174754E+02  0.53155362324E+02  0.00000000000E+00 0.  1.
          2    1    6    6  502    0  0.58469742356E+01 -0.10017254892E+04  0.10556991840E+03  0.10072900032E+04  0.00000000000E+00 0. -1.
          1    1    5    5  503    0  0.91482319770E+02  0.13259495141E+01  0.17502989564E+02  0.93151100993E+02  0.00000000000E+00 0. -1.
         -2    1    5    5    0  503  0.15336314180E+03  0.10257163712E+03 -0.12773450933E+02  0.18494419443E+03  0.00000000000E+00 0.  1.
         -1    1    6    6    0  502  0.18524179001E+02 -0.58997568273E+02  0.71607138761E+01  0.62250575042E+02  0.00000000000E+00 0.  1.
<mgrwt>
<rscale>  0 0.26252222E+04</rscale>
<asrwt>0</asrwt>
<pdfrwt beam="1">  1        2 0.28329039E+00 0.26252222E+04</pdfrwt>
<pdfrwt beam="2">  1       -2 0.14395064E+00 0.26252222E+04</pdfrwt>
<totfact> 0.24131072E+00</totfact>
</mgrwt>
</event>
<event>
12    1  0.1442183E-007  0.1920898E+04  0.7818608E-02  0.8644523E-01
          2   -1    0    0  501    0  0.00000000000E+00  0.00000000000E+00  0.61384254673E+03  0.61384254673E+03  0.00000000000E+00 0. -1.
         -2   -1    0    0    0  501 -0.00000000000E+00 -0.00000000000E+00 -0.15027673921E+04  0.15027673921E+04  0.00000000000E+00 0.  1.
         23    2    1    2    0    0  0.75255463485E+03 -0.32329932784E+02 -0.48571617099E+03  0.90108519030E+03  0.93008700802E+02 0.  0.
        254    2    1    2    0    0 -0.75255463485E+03  0.32329932784E+02 -0.40320867433E+03  0.12155247485E+04  0.86460365261E+03 0.  0.
        -24    2    4    4    0    0 -0.73714369906E+03 -0.12630640987E+03  0.23443149578E+02  0.75324915076E+03  0.86605771317E+02 0.  0.
         24    2    4    4    0    0 -0.15410935793E+02  0.15863634265E+03 -0.42665182391E+03  0.46227559771E+03  0.79145203538E+02 0.  0.
         13    1    3    3    0    0  0.49456989393E+03 -0.31821101977E+02 -0.36926058665E+03  0.61803344842E+03  0.00000000000E+00 0.  1.
        -13    1    3    3    0    0  0.25798474092E+03 -0.50883080704E+00 -0.11645558434E+03  0.28305174188E+03  0.00000000000E+00 0. -1.
          4    1    6    6  502    0 -0.66813319960E+01  0.44468717169E+02 -0.23304975241E+03  0.23734846556E+03  0.00000000000E+00 0. -1.
          1    1    5    5  503    0 -0.54117450303E+03 -0.11373596095E+03 -0.14767491858E+02  0.55319417058E+03  0.00000000000E+00 0. -1.
         -2    1    5    5    0  503 -0.19596919603E+03 -0.12570448914E+02  0.38210641436E+02  0.20005498019E+03  0.00000000000E+00 0.  1.
         -3    1    6    6    0  502 -0.87296037966E+01  0.11416762548E+03 -0.19360207150E+03  0.22492713216E+03  0.00000000000E+00 0.  1.
<mgrwt>
<rscale>  0 0.19208983E+04</rscale>
<asrwt>0</asrwt>
<pdfrwt beam="1">  1        2 0.94437316E-01 0.19208983E+04</pdfrwt>
<pdfrwt beam="2">  1       -2 0.23119498E+00 0.19208983E+04</pdfrwt>
<totfact> 0.37886633E+00</totfact>
</mgrwt>
</event>
<event>
12    1  0.1442183E-007  0.2111628E+04  0.7818608E-02  0.8556138E-01
         -1   -1    0    0    0  501 -0.00000000000E+00  0.00000000000E+00  0.44850286417E+03  0.44850286417E+03  0.00000000000E+00 0.  1.
          1   -1    0    0  501    0  0.00000000000E+00 -0.00000000000E+00 -0.24854768394E+04  0.24854768394E+04  0.00000000000E+00 0. -1.
         23    2    1    2    0    0 -0.36225962881E+03  0.71495506699E+03 -0.12452780014E+04  0.14836378664E+04  0.89840031386E+02 0.  0.
        254    2    1    2    0    0  0.36225962881E+03 -0.71495506699E+03 -0.79169597380E+03  0.14503418372E+04  0.91340907774E+03 0.  0.
        -24    2    4    4    0    0 -0.28501463652E+03 -0.94756815213E+02 -0.25643434270E+03  0.40323346060E+03  0.81403037861E+02 0.  0.
         24    2    4    4    0    0  0.64727426533E+03 -0.62019825178E+03 -0.53526163110E+03  0.10471083766E+04  0.79505298688E+02 0.  0.
         13    1    3    3    0    0 -0.21417929507E+03  0.41430417886E+03 -0.64210858476E+03  0.79361461534E+03  0.00000000000E+00 0.  1.
        -13    1    3    3    0    0 -0.14808033374E+03  0.30065088813E+03 -0.60316941668E+03  0.69002325105E+03  0.00000000000E+00 0. -1.
          4    1    6    6  502    0  0.40117169197E+03 -0.41679933777E+03 -0.30960302863E+03  0.65613599943E+03  0.00000000000E+00 0. -1.
          1    1    5    5  503    0 -0.20343154946E+03 -0.27634514637E+02 -0.17678454724E+03  0.27092588998E+03  0.00000000000E+00 0. -1.
         -2    1    5    5    0  503 -0.81583087063E+02 -0.67122300575E+02 -0.79649795453E+02  0.13230757063E+03  0.00000000000E+00 0.  1.
         -3    1    6    6    0  502  0.24610257336E+03 -0.20339891401E+03 -0.22565860247E+03  0.39097237716E+03  0.00000000000E+00 0.  1.
<mgrwt>
<rscale>  0 0.21116283E+04</rscale>
<asrwt>0</asrwt>
<pdfrwt beam="1">  1        1 0.38238106E+00 0.21116283E+04</pdfrwt>
<pdfrwt beam="2">  1       -1 0.69000440E-01 0.21116283E+04</pdfrwt>
<totfact> 0.27076575E+00</totfact>
</mgrwt>
</event>
<event>
12    1  0.1442183E-007  0.1329877E+04  0.7818608E-02  0.9006202E-01
          2   -1    0    0  501    0  0.00000000000E+00  0.00000000000E+00  0.57141129448E+03  0.57141129448E+03  0.00000000000E+00 0. -1.
         -2   -1    0    0    0  501 -0.00000000000E+00 -0.00000000000E+00 -0.77377392225E+03  0.77377392225E+03  0.00000000000E+00 0.  1.
         23    2    1    2    0    0  0.11992070187E+02 -0.56366383634E+02  0.29887131540E+03  0.31524381330E+03  0.82058635790E+02 0.  0.
        254    2    1    2    0    0 -0.11992070187E+02  0.56366383634E+02 -0.50123394316E+03  0.10299414034E+04  0.89789913117E+03 0.  0.
        -24    2    4    4    0    0  0.61323366163E+02  0.40746757475E+03 -0.14208381348E+02  0.41984314684E+03  0.79221273259E+02 0.  0.
         24    2    4    4    0    0 -0.73315436349E+02 -0.35110119111E+03 -0.48702556181E+03  0.61009825659E+03  0.79867297595E+02 0.  0.
         11    1    3    3    0    0  0.28991080618E+02 -0.61161080484E+02  0.28459619696E+03  0.29253402511E+03  0.00000000000E+00 0. -1.
        -11    1    3    3    0    0 -0.16999010431E+02  0.47946968497E+01  0.14275118437E+02  0.22709788196E+02  0.00000000000E+00 0.  1.
          2    1    6    6  502    0 -0.73462146675E+01 -0.22248269778E+03 -0.28305242933E+03  0.36009886896E+03  0.00000000000E+00 0. -1.
          3    1    5    5  503    0 -0.27355193898E+01  0.22056942827E+02 -0.18811441163E+02  0.29118071911E+02  0.00000000000E+00 0. -1.
         -4    1    5    5    0  503  0.64058885552E+02  0.38541063192E+03  0.46030598148E+01  0.39072507492E+03  0.00000000000E+00 0.  1.
         -1    1    6    6    0  502 -0.65969221682E+02 -0.12861849334E+03 -0.20397313249E+03  0.24999938763E+03  0.00000000000E+00 0.  1.
<mgrwt>
<rscale>  0 0.13298769E+04</rscale>
<asrwt>0</asrwt>
<pdfrwt beam="1">  1        2 0.87909430E-01 0.13298769E+04</pdfrwt>
<pdfrwt beam="2">  1       -2 0.11904214E+00 0.13298769E+04</pdfrwt>
<totfact> 0.27864698E+01</totfact>
</mgrwt>
</event>
<event>
12    1  0.1876655E-007  0.1530671E+04  0.7818608E-02  0.8864309E-01
         -2   -1    0    0    0  501 -0.00000000000E+00  0.00000000000E+00  0.13778266099E+04  0.13778266099E+04  0.00000000000E+00 0. -1.
          2   -1    0    0  501    0  0.00000000000E+00 -0.00000000000E+00 -0.42511765199E+03  0.42511765199E+03  0.00000000000E+00 0.  1.
         23    2    1    2    0    0 -0.53140407146E+02  0.34523706960E+03  0.72564438155E+03  0.80885091126E+03  0.75282740838E+02 0.  0.
        254    2    1    2    0    0  0.53140407146E+02 -0.34523706960E+03  0.22706457634E+03  0.99409335062E+03  0.90258004122E+03 0.  0.
        -24    2    4    4    0    0  0.27026884347E+03 -0.28032343307E+03 -0.24330934143E+03  0.46605697303E+03  0.79894878486E+02 0.  0.
         24    2    4    4    0    0 -0.21712843632E+03 -0.64913636532E+02  0.47037391778E+03  0.52803637758E+03  0.78817862546E+02 0.  0.
         13    1    3    3    0    0 -0.15492463076E+02  0.79571207244E+02  0.24910845227E+03  0.26196681933E+03  0.00000000000E+00 0.  1.
        -13    1    3    3    0    0 -0.37647944070E+02  0.26566586235E+03  0.47653592928E+03  0.54688409193E+03  0.00000000000E+00 0. -1.
          4    1    6    6  502    0 -0.16126801902E+03 -0.33327123036E+02  0.40119300974E+03  0.43367488070E+03  0.00000000000E+00 0. -1.
          1    1    5    5  503    0  0.26509738083E+03 -0.27172465841E+03 -0.24949713293E+03  0.45426834652E+03  0.00000000000E+00 0. -1.
         -2    1    5    5    0  503  0.51714626424E+01 -0.85987746544E+01  0.61877914981E+01  0.11788626512E+02  0.00000000000E+00 0.  1.
         -3    1    6    6    0  502 -0.55860417309E+02 -0.31586513495E+02  0.69180908038E+02  0.94361496881E+02  0.00000000000E+00 0.  1.
<mgrwt>
<rscale>  0 0.15306710E+04</rscale>
<asrwt>0</asrwt>
<pdfrwt beam="1">  1        2 0.65402716E-01 0.15306710E+04</pdfrwt>
<pdfrwt beam="2">  1       -2 0.21197332E+00 0.15306710E+04</pdfrwt>
<totfact> 0.79493635E+00</totfact>
</mgrwt>
</event>
<event>
12    1  0.1442183E-007  0.1750766E+04  0.7818608E-02  0.8732929E-01
         -2   -1    0    0    0  501 -0.00000000000E+00  0.00000000000E+00  0.12945020050E+04  0.12945020050E+04  0.00000000000E+00 0. -1.
          2   -1    0    0  501    0  0.00000000000E+00 -0.00000000000E+00 -0.59196126180E+03  0.59196126180E+03  0.00000000000E+00 0.  1.
         23    2    1    2    0    0 -0.38549267830E+03  0.12337192412E+03  0.80084560714E+03  0.90167598853E+03  0.88547530350E+02 0.  0.
        254    2    1    2    0    0  0.38549267830E+03 -0.12337192412E+03 -0.98304863934E+02  0.98478727828E+03  0.89236590057E+03 0.  0.
        -24    2    4    4    0    0  0.20598006096E+03 -0.47403224198E+03  0.10433584634E+03  0.53353106481E+03  0.81455977873E+02 0.  0.
         24    2    4    4    0    0  0.17951261734E+03  0.35066031786E+03 -0.20264071027E+03  0.45125621347E+03  0.85915507527E+02 0.  0.
         11    1    3    3    0    0 -0.38542356874E+03  0.11122714856E+03  0.78637289901E+03  0.88278261323E+03  0.00000000000E+00 0. -1.
        -11    1    3    3    0    0 -0.69109556817E-01  0.12144775568E+02  0.14472708130E+02  0.18893375303E+02  0.00000000000E+00 0.  1.
          2    1    6    6  502    0 -0.71272930349E+01  0.88579348413E+01  0.16456836080E+01  0.11487801800E+02  0.00000000000E+00 0. -1.
          3    1    5    5  503    0  0.94029433428E+02 -0.31378049721E+03  0.58552636713E+02  0.33275838990E+03  0.00000000000E+00 0. -1.
         -4    1    5    5    0  503  0.11195062753E+03 -0.16025174477E+03  0.45783209624E+02  0.20077267491E+03  0.00000000000E+00 0.  1.
         -1    1    6    6    0  502  0.18663991037E+03  0.34180238302E+03 -0.20428639388E+03  0.43976841167E+03  0.00000000000E+00 0.  1.
<mgrwt>
<rscale>  0 0.17507656E+04</rscale>
<asrwt>0</asrwt>
<pdfrwt beam="1">  1        2 0.91070964E-01 0.17507656E+04</pdfrwt>
<pdfrwt beam="2">  1       -2 0.19915415E+00 0.17507656E+04</pdfrwt>
<totfact> 0.64309594E+00</totfact>
</mgrwt>
</event>
<event>
12    1  0.1442183E-007  0.1165219E+04  0.7818608E-02  0.9143857E-01
          2   -1    0    0  501    0  0.00000000000E+00  0.00000000000E+00  0.71488723846E+03  0.71488723846E+03  0.00000000000E+00 0. -1.
         -2   -1    0    0    0  501 -0.00000000000E+00 -0.00000000000E+00 -0.47480754989E+03  0.47480754989E+03  0.00000000000E+00 0.  1.
         23    2    1    2    0    0  0.91020462268E+02 -0.83999274734E+02  0.23800480248E+03  0.28332255649E+03  0.91020779523E+02 0.  0.
        254    2    1    2    0    0 -0.91020462268E+02  0.83999274734E+02  0.20748860985E+01  0.90637223186E+03  0.89786731472E+03 0.  0.
        -24    2    4    4    0    0  0.41552579197E+02 -0.33232577592E+03  0.22310727311E+03  0.41036204243E+03  0.80331266473E+02 0.  0.
         24    2    4    4    0    0 -0.13257304146E+03  0.41632505066E+03 -0.22103238701E+03  0.49601018943E+03  0.79174697871E+02 0.  0.
         11    1    3    3    0    0 -0.10375613416E+02 -0.31656237230E+01  0.71306889590E+02  0.72127297400E+02  0.00000000000E+00 0.  1.
        -11    1    3    3    0    0  0.10139607568E+03 -0.80833651011E+02  0.16669791289E+03  0.21119525909E+03  0.00000000000E+00 0. -1.
          2    1    6    6  502    0 -0.19503481212E+02  0.59509093481E+02 -0.65676463752E+02  0.90747539235E+02  0.00000000000E+00 0. -1.
          1    1    5    5  503    0  0.52296135935E+01  0.35648956436E+01  0.63021100416E+01  0.89316252868E+01  0.00000000000E+00 0. -1.
         -2    1    5    5    0  503  0.36322965604E+02 -0.33589067157E+03  0.21680516307E+03  0.40143041715E+03  0.00000000000E+00 0.  1.
         -1    1    6    6    0  502 -0.11306956025E+03  0.35681595718E+03 -0.15535592326E+03  0.40526265020E+03  0.00000000000E+00 0.  1.
<mgrwt>
<rscale>  0 0.11652190E+04</rscale>
<asrwt>0</asrwt>
<pdfrwt beam="1">  1        2 0.10998265E+00 0.11652190E+04</pdfrwt>
<pdfrwt beam="2">  1       -2 0.73047316E-01 0.11652190E+04</pdfrwt>
<totfact> 0.66814636E+01</totfact>
</mgrwt>
</event>
<event>
12    1  0.1442183E-007  0.3155596E+04  0.7818608E-02  0.8200644E-01
         -2   -1    0    0    0  501 -0.00000000000E+00  0.00000000000E+00  0.19246058488E+04  0.19246058488E+04  0.00000000000E+00 0.  1.
          2   -1    0    0  501    0  0.00000000000E+00 -0.00000000000E+00 -0.12934835500E+04  0.12934835500E+04  0.00000000000E+00 0. -1.
         23    2    1    2    0    0  0.78510698855E+03 -0.11239811174E+04  0.69756855242E+03  0.15409989767E+04  0.91375188723E+02 0.  0.
        254    2    1    2    0    0 -0.78510698855E+03  0.11239811174E+04 -0.66446253658E+02  0.16770904221E+04  0.96358219342E+03 0.  0.
        -24    2    4    4    0    0 -0.19510041621E+03  0.52897230014E+03 -0.47480955773E+03  0.74156391253E+03  0.81222247822E+02 0.  0.
         24    2    4    4    0    0 -0.59000657233E+03  0.59500881729E+03  0.40836330407E+03  0.93552650957E+03  0.79410414588E+02 0.  0.
         11    1    3    3    0    0  0.72868974010E+03 -0.10651049953E+04  0.63540686174E+03  0.14384642047E+04  0.00000000000E+00 0.  1.
        -11    1    3    3    0    0  0.56417248448E+02 -0.58876122155E+02  0.62161690680E+02  0.10253477201E+03  0.00000000000E+00 0. -1.
          4    1    6    6  502    0 -0.10854234404E+03  0.10581381378E+03  0.41065352182E+02  0.15704893119E+03  0.00000000000E+00 0. -1.
          1    1    5    5  503    0 -0.13751498042E+02  0.50457937530E+01 -0.74411150122E+01  0.16429666023E+02  0.00000000000E+00 0. -1.
         -2    1    5    5    0  503 -0.18134891817E+03  0.52392650639E+03 -0.46736844272E+03  0.72513424651E+03  0.00000000000E+00 0.  1.
         -3    1    6    6    0  502 -0.48146422830E+03  0.48919500350E+03  0.36729795189E+03  0.77847757838E+03  0.00000000000E+00 0.  1.
<mgrwt>
<rscale>  0 0.31555957E+04</rscale>
<asrwt>0</asrwt>
<pdfrwt beam="1">  1        2 0.19899747E+00 0.31555957E+04</pdfrwt>
<pdfrwt beam="2">  1       -2 0.29609321E+00 0.31555957E+04</pdfrwt>
<totfact> 0.47328325E-01</totfact>
</mgrwt>
</event>
<event>
12    1  0.1442183E-007  0.1371165E+04  0.7818608E-02  0.8974959E-01
         -1   -1    0    0    0  501 -0.00000000000E+00  0.00000000000E+00  0.34081443652E+03  0.34081443652E+03  0.00000000000E+00 0.  1.
          1   -1    0    0  501    0  0.00000000000E+00 -0.00000000000E+00 -0.13791189721E+04  0.13791189721E+04  0.00000000000E+00 0. -1.
         23    2    1    2    0    0  0.14199365537E+03 -0.22409227711E+03 -0.63881988389E+03  0.69712247759E+03  0.86656551287E+02 0.  0.
        254    2    1    2    0    0 -0.14199365537E+03  0.22409227711E+03 -0.39948465171E+03  0.10228109311E+04  0.90342385783E+03 0.  0.
        -24    2    4    4    0    0  0.17610670455E+03 -0.85242809282E+01 -0.55799266971E+03  0.59054701857E+03  0.79396013354E+02 0.  0.
         24    2    4    4    0    0 -0.31810035992E+03  0.23261655804E+03  0.15850801800E+03  0.43226391249E+03  0.80181021523E+02 0.  0.
         11    1    3    3    0    0  0.14365107143E+02 -0.91766198781E+02 -0.25891529506E+03  0.27507184799E+03  0.00000000000E+00 0.  1.
        -11    1    3    3    0    0  0.12762854823E+03 -0.13232607833E+03 -0.37990458883E+03  0.42205062959E+03  0.00000000000E+00 0. -1.
          4    1    6    6  502    0 -0.72426148485E+02  0.98479869049E+02  0.47904003452E+02  0.13129594487E+03  0.00000000000E+00 0. -1.
          3    1    5    5  503    0 -0.40140796463E+01 -0.53196257882E+01 -0.70821538119E+02  0.71134390526E+02  0.00000000000E+00 0. -1.
         -4    1    5    5    0  503  0.18012078419E+03 -0.32046551400E+01 -0.48717113159E+03  0.51941262804E+03  0.00000000000E+00 0.  1.
         -3    1    6    6    0  502 -0.24567421144E+03  0.13413668899E+03  0.11060401454E+03  0.30096796762E+03  0.00000000000E+00 0.  1.
<mgrwt>
<rscale>  0 0.13711654E+04</rscale>
<asrwt>0</asrwt>
<pdfrwt beam="1">  1        1 0.21217215E+00 0.13711654E+04</pdfrwt>
<pdfrwt beam="2">  1       -1 0.52432990E-01 0.13711654E+04</pdfrwt>
<totfact> 0.28458450E+01</totfact>
</mgrwt>
</event>
<event>
12    1  0.1442183E-007  0.2781433E+04  0.7818608E-02  0.8309056E-01
         -2   -1    0    0    0  501 -0.00000000000E+00  0.00000000000E+00  0.10930024487E+04  0.10930024487E+04  0.00000000000E+00 0.  1.
          2   -1    0    0  501    0  0.00000000000E+00 -0.00000000000E+00 -0.17695223108E+04  0.17695223108E+04  0.00000000000E+00 0. -1.
         23    2    1    2    0    0  0.10793368010E+04  0.59527931873E+03 -0.26092487884E+03  0.12632719709E+04  0.91917804779E+02 0.  0.
        254    2    1    2    0    0 -0.10793368010E+04 -0.59527931873E+03 -0.41559498330E+03  0.15992527885E+04  0.93035740134E+03 0.  0.
        -24    2    4    4    0    0 -0.38339969387E+03 -0.71536917477E+03 -0.10143392748E+03  0.82221930810E+03  0.83710020361E+02 0.  0.
         24    2    4    4    0    0 -0.69593710711E+03  0.12008985603E+03 -0.31416105583E+03  0.77703348043E+03  0.79585363845E+02 0.  0.
         13    1    3    3    0    0  0.74401902311E+03  0.41025936626E+03 -0.22307689468E+03  0.87843062065E+03  0.00000000000E+00 0.  1.
        -13    1    3    3    0    0  0.33531777788E+03  0.18501995247E+03 -0.37847984169E+02  0.38484135027E+03  0.00000000000E+00 0. -1.
          4    1    6    6  502    0 -0.16837031474E+03  0.45741229564E+02 -0.45298405000E+02  0.18025750598E+03  0.00000000000E+00 0. -1.
          3    1    5    5  503    0 -0.29291486065E+03 -0.50025409520E+03 -0.10334363081E+03  0.58884053986E+03  0.00000000000E+00 0. -1.
         -4    1    5    5    0  503 -0.90484833219E+02 -0.21511507957E+03  0.19097033324E+01  0.23337876824E+03  0.00000000000E+00 0.  1.
         -3    1    6    6    0  502 -0.52756679238E+03  0.74348626469E+02 -0.26886265083E+03  0.59677597445E+03  0.00000000000E+00 0.  1.
<mgrwt>
<rscale>  0 0.27814329E+04</rscale>
<asrwt>0</asrwt>
<pdfrwt beam="1">  1        2 0.27223420E+00 0.27814329E+04</pdfrwt>
<pdfrwt beam="2">  1       -2 0.16815422E+00 0.27814329E+04</pdfrwt>
<totfact> 0.17180502E+00</totfact>
</mgrwt>
</event>
<event>
12    1  0.1442183E-007  0.2771527E+04  0.7818608E-02  0.8312163E-01
         -1   -1    0    0    0  501 -0.00000000000E+00  0.00000000000E+00  0.15587454252E+04  0.15587454252E+04  0.00000000000E+00 0.  1.
          1   -1    0    0  501    0  0.00000000000E+00 -0.00000000000E+00 -0.12319782428E+04  0.12319782428E+04  0.00000000000E+00 0. -1.
         23    2    1    2    0    0  0.49027733853E+03 -0.53291271371E+03 -0.86264290031E+03  0.11300837066E+04  0.92566631560E+02 0.  0.
        254    2    1    2    0    0 -0.49027733853E+03  0.53291271371E+03  0.11894100827E+04  0.16606399614E+04  0.90479882152E+03 0.  0.
        -24    2    4    4    0    0 -0.64833613620E+03  0.28432067557E+03  0.40598932518E+03  0.81997390763E+03  0.79698713719E+02 0.  0.
         24    2    4    4    0    0  0.15805879767E+03  0.24859203814E+03  0.78342075751E+03  0.84066605375E+03  0.78681291885E+02 0.  0.
         11    1    3    3    0    0  0.23626192000E+02 -0.51037051602E+02 -0.97276446963E+02  0.11236407219E+03  0.00000000000E+00 0.  1.
        -11    1    3    3    0    0  0.46665114653E+03 -0.48187566210E+03 -0.76536645335E+03  0.10177196344E+04  0.00000000000E+00 0. -1.
          2    1    6    6  502    0  0.15654636569E+03  0.24979441218E+03  0.73091601902E+03  0.78812577665E+03  0.00000000000E+00 0. -1.
          1    1    5    5  503    0 -0.39895509889E+03  0.13223321403E+03  0.24208881825E+03  0.48503380268E+03  0.00000000000E+00 0. -1.
         -2    1    5    5    0  503 -0.24938103731E+03  0.15208746154E+03  0.16390050694E+03  0.33494010495E+03  0.00000000000E+00 0.  1.
         -1    1    6    6    0  502  0.15124319829E+01 -0.12023740462E+01  0.52504738491E+02  0.52540277101E+02  0.00000000000E+00 0.  1.
<mgrwt>
<rscale>  0 0.27715270E+04</rscale>
<asrwt>0</asrwt>
<pdfrwt beam="1">  1        1 0.18953511E+00 0.27715270E+04</pdfrwt>
<pdfrwt beam="2">  1       -1 0.23980699E+00 0.27715270E+04</pdfrwt>
<totfact> 0.71458974E-01</totfact>
</mgrwt>
</event>
<event>
12    1  0.1442183E-007  0.1325552E+04  0.7818608E-02  0.9009544E-01
          2   -1    0    0  501    0  0.00000000000E+00  0.00000000000E+00  0.62660055040E+03  0.62660055040E+03  0.00000000000E+00 0. -1.
         -2   -1    0    0    0  501 -0.00000000000E+00 -0.00000000000E+00 -0.70104016455E+03  0.70104016455E+03  0.00000000000E+00 0.  1.
         23    2    1    2    0    0 -0.86306327791E+02 -0.29251753266E+03 -0.14106099394E+03  0.34856656700E+03  0.92656130344E+02 0.  0.
        254    2    1    2    0    0  0.86306327791E+02  0.29251753266E+03  0.66621379784E+02  0.97907414795E+03  0.92797224626E+03 0.  0.
        -24    2    4    4    0    0  0.72199933865E+02  0.33326350941E+03  0.45831477666E+03  0.57678165869E+03  0.79669631222E+02 0.  0.
         24    2    4    4    0    0  0.14106393926E+02 -0.40745976753E+02 -0.39169339688E+03  0.40229248927E+03  0.80971012048E+02 0.  0.
         11    1    3    3    0    0 -0.12449150757E+02 -0.16226332849E+03 -0.38977737111E+02  0.16734286097E+03  0.00000000000E+00 0. -1.
        -11    1    3    3    0    0 -0.73857177034E+02 -0.13025420417E+03 -0.10208325683E+03  0.18122370603E+03  0.00000000000E+00 0.  1.
          4    1    6    6  502    0 -0.27418326559E+01 -0.58143877131E+02 -0.34305129988E+03  0.34795462699E+03  0.00000000000E+00 0. -1.
          3    1    5    5  503    0  0.65155947409E+02  0.18312818088E+03  0.20702218707E+03  0.28397079789E+03  0.00000000000E+00 0. -1.
         -4    1    5    5    0  503  0.70439864560E+01  0.15013532853E+03  0.25129258959E+03  0.29281086080E+03  0.00000000000E+00 0.  1.
         -3    1    6    6    0  502  0.16848226581E+02  0.17397900378E+02 -0.48642096994E+02  0.54337862274E+02  0.00000000000E+00 0.  1.
<mgrwt>
<rscale>  0 0.13255522E+04</rscale>
<asrwt>0</asrwt>
<pdfrwt beam="1">  1        2 0.96400085E-01 0.13255522E+04</pdfrwt>
<pdfrwt beam="2">  1       -2 0.10785233E+00 0.13255522E+04</pdfrwt>
<totfact> 0.31721289E+01</totfact>
</mgrwt>
</event>
<event>
12    1  0.1442183E-007  0.2714887E+04  0.7818608E-02  0.8330191E-01
          1   -1    0    0  501    0  0.00000000000E+00  0.00000000000E+00  0.10239420170E+04  0.10239420170E+04  0.00000000000E+00 0. -1.
         -1   -1    0    0    0  501 -0.00000000000E+00 -0.00000000000E+00 -0.17995674213E+04  0.17995674213E+04  0.00000000000E+00 0.  1.
         23    2    1    2    0    0  0.10098649323E+04  0.57206347606E+03 -0.66873957794E+03  0.13425980060E+04  0.90955924885E+02 0.  0.
        254    2    1    2    0    0 -0.10098649323E+04 -0.57206347606E+03 -0.10688582645E+03  0.14809114323E+04  0.91355913238E+03 0.  0.
        -24    2    4    4    0    0 -0.73089945809E+03  0.27963322317E+02 -0.28819536357E+03  0.79041576814E+03  0.81881339273E+02 0.  0.
         24    2    4    4    0    0 -0.27896547425E+03 -0.60002679837E+03  0.18130953712E+03  0.69049566421E+03  0.77828140455E+02 0.  0.
         11    1    3    3    0    0  0.82579954927E+01 -0.33001543078E+01 -0.30274661237E+01  0.93942034863E+01  0.00000000000E+00 0. -1.
        -11    1    3    3    0    0  0.10016069368E+04  0.57536363036E+03 -0.66571211182E+03  0.13332038025E+04  0.00000000000E+00 0.  1.
          2    1    6    6  502    0 -0.60501918879E+02 -0.67588101246E+02  0.22101910130E+02  0.93365561367E+02  0.00000000000E+00 0. -1.
          3    1    5    5  503    0 -0.26863453128E+03  0.38890339323E+02 -0.77507294459E+02  0.28228416637E+03  0.00000000000E+00 0. -1.
         -4    1    5    5    0  503 -0.46226492681E+03 -0.10927017006E+02 -0.21068806911E+03  0.50813160178E+03  0.00000000000E+00 0.  1.
         -1    1    6    6    0  502 -0.21846355537E+03 -0.53243869713E+03  0.15920762699E+03  0.59713010284E+03  0.00000000000E+00 0.  1.
<mgrwt>
<rscale>  0 0.27148869E+04</rscale>
<asrwt>0</asrwt>
<pdfrwt beam="1">  1        1 0.15752954E+00 0.27148869E+04</pdfrwt>
<pdfrwt beam="2">  1       -1 0.27685652E+00 0.27148869E+04</pdfrwt>
<totfact> 0.58953897E-01</totfact>
</mgrwt>
</event>
<event>
12    1  0.1442183E-007  0.1798504E+04  0.7818608E-02  0.8707096E-01
         -2   -1    0    0    0  501 -0.00000000000E+00  0.00000000000E+00  0.52204883941E+03  0.52204883941E+03  0.00000000000E+00 0.  1.
          2   -1    0    0  501    0  0.00000000000E+00 -0.00000000000E+00 -0.15490006244E+04  0.15490006244E+04  0.00000000000E+00 0. -1.
         23    2    1    2    0    0  0.16146700303E+03 -0.59111604380E+03 -0.70193063873E+03  0.93698130829E+03  0.98679178172E+02 0.  0.
        254    2    1    2    0    0 -0.16146700303E+03  0.59111604380E+03 -0.32502114626E+03  0.11340681555E+04  0.89720792769E+03 0.  0.
        -24    2    4    4    0    0  0.27966173898E+03 -0.15085923604E+02 -0.23581597570E+03  0.37443033533E+03  0.78425941359E+02 0.  0.
         24    2    4    4    0    0 -0.44112874201E+03  0.60620196740E+03 -0.89205170559E+02  0.75963782018E+03  0.83765524451E+02 0.  0.
         13    1    3    3    0    0 -0.31255569654E+01 -0.56929254890E+02 -0.10305530403E+03  0.11777565478E+03  0.00000000000E+00 0.  1.
        -13    1    3    3    0    0  0.16459256000E+03 -0.53418678891E+03 -0.59887533469E+03  0.81920565352E+03  0.00000000000E+00 0. -1.
          4    1    6    6  502    0 -0.25140334360E+03  0.36767155855E+03 -0.92163552454E+02  0.45484078153E+03  0.00000000000E+00 0. -1.
          3    1    5    5  503    0  0.26927964590E+03  0.37711430577E+01 -0.21914649781E+03  0.34720445953E+03  0.00000000000E+00 0. -1.
         -4    1    5    5    0  503  0.10382093081E+02 -0.18857066661E+02 -0.16669477893E+02  0.27225875799E+02  0.00000000000E+00 0.  1.
         -3    1    6    6    0  502 -0.18972539841E+03  0.23853040885E+03  0.29583818945E+01  0.30479703865E+03  0.00000000000E+00 0.  1.
<mgrwt>
<rscale>  0 0.17985038E+04</rscale>
<asrwt>0</asrwt>
<pdfrwt beam="1">  1        2 0.23830778E+00 0.17985038E+04</pdfrwt>
<pdfrwt beam="2">  1       -2 0.80315207E-01 0.17985038E+04</pdfrwt>
<totfact> 0.15408708E+01</totfact>
</mgrwt>
</event>
